Control file title. For DL_FIELD 4.10
49984
    1MOL     C1    1   0.770   0.398   1.162 -0.5604  0.3005 -0.1745
    1MOL     C2    2   0.885   0.416   1.066 -0.3093  0.4454  0.7923
    1MOL     O3    3   0.986   0.331   1.102  0.0538 -0.1639 -0.2829
    1MOL     H4    4   0.735   0.295   1.172 -1.4910  0.6609  0.4010
    1MOL     H5    5   0.690   0.462   1.125  0.3730  0.6646 -1.6186
    1MOL     H6    6   0.917   0.519   1.076 -2.0564  0.9957  0.8704
    1MOL     H7    7   0.847   0.401   0.965  1.3936  2.3629 -0.1690
    1MOL     H8    8   0.791   0.454   1.253  0.4038  1.4013 -1.0722
    1MOL     C9    9   1.080   0.333   1.005  0.5289 -0.1728  0.1162
    1MOL    C10   10   1.190   0.433   1.039  0.4447  0.0578  0.4853
    1MOL    O11   11   1.160   0.558   0.984 -0.0976 -0.5745 -0.3087
    1MOL    H12   12   1.123   0.233   1.015 -0.7394 -0.7283  0.1449
    1MOL    H13   13   1.042   0.342   0.903 -0.3533  1.2268  0.5498
    1MOL    H14   14   1.286   0.403   0.998 -0.2794 -1.5717 -0.0671
    1MOL    H15   15   1.194   0.431   1.148 -2.8325 -0.6770  0.6577
    1MOL    C16   16   1.255   0.657   0.994 -0.4317  0.4596 -0.1528
    1MOL    C17   17   1.356   0.642   0.873 -0.2072 -0.1394 -0.7316
    1MOL    O18   18   1.461   0.728   0.891  0.1549 -0.1675  0.1970
    1MOL    H19   19   1.203   0.751   1.006 -2.0145 -0.6546  2.0378
    1MOL    H20   20   1.309   0.644   1.088 -1.0138  0.1145  0.1345
    1MOL    H21   21   1.290   0.650   0.787 -0.0357 -0.9239 -0.9374
    1MOL    H22   22   1.398   0.542   0.865  1.0989  0.2206  1.4214
    1MOL    C23   23   1.523   0.744   0.762 -0.1991 -0.2976 -0.5210
    1MOL    C24   24   1.618   0.629   0.714 -0.1035  0.0248  0.1027
    1MOL    O25   25   1.540   0.519   0.659  0.5509  0.6841  0.4164
    1MOL    H26   26   1.448   0.763   0.686  0.1737  1.5265 -0.4470
    1MOL    H27   27   1.588   0.831   0.770 -0.2854 -0.3314  0.7753
    1MOL    H28   28   1.676   0.601   0.802 -1.5961 -0.8143  0.8445
    1MOL    H29   29   1.687   0.667   0.639  0.4938 -1.9854 -0.3935
    1MOL    C30   30   1.626   0.418   0.599  0.5334  0.0379  1.3342
    1MOL    C31   31   1.608   0.418   0.440  0.5558  0.0161  0.0409
    1MOL    O32   32   1.483   0.372   0.416 -0.1301  0.3000  0.0743
    1MOL    H33   33   1.730   0.417   0.629  1.6140  1.1984 -2.1504
    1MOL    H34   34   1.571   0.326   0.623 -1.5762  1.1910  1.0633
    1MOL    H35   35   1.689   0.355   0.403  2.0290  1.6407  0.4296
    1MOL    H36   36   1.613   0.516   0.392  2.8018 -0.4846 -0.8439
    1MOL    C37   37   1.478   0.330   0.282 -0.4244  0.0327  0.0757
    1MOL    C38   38   1.336   0.307   0.234 -0.4099 -0.4280 -0.1392
    1MOL    O39   39   1.279   0.428   0.189  0.5358 -0.4773 -0.3759
    1MOL    H40   40   1.527   0.405   0.219  0.6113  0.2679  1.1530
    1MOL    H41   41   1.530   0.234   0.274  2.0584  1.4182 -1.1498
    1MOL    H42   42   1.273   0.256   0.307  1.0367 -2.1711 -0.0947
    1MOL    H43   43   1.340   0.239   0.149  0.6684 -2.8585  1.7858
    1MOL    C44   44   1.167   0.409   0.107  0.0079 -0.6729  0.3783
    1MOL    C45   45   1.120   0.541   0.042  0.3258  0.1710  0.3116
    1MOL    O46   46   1.020   0.603   0.130  0.1387 -0.3088  0.1962
    1MOL    H47   47   1.182   0.336   0.028 -0.4023 -0.3944  0.0397
    1MOL    H48   48   1.088   0.372   0.172  1.3299 -1.9106  1.3290
    1MOL    H49   49   1.070   0.510   7.721 -2.1445  1.6183  1.1213
    1MOL    H50   50   1.207   0.599   0.013  0.3694  0.1612  0.4238
    1MOL    C51   51   0.947   0.700   0.071 -0.2442 -0.0620  0.8394
    1MOL    C52   52   0.868   0.771   0.177 -0.3758  1.3169  0.3014
    1MOL    O53   53   0.738   0.707   0.186 -0.1221  0.6869 -0.3690
    1MOL    H54   54   1.019   0.772   0.034  1.1827 -0.4782  2.6927
    1MOL    H55   55   0.879   0.659   7.768  1.2960 -0.1863 -0.5080
    1MOL    H56   56   0.852   0.870   0.135  1.6123  1.1242 -0.9558
    1MOL    H57   57   0.925   0.787   0.269 -0.0720  2.6190 -0.1009
    1MOL    C58   58   0.731   0.589   0.268 -0.3445  0.1767  0.5208
    1MOL    C59   59   0.589   0.547   0.250  0.4773 -0.1613 -0.0109
    1MOL    O60   60   0.568   0.516   0.110 -0.0388  0.0407  0.1608
    1MOL    H61   61   0.799   0.521   0.217  0.0589  1.9688 -1.4166
    1MOL    H62   62   0.765   0.598   0.371 -1.1515  2.4331  0.6097
    1MOL    H63   63   0.521   0.625   0.284  0.1153  1.0466 -3.2950
    1MOL    H64   64   0.579   0.459   0.313  0.2252  0.5152  0.9128
    1MOL    C65   65   0.430   0.514   0.077 -0.0754 -0.1208  0.1766
    1MOL    C66   66   0.368   0.373   0.114  0.1514  0.0199 -0.1919
    1MOL    O67   67   0.339   0.366   0.253 -0.4927 -0.4266 -0.5353
    1MOL    H68   68   0.378   0.597   0.124 -2.1063 -0.2466 -1.7541
    1MOL    H69   69   0.414   0.516   7.740  2.8335  1.6971 -0.2696
    1MOL    H70   70   0.442   0.299   0.085 -1.3927 -1.1020 -1.2929
    1MOL    H71   71   0.279   0.360   0.053  0.2810 -1.4475 -0.0670
    1MOL    C72   72   0.274   0.240   0.285 -0.3540  0.3956  0.6063
    1MOL    C73   73   0.157   0.240   0.388  0.0380 -0.0586 -0.3936
    1MOL    O74   74   0.038   0.311   0.346 -0.1192  0.1126  0.4800
    1MOL    H75   75   0.228   0.196   0.196  1.2983 -2.0680  0.9067
    1MOL    H76   76   0.354   0.174   0.319  1.2056  1.1882 -1.4314
    1MOL    H77   77   0.197   0.274   0.483  0.9684 -0.8774 -0.4839
    1MOL    H78   78   0.119   0.140   0.411 -2.7396  0.6182 -1.7811
    1MOL    C79   79   0.048   0.453   0.326 -0.3842 -0.5535 -0.3215
    1MOL    C80   80   7.674   0.499   0.286  0.1261  0.0867 -0.3536
    1MOL    O81   81   7.670   0.638   0.299  0.3575 -0.2928 -0.7660
    1MOL    H82   82   0.067   0.509   0.418  0.1422  0.2302 -0.9041
    1MOL    H83   83   0.100   0.491   0.238  0.4714  1.5483  1.0536
    1MOL    H84   84   7.607   0.452   0.358 -0.9483 -1.5168 -2.3366
    1MOL    H85   85   7.645   0.460   0.189  0.8887  1.6627 -1.2321
    1MOL    C86   86   7.545   0.700   0.313  0.3896  0.3911 -0.0027
    1MOL    C87   87   7.563   0.857   0.309 -0.1552 -0.1815 -0.8877
    1MOL    O88   88   7.567   0.909   0.442  0.2736 -0.1243 -0.2930
    1MOL    H89   89   7.482   0.663   0.232 -0.3172  1.4513  0.0484
    1MOL    H90   90   7.487   0.675   0.402 -0.5091 -2.4292 -1.3249
    1MOL    H91   91   7.473   0.890   0.259 -1.8780 -3.1884  0.0791
    1MOL    H92   92   7.657   0.879   0.257  0.1469  0.4579 -0.0892
    1MOL    C93   93   7.556   1.054   0.437 -0.4895  0.4187 -0.0276
    1MOL    C94   94   7.608   1.098   0.574  0.1300  0.3669  0.0877
    1MOL    O95   95   7.737   1.036   0.599  0.2451  0.4203 -0.3632
    1MOL    H96   96   7.614   1.092   0.354  1.0127  0.4903  1.0386
    1MOL    H97   97   7.455   1.093   0.426 -0.1919  0.3733 -3.2233
    1MOL    H98   98   7.539   1.071   0.654 -0.2472 -0.4681 -0.5067
    1MOL    H99   99   7.613   1.206   0.583  1.5830  0.2315  1.0302
    1MOL   C100  100   0.019   1.080   0.724  0.0986  1.0594 -0.1569
    1MOL   C101  101   0.164   1.029   0.749 -0.5826 -0.2440  0.3424
    1MOL   O102  102   0.251   1.123   0.688 -0.6205 -0.4352  0.1142
    1MOL   H103  103   0.017   1.189   0.735  1.0695  1.0015  0.7649
    1MOL   H104  104   7.733   1.033   0.804  0.0662  1.8333  0.2885
    1MOL   H105  105   0.182   0.928   0.711 -2.0331 -1.4803  2.8375
    1MOL   H106  106   0.180   1.017   0.856 -1.4232 -0.8632  0.4054
    1MOL   C107  107   0.386   1.103   0.726 -0.7215 -0.3286  0.0559
    1MOL   C108  108   0.459   1.232   0.672  0.3217  0.3722 -0.5749
    1MOL   O109  109   0.411   1.325   0.764 -0.0781  0.1803  0.4471
    1MOL   H110  110   0.406   1.117   0.832  1.7112 -1.5281 -0.2260
    1MOL   H111  111   0.421   1.007   0.689 -0.8037 -0.9850  1.6546
    1MOL   H112  112   0.454   1.251   0.565  2.4527  0.8422 -0.6264
    1MOL   H113  113   0.568   1.225   0.681  0.3005  0.2495 -0.3934
    1MOL   C114  114   0.321   1.421   0.710 -0.9607  0.4925 -0.5383
    1MOL   C115  115   0.275   1.515   0.815  0.4693 -0.3082 -0.7530
    1MOL   O116  116   0.173   1.458   0.898 -0.1029 -0.0468  0.5217
    1MOL   H117  117   0.381   1.477   0.638  0.3280 -0.2920 -0.0971
    1MOL   H118  118   0.239   1.387   0.646  0.3664 -0.5708 -1.6978
    1MOL   H119  119   0.230   1.599   0.761  1.8464  0.2265 -1.0700
    1MOL   H120  120   0.356   1.557   0.874 -1.0643  1.5032  0.1522
    1MOL   C121  121   0.202   1.353   0.989  0.4473  0.1465 -0.6913
    1MOL   C122  122   0.095   1.337   1.096  0.5343 -0.2478  0.3304
    1MOL   O123  123   7.744   1.302   1.023  0.5938 -0.0038 -0.3307
    1MOL   H124  124   0.213   1.265   0.927  2.5470  0.1109 -0.2979
    1MOL   H125  125   0.294   1.373   1.044 -0.9355 -0.6069  1.9987
    1MOL   H126  126   0.067   1.432   1.141 -0.8926 -0.0361 -0.9572
    1MOL   H127  127   0.127   1.273   1.178 -1.0521  0.8385  1.8127
    1MOL   C128  128   7.628   1.362   1.087 -0.2756 -0.5942  0.1556
    1MOL   C129  129   7.518   1.294   1.016 -0.4632 -0.4174 -0.2384
    1MOL   O130  130   7.521   1.158   1.045 -0.4786 -0.2379 -0.0914
    1MOL   H131  131   7.633   1.337   1.194  0.2971 -0.7654  0.0878
    1MOL   H132  132   7.621   1.470   1.080  0.6470 -0.4697  0.9730
    1MOL   H133  133   7.518   1.323   0.911  2.4497 -0.4830 -0.3016
    1MOL   H134  134   7.430   1.335   1.067 -1.0552  0.2166 -1.7390
    1MOL   C135  135   7.423   1.086   0.975  0.5249  0.5375  0.4761
    1MOL   C136  136   7.473   0.948   0.947  0.3304 -0.2790 -0.4614
    1MOL   O137  137   7.413   0.849   1.028 -0.1226  0.1946 -0.0177
    1MOL   H138  138   7.329   1.084   1.030 -0.3386 -2.0443 -1.0372
    1MOL   H139  139   7.402   1.138   0.882 -0.5780 -0.2941  0.2555
    1MOL   H140  140   7.582   0.937   0.946  0.3614 -0.4135  1.8978
    1MOL   H141  141   7.442   0.928   0.844  0.3999  3.1999 -1.2260
    1MOL   H142  142   7.473   0.815   1.093 -0.0090 -1.1897 -0.8447
    2MOL     C1  143   4.625   6.394   2.047 -0.4629 -0.0167 -0.0982
    2MOL     C2  144   4.712   6.509   1.984 -0.9168  0.6406  0.8057
    2MOL     O3  145   4.719   6.635   2.058  0.0792  0.3194  0.0324
    2MOL     H4  146   4.525   6.439   2.040 -1.4470 -2.3082 -1.0460
    2MOL     H5  147   4.648   6.386   2.153  1.2614  2.8021 -0.2022
    2MOL     H6  148   4.687   6.518   1.879  0.1621 -0.6044  0.4268
    2MOL     H7  149   4.812   6.467   1.994 -1.1249 -0.5851 -1.8693
    2MOL     H8  150   4.633   6.301   1.992 -0.8529  0.6830 -1.3611
    2MOL     C9  151   4.842   6.705   2.045  0.1638 -0.0058 -0.3138
    2MOL    C10  152   4.859   6.769   1.914 -0.2935 -0.4219  0.0616
    2MOL    O11  153   4.849   6.693   1.794  0.1503 -0.4737  0.3221
    2MOL    H12  154   4.840   6.787   2.117 -3.7528 -0.1651 -0.1371
    2MOL    H13  155   4.929   6.643   2.068  0.1831  0.3200  0.5149
    2MOL    H14  156   4.954   6.823   1.914 -0.5980  0.1174 -0.4017
    2MOL    H15  157   4.792   6.852   1.895 -0.2992 -1.0109 -2.6317
    2MOL    C16  158   4.967   6.619   1.758 -0.2043 -0.5885  0.3209
    2MOL    C17  159   4.921   6.533   1.639  0.8209 -0.0170  0.4873
    2MOL    O18  160   4.863   6.615   1.537 -0.5276  0.4157 -0.3653
    2MOL    H19  161   5.049   6.690   1.749 -0.5280  0.0689  2.3308
    2MOL    H20  162   4.989   6.551   1.841 -1.7087  1.0703  2.1374
    2MOL    H21  163   4.835   6.466   1.650  0.4657 -0.4474 -4.1061
    2MOL    H22  164   5.007   6.486   1.592  1.5414  0.4506  1.3260
    2MOL    C23  165   4.838   6.538   1.421  0.0039  0.2963  0.1733
    2MOL    C24  166   4.961   6.545   1.327  0.2674 -0.0701 -0.3034
    2MOL    O25  167   5.051   6.438   1.358 -0.3075  0.7914  0.2100
    2MOL    H26  168   4.795   6.438   1.432  1.5300 -0.5209 -0.9452
    2MOL    H27  169   4.768   6.600   1.367  0.0063 -0.2400 -0.4468
    2MOL    H28  170   5.010   6.642   1.327 -0.7576  0.4753  2.2197
    2MOL    H29  171   4.921   6.528   1.227 -0.0374 -0.2170 -0.1567
    2MOL    C30  172   5.173   6.449   1.281  0.6216 -0.1604 -0.5335
    2MOL    C31  173   5.252   6.323   1.299  0.2276 -0.1530 -0.2010
    2MOL    O32  174   5.360   6.333   1.385  0.0124  0.3160 -0.9236
    2MOL    H33  175   5.138   6.455   1.178 -3.2551 -1.0092  0.6528
    2MOL    H34  176   5.237   6.535   1.301  0.8918 -0.3893 -0.4106
    2MOL    H35  177   5.291   6.315   1.197 -1.0292  0.5038 -0.7548
    2MOL    H36  178   5.186   6.240   1.325  0.8210 -0.6715 -0.3320
    2MOL    C37  179   5.316   6.330   1.519 -0.0564  0.1882 -0.0142
    2MOL    C38  180   5.435   6.323   1.620 -0.9157 -0.0095 -0.4169
    2MOL    O39  181   5.510   6.439   1.630 -0.1939 -0.4784 -0.2165
    2MOL    H40  182   5.254   6.414   1.549  1.1708  1.8328 -1.9827
    2MOL    H41  183   5.257   6.239   1.530 -0.2113  0.3205  0.2481
    2MOL    H42  184   5.505   6.248   1.583 -0.5185 -0.4065  1.1026
    2MOL    H43  185   5.410   6.290   1.721  0.1643 -1.8248 -0.7250
    2MOL    C44  186   5.445   6.548   1.700 -0.2986  0.0666  0.7034
    2MOL    C45  187   5.415   6.535   1.852  0.0037  0.6028 -0.5612
    2MOL    O46  188   5.304   6.460   1.881  0.7546 -0.0066 -0.6278
    2MOL    H47  189   5.516   6.630   1.693 -0.3362 -0.1171 -2.3115
    2MOL    H48  190   5.357   6.576   1.642  1.4371  1.6170 -1.2407
    2MOL    H49  191   5.387   6.635   1.886  0.6234  0.8216 -0.6979
    2MOL    H50  192   5.497   6.500   1.915  0.5266 -0.0902 -1.6259
    2MOL    C51  193   5.255   6.474   2.012 -0.0390 -0.5512  0.4371
    2MOL    C52  194   5.337   6.435   2.141 -0.1083 -0.4988 -0.6505
    2MOL    O53  195   5.441   6.526   2.157 -0.2121 -0.1446 -0.2564
    2MOL    H54  196   5.213   6.572   2.035  0.4135 -0.2186 -0.1455
    2MOL    H55  197   5.176   6.399   2.010 -0.5833  0.0207  0.4293
    2MOL    H56  198   5.368   6.330   2.140  2.5844  0.2546  0.3603
    2MOL    H57  199   5.266   6.449   2.223 -1.6218 -1.6512 -1.7246
    2MOL    C58  200   5.471   6.566   2.288 -0.1391 -0.4315  0.1645
    2MOL    C59  201   5.590   6.663   2.271 -0.0823  0.0047 -0.3462
    2MOL    O60  202   5.558   6.796   2.234  0.4187 -0.3459  0.1783
    2MOL    H61  203   5.390   6.610   2.345  2.1137  1.7523  1.7548
    2MOL    H62  204   5.515   6.486   2.348  2.9377  0.5179 -0.7304
    2MOL    H63  205   5.663   6.630   2.196  0.0567  1.5141 -0.8878
    2MOL    H64  206   5.637   6.685   2.367 -2.8729  0.2454  1.0155
    2MOL    C65  207   5.460   6.808   2.126 -0.1050 -0.2621  0.0274
    2MOL    C66  208   5.482   6.950   2.066 -0.1748  0.3143 -0.3132
    2MOL    O67  209   5.579   6.960   1.965 -0.3823  0.2074  0.2483
    2MOL    H68  210   5.474   6.727   2.054 -0.7109 -0.7944  0.4989
    2MOL    H69  211   5.360   6.807   2.169  0.2388 -0.6962  0.8189
    2MOL    H70  212   5.495   7.029   2.140 -0.6500 -0.6779  0.8556
    2MOL    H71  213   5.386   6.978   2.021 -0.3485  0.6485  0.2637
    2MOL    C72  214   5.712   6.939   2.008  0.0541  0.0645 -0.6376
    2MOL    C73  215   5.803   6.958   1.887 -0.0551 -0.1189  0.1991
    2MOL    O74  216   5.825   6.829   1.827  0.1331 -0.1847 -0.3398
    2MOL    H75  217   5.754   7.013   2.076 -2.9372  0.9241  0.3501
    2MOL    H76  218   5.725   6.838   2.047  0.3785  0.3909  0.1135
    2MOL    H77  219   5.902   6.999   1.908 -0.4940  0.4229  1.2473
    2MOL    H78  220   5.760   7.027   1.814  1.2758 -0.2447 -0.7185
    2MOL    C79  221   5.884   6.837   1.700 -0.1494  0.6118 -0.2068
    2MOL    C80  222   5.913   6.697   1.642 -0.0317  0.2748 -0.2600
    2MOL    O81  223   5.965   6.708   1.509  0.2061  0.5035  0.2864
    2MOL    H82  224   5.826   6.894   1.628  0.0332  1.3297  0.2155
    2MOL    H83  225   5.984   6.881   1.705 -0.3453  1.2582 -1.8029
    2MOL    H84  226   5.818   6.646   1.632  0.5704 -0.8528 -0.2982
    2MOL    H85  227   5.969   6.629   1.706  0.8176  1.6913  0.5547
    2MOL    C86  228   5.953   6.591   1.426  0.6609  0.0278  0.2735
    2MOL    C87  229   5.994   6.625   1.281 -0.0257  0.6330  0.4922
    2MOL    O88  230   5.913   6.731   1.238 -0.1789 -0.2006 -0.1784
    2MOL    H89  231   6.003   6.506   1.473  2.0336  0.1766 -0.8946
    2MOL    H90  232   5.848   6.567   1.410  0.5524  1.7264 -1.7258
    2MOL    H91  233   5.972   6.528   1.235  0.6468 -0.2176  1.9364
    2MOL    H92  234   6.101   6.647   1.270  0.3905  0.6920  4.2166
    2MOL    C93  235   5.941   6.785   1.106 -0.5797  0.0029  0.0031
    2MOL    C94  236   5.918   6.681   0.993  0.1441 -0.1594  0.5618
    2MOL    O95  237   5.998   6.567   0.998 -0.0539  0.0847 -0.4896
    2MOL    H96  238   5.865   6.862   1.093  0.1092  0.5229 -0.9614
    2MOL    H97  239   6.034   6.840   1.114 -0.7747  0.3137  0.1472
    2MOL    H98  240   5.944   6.738   0.903 -0.2511 -1.5312 -0.4389
    2MOL    H99  241   5.813   6.654   0.995  0.3242 -0.8456  0.8972
    2MOL   C100  242   5.937   6.445   0.960  0.1263 -0.1045  0.0703
    2MOL   C101  243   5.937   6.421   0.809 -0.0096 -0.7387 -0.2695
    2MOL   O102  244   5.828   6.501   0.763  0.2675 -0.1532 -0.3430
    2MOL   H103  245   5.989   6.364   1.011 -0.9748 -0.1209  1.2024
    2MOL   H104  246   5.834   6.429   0.993 -0.3231 -2.3001 -2.2430
    2MOL   H105  247   5.916   6.318   0.783 -1.5671 -0.8119  1.1685
    2MOL   H106  248   6.032   6.431   0.756  1.2896  2.3827  2.4467
    2MOL   C107  249   5.849   6.553   0.633 -0.1581  0.6746 -0.2187
    2MOL   C108  250   5.738   6.650   0.588 -0.7323  0.1968  0.8145
    2MOL   O109  251   5.747   6.776   0.656  0.0545 -0.4144 -0.5856
    2MOL   H110  252   5.942   6.609   0.648  0.1308 -0.3325  2.0037
    2MOL   H111  253   5.858   6.478   0.555  0.3436  1.8038 -1.2721
    2MOL   H112  254   5.644   6.600   0.610  0.5183 -3.4330 -1.7189
    2MOL   H113  255   5.751   6.662   0.480  1.1999  0.4632  1.0483
    2MOL   C114  256   5.668   6.887   0.605  0.4228 -0.1411  0.6244
    2MOL   C115  257   5.673   6.993   0.711 -0.6196  0.6063  0.0739
    2MOL   O116  258   5.561   6.979   0.799  0.6094  0.3463  0.4452
    2MOL   H117  259   5.713   6.926   0.513  0.6669 -0.5736  0.5587
    2MOL   H118  260   5.565   6.866   0.577  0.1651  2.1008 -0.2257
    2MOL   H119  261   5.659   7.093   0.668  0.2110  0.3751 -0.7580
    2MOL   H120  262   5.770   7.005   0.759 -0.6737 -1.4850  0.7444
    2MOL   C121  263   5.589   6.892   0.907  0.2697  0.5025 -0.0204
    2MOL   C122  264   5.460   6.867   0.982  0.0380 -0.1138  0.7435
    2MOL   O123  265   5.484   6.825   1.115  0.2620  0.2870 -1.2278
    2MOL   H124  266   5.637   6.802   0.869  4.5498  2.1262  1.2241
    2MOL   H125  267   5.656   6.943   0.977 -0.5378 -1.9643  2.6147
    2MOL   H126  268   5.390   6.795   0.942  1.7331 -1.2556 -0.2416
    2MOL   H127  269   5.403   6.960   0.992  1.5522  0.6049  3.0088
    2MOL   C128  270   5.366   6.802   1.191 -0.1804 -0.4787  0.3030
    2MOL   C129  271   5.421   6.760   1.334 -0.0720  0.3408 -0.3919
    2MOL   O130  272   5.476   6.625   1.335 -0.4307 -0.1201  0.0291
    2MOL   H131  273   5.313   6.897   1.192 -0.4397 -0.6325  1.2255
    2MOL   H132  274   5.290   6.738   1.147 -0.5712  0.4237 -0.3486
    2MOL   H133  275   5.343   6.768   1.410  1.3694 -0.4753  1.2089
    2MOL   H134  276   5.486   6.841   1.368 -1.4549  1.7904 -1.1284
    2MOL   C135  277   5.614   6.616   1.289  0.0809  0.8420 -0.4684
    2MOL   C136  278   5.651   6.466   1.278  0.7135 -0.5486 -0.1083
    2MOL   O137  279   5.666   6.410   1.404 -0.1477  0.5109 -0.0020
    2MOL   H138  280   5.623   6.653   1.187 -2.4105  1.0469 -0.6371
    2MOL   H139  281   5.669   6.682   1.356  2.4052 -0.4790 -1.0276
    2MOL   H140  282   5.747   6.448   1.229 -0.3435 -0.8676 -2.1385
    2MOL   H141  283   5.573   6.418   1.218  0.2874 -0.6829  0.5531
    2MOL   H142  284   5.609   6.451   1.467  1.2179  1.4766  0.6289
    3MOL     C1  285   0.878   5.605   3.121  0.2659 -0.4540 -0.4340
    3MOL     C2  286   0.736   5.669   3.132  0.2666 -0.5006 -0.3710
    3MOL     O3  287   0.671   5.615   3.240  0.6373  0.4683 -0.1302
    3MOL     H4  288   0.936   5.645   3.038 -0.2044  0.1527 -0.4752
    3MOL     H5  289   0.881   5.499   3.096  2.0539 -0.1995 -1.3917
    3MOL     H6  290   0.670   5.644   3.048  0.8732 -1.3771 -0.5935
    3MOL     H7  291   0.746   5.776   3.147  3.4160 -0.8021 -0.0500
    3MOL     H8  292   0.939   5.620   3.211 -1.5176 -0.9053  0.8763
    3MOL     C9  293   0.544   5.684   3.259  0.2975  0.0099 -0.3061
    3MOL    C10  294   0.561   5.791   3.366 -0.6991 -0.4344  0.0852
    3MOL    O11  295   0.609   5.920   3.337  0.6995  0.4141  0.0169
    3MOL    H12  296   0.492   5.727   3.173 -0.6625  0.2591  0.3882
    3MOL    H13  297   0.489   5.596   3.292 -0.9208  0.3492 -1.3889
    3MOL    H14  298   0.626   5.745   3.440 -0.8123 -0.8423 -0.0690
    3MOL    H15  299   0.467   5.817   3.414 -1.2870  2.5109 -2.5451
    3MOL    C16  300   0.523   6.003   3.260 -0.6612  0.4144 -0.3086
    3MOL    C17  301   0.587   6.132   3.226 -0.6899  0.5586 -0.2091
    3MOL    O18  302   0.599   6.211   3.343 -0.6518  0.2685 -0.2659
    3MOL    H19  303   0.501   5.952   3.166 -0.1471  2.0088 -1.3191
    3MOL    H20  304   0.427   6.012   3.312 -0.0922  0.9538  0.6652
    3MOL    H21  305   0.536   6.183   3.144  0.1325  0.3627 -0.8430
    3MOL    H22  306   0.692   6.124   3.198 -1.1392  0.3653 -1.8597
    3MOL    C23  307   0.625   6.355   3.330  0.5134  0.0671  0.5054
    3MOL    C24  308   0.493   6.429   3.322  0.1564 -0.6849  0.7770
    3MOL    O25  309   0.452   6.424   3.192  0.4959 -0.0024 -0.2185
    3MOL    H26  310   0.675   6.387   3.422  1.3152  0.8950 -0.2064
    3MOL    H27  311   0.689   6.381   3.246  0.3776 -0.4558  0.2401
    3MOL    H28  312   0.509   6.534   3.346  0.4554 -0.5757  0.0986
    3MOL    H29  313   0.419   6.382   3.387  1.8737 -2.5007  1.4818
    3MOL    C30  314   0.341   6.506   3.160  0.0479  0.0690  0.3437
    3MOL    C31  315   0.252   6.410   3.091 -0.6582  0.4791  0.8285
    3MOL    O32  316   0.199   6.324   3.186 -0.7127 -0.4014 -0.2307
    3MOL    H33  317   0.289   6.548   3.246  0.5802  1.1401  0.1515
    3MOL    H34  318   0.357   6.590   3.091  1.0848  0.7682  1.4111
    3MOL    H35  319   0.306   6.368   3.006  2.1895  3.9364  0.7829
    3MOL    H36  320   0.171   6.456   3.036 -0.1203 -0.5949 -0.9114
    3MOL    C37  321   0.117   6.220   3.128  0.5809 -0.5646  0.0396
    3MOL    C38  322   0.201   6.124   3.048  0.1016  0.2541  0.2693
    3MOL    O39  323   0.114   6.041   2.972  0.0976 -0.1740 -0.5937
    3MOL    H40  324   0.066   6.156   3.200  0.4978 -0.9972 -0.4034
    3MOL    H41  325   0.030   6.251   3.070  1.7497  0.7627 -1.0350
    3MOL    H42  326   0.261   6.055   3.107  0.0508 -0.9193 -1.0267
    3MOL    H43  327   0.260   6.156   2.963  1.5518 -0.5765  0.9459
    3MOL    C44  328   0.159   5.914   2.932 -0.6328  0.1942 -0.2132
    3MOL    C45  329   0.283   5.910   2.839 -0.3792 -0.2279 -0.4046
    3MOL    O46  330   0.407   5.909   2.908  0.4651  0.1472  0.3045
    3MOL    H47  331   0.172   5.847   3.017  0.8355 -0.8360 -1.2251
    3MOL    H48  332   0.084   5.869   2.867  2.9230 -2.6021 -2.5495
    3MOL    H49  333   0.274   5.974   2.751  2.4882  0.2889 -0.3510
    3MOL    H50  334   0.287   5.813   2.790 -1.0963 -0.5491  0.1707
    3MOL    C51  335   0.512   5.903   2.813 -0.2908 -0.4110  0.0519
    3MOL    C52  336   0.648   5.939   2.886  0.1556  0.2017 -0.2738
    3MOL    O53  337   0.661   6.070   2.942  0.5028  0.3270 -0.0340
    3MOL    H54  338   0.509   5.800   2.780 -0.6472  0.0586 -1.4324
    3MOL    H55  339   0.502   5.963   2.723  2.5976  0.7351  0.4236
    3MOL    H56  340   0.731   5.910   2.821 -0.1550 -0.3538 -0.4286
    3MOL    H57  341   0.652   5.858   2.959 -1.2441 -0.6440 -1.0965
    3MOL    C58  342   0.675   6.175   2.849  0.2427  0.1201 -0.3173
    3MOL    C59  343   0.735   6.295   2.927 -0.5097  0.0740 -0.4348
    3MOL    O60  344   0.879   6.285   2.942  0.5032 -0.1452 -0.2206
    3MOL    H61  345   0.748   6.152   2.771  0.7414 -0.0137  0.1891
    3MOL    H62  346   0.586   6.192   2.788 -0.0587 -0.2848  0.0143
    3MOL    H63  347   0.685   6.307   3.023  1.2150  2.9242  0.1449
    3MOL    H64  348   0.707   6.389   2.879 -1.2407  0.3371  0.4865
    3MOL    C65  349   0.937   6.392   3.003 -0.5021 -0.1903 -0.0267
    3MOL    C66  350   1.080   6.363   3.042  0.1932  0.0617 -0.0918
    3MOL    O67  351   1.170   6.401   2.935  0.0118 -0.5370  0.3321
    3MOL    H68  352   0.930   6.488   2.950  0.3603  1.0117  1.9797
    3MOL    H69  353   0.880   6.412   3.094  0.2162  1.5908  0.0553
    3MOL    H70  354   1.085   6.258   3.072  0.4031  0.4381  1.2273
    3MOL    H71  355   1.117   6.425   3.123  0.5814  1.4773 -1.3255
    3MOL    C72  356   1.296   6.332   2.936 -0.2868  0.0785 -0.1225
    3MOL    C73  357   1.335   6.331   2.792  0.8517 -0.5865  0.8045
    3MOL    O74  358   1.416   6.440   2.761  0.7440 -0.0344 -0.1646
    3MOL    H75  359   1.366   6.369   3.010 -0.6108 -1.5105  0.9905
    3MOL    H76  360   1.275   6.226   2.952  2.5413 -0.5497 -0.4136
    3MOL    H77  361   1.238   6.339   2.743  0.7948  0.9065  1.1214
    3MOL    H78  362   1.377   6.236   2.759  0.8142 -0.3249 -0.0210
    3MOL    C79  363   1.427   6.448   2.620  0.8626  0.2534  0.1163
    3MOL    C80  364   1.522   6.554   2.569 -0.6524 -0.3163 -0.2463
    3MOL    O81  365   1.657   6.502   2.566 -0.4081 -0.4496 -0.3111
    3MOL    H82  366   1.448   6.353   2.571 -2.5100  0.5190 -2.0542
    3MOL    H83  367   1.324   6.465   2.589  0.5209 -1.2199  0.3857
    3MOL    H84  368   1.525   6.639   2.637  2.1283 -0.2652 -0.3597
    3MOL    H85  369   1.487   6.592   2.473 -1.0551 -1.2399 -0.4667
    3MOL    C86  370   1.757   6.584   2.504 -0.2066  0.2796  0.0169
    3MOL    C87  371   1.891   6.514   2.515  0.1605  0.4135  0.4086
    3MOL    O88  372   1.900   6.394   2.428 -0.0224 -0.6923  0.7618
    3MOL    H89  373   1.728   6.594   2.400  0.7337  1.5057 -0.1398
    3MOL    H90  374   1.766   6.683   2.549 -0.9948  0.0668  0.6701
    3MOL    H91  375   1.912   6.474   2.614  0.6587  0.3844  0.2945
    3MOL    H92  376   1.974   6.580   2.490  1.9673 -2.1813 -0.6919
    3MOL    C93  377   1.835   6.278   2.476 -0.3405  0.1799 -0.7351
    3MOL    C94  378   1.862   6.166   2.375  0.3060  0.1612 -0.2871
    3MOL    O95  379   1.972   6.076   2.391  0.0807 -0.1278  0.1077
    3MOL    H96  380   1.878   6.251   2.572  1.2945  3.0878 -0.5959
    3MOL    H97  381   1.727   6.285   2.486 -0.2066  1.3080 -0.0292
    3MOL    H98  382   1.848   6.212   2.278  1.0410 -3.6441 -2.2806
    3MOL    H99  383   1.780   6.094   2.382  1.6171 -1.4093 -0.9177
    3MOL   C100  384   1.998   6.014   2.265 -0.0652 -0.6646  0.2274
    3MOL   C101  385   2.108   5.905   2.290 -0.1961  0.3804  0.7478
    3MOL   O102  386   2.232   5.967   2.302 -0.0571  0.6253 -0.2736
    3MOL   H103  387   1.910   5.968   2.220  0.3902 -1.3853  0.0786
    3MOL   H104  388   2.033   6.088   2.193 -0.8459 -0.2519  0.2649
    3MOL   H105  389   2.117   5.848   2.197  0.6202 -0.4461  1.3364
    3MOL   H106  390   2.093   5.837   2.374  2.6604 -0.2478  0.8017
    3MOL   C107  391   2.344   5.884   2.284 -0.1703  0.5867 -0.2120
    3MOL   C108  392   2.472   5.965   2.306  0.0896  0.2078 -0.2194
    3MOL   O109  393   2.499   6.034   2.189 -0.2732 -0.6311 -0.0768
    3MOL   H110  394   2.337   5.807   2.360 -0.4288  1.0047  0.1945
    3MOL   H111  395   2.344   5.829   2.190 -0.8319 -1.5876  1.0343
    3MOL   H112  396   2.561   5.903   2.318  0.9076  1.6914  1.6716
    3MOL   H113  397   2.452   6.029   2.391 -2.7740  0.0181 -0.6982
    3MOL   C114  398   2.631   6.091   2.184 -0.1130 -0.8131 -0.1729
    3MOL   C115  399   2.653   6.137   2.039  0.3365  0.4326 -0.1352
    3MOL   O116  400   2.729   6.044   1.966 -0.2207 -0.5122 -0.0984
    3MOL   H117  401   2.628   6.184   2.241 -1.4403 -0.2756 -1.1066
    3MOL   H118  402   2.717   6.032   2.217 -1.0225 -1.3516  1.2862
    3MOL   H119  403   2.702   6.234   2.032  1.4536 -0.3196 -3.2753
    3MOL   H120  404   2.558   6.142   1.987 -0.7256 -2.0535  1.4543
    3MOL   C121  405   2.743   6.073   1.827 -0.3815 -0.5979  0.0431
    3MOL   C122  406   2.842   5.974   1.765  0.3108 -0.5277 -0.1273
    3MOL   O123  407   2.779   5.850   1.732  0.7213 -0.2878 -0.0836
    3MOL   H124  408   2.646   6.064   1.776 -0.4865 -2.4434  0.5265
    3MOL   H125  409   2.794   6.169   1.826 -0.6656 -0.4448 -1.3366
    3MOL   H126  410   2.928   5.947   1.826  0.5106  0.6077  0.0935
    3MOL   H127  411   2.885   6.025   1.679 -1.4392 -1.3050 -1.4855
    3MOL   C128  412   2.854   5.767   1.644  0.3629 -0.4326 -0.3256
    3MOL   C129  413   2.760   5.667   1.584  0.1514 -0.3284 -0.1594
    3MOL   O130  414   2.655   5.733   1.519 -0.0459  0.3355  0.0833
    3MOL   H131  415   2.890   5.826   1.559 -0.3364  1.1288  0.4306
    3MOL   H132  416   2.930   5.713   1.699  1.0909  0.7719 -0.1231
    3MOL   H133  417   2.724   5.607   1.668  1.2349  0.9153  1.2392
    3MOL   H134  418   2.812   5.593   1.522 -0.6286 -0.4495 -0.6681
    3MOL   C135  419   2.554   5.647   1.480 -0.0058  0.3242  0.7256
    3MOL   C136  420   2.435   5.708   1.405 -0.3139  0.3291 -0.4449
    3MOL   O137  421   2.478   5.749   1.273 -0.5963 -0.2547  0.2986
    3MOL   H138  422   2.596   5.571   1.415 -1.2810  0.6781 -0.5578
    3MOL   H139  423   2.520   5.599   1.572  0.7578  1.1361  1.4394
    3MOL   H140  424   2.401   5.797   1.459 -2.1286 -0.7413  0.2069
    3MOL   H141  425   2.348   5.643   1.409  0.5903 -0.7833  1.7616
    3MOL   H142  426   2.572   5.757   1.275 -0.7550  1.6866  1.5409
    4MOL     C1  427   5.970   3.692   4.927 -0.3450  0.6835  0.1663
    4MOL     C2  428   5.979   3.548   4.895  0.8353  0.1194  0.2174
    4MOL     O3  429   5.882   3.480   4.966  0.0806 -0.3196 -0.4820
    4MOL     H4  430   5.968   3.703   5.035  2.0640  0.9969  0.1960
    4MOL     H5  431   5.872   3.729   4.896 -0.7143  0.2602  0.8011
    4MOL     H6  432   6.081   3.513   4.914  0.9157 -0.4282 -1.1659
    4MOL     H7  433   5.970   3.544   4.787  1.0754  0.8386  0.1659
    4MOL     H8  434   6.046   3.756   4.883  0.0923  1.3500  1.8700
    4MOL     C9  435   5.866   3.340   4.952  0.6143  0.1023 -0.1877
    4MOL    C10  436   5.720   3.306   4.951  0.0122  0.6461  0.9248
    4MOL    O11  437   5.664   3.331   4.825 -0.6025 -0.5089  0.1638
    4MOL    H12  438   5.913   3.304   4.861 -0.6787  2.0642 -1.6810
    4MOL    H13  439   5.911   3.306   5.045  0.6997  0.4997 -0.0842
    4MOL    H14  440   5.675   3.341   5.044  0.0027  0.9035  0.8222
    4MOL    H15  441   5.710   3.203   4.985  0.2425  0.3767  0.1782
    4MOL    C16  442   5.543   3.264   4.784 -0.4731  0.2000 -0.2366
    4MOL    C17  443   5.514   3.327   4.646  0.4579  0.1320 -0.0729
    4MOL    O18  444   5.496   3.469   4.658 -0.0399  0.0457  0.1055
    4MOL    H19  445   5.565   3.157   4.781 -0.8733  0.1507 -1.9766
    4MOL    H20  446   5.462   3.287   4.854 -0.4127 -0.3054  0.0073
    4MOL    H21  447   5.426   3.285   4.598  1.2576  0.0235 -1.4707
    4MOL    H22  448   5.583   3.303   4.565  0.9374  0.0292  0.3675
    4MOL    C23  449   5.495   3.538   4.533 -0.7296 -0.6100 -0.2629
    4MOL    C24  450   5.503   3.684   4.577  0.0634  0.5321 -0.2104
    4MOL    O25  451   5.372   3.733   4.576  0.4482  0.0506  0.5351
    4MOL    H26  452   5.589   3.508   4.485  1.8926  2.2061  2.8264
    4MOL    H27  453   5.412   3.523   4.464 -1.7281  1.2599  0.4771
    4MOL    H28  454   5.561   3.747   4.508  2.1750 -0.0235  0.9994
    4MOL    H29  455   5.551   3.698   4.674  1.5157 -1.0266 -0.6758
    4MOL    C30  456   5.345   3.863   4.643  0.4521 -0.3265  0.0106
    4MOL    C31  457   5.193   3.877   4.671  0.4331  1.0518  0.3508
    4MOL    O32  458   5.169   3.869   4.807 -0.2608 -0.0971 -0.2022
    4MOL    H33  459   5.399   3.882   4.736  1.0992  1.4580 -0.7192
    4MOL    H34  460   5.387   3.930   4.568 -0.7244  0.8193  0.3607
    4MOL    H35  461   5.140   3.803   4.612  0.3706  1.6302 -0.3278
    4MOL    H36  462   5.175   3.974   4.626 -1.1082  0.7979  0.3907
    4MOL    C37  463   5.031   3.891   4.814 -0.3258 -0.7614 -0.3678
    4MOL    C38  464   4.985   3.913   4.955 -0.1943  0.2749 -0.3117
    4MOL    O39  465   4.850   3.933   4.955 -0.1390 -0.0465 -0.2805
    4MOL    H40  466   4.992   3.970   4.749  0.3712 -0.2170 -0.1261
    4MOL    H41  467   4.983   3.799   4.779 -0.7917 -0.1244 -1.4431
    4MOL    H42  468   5.032   4.009   4.975 -0.3227 -0.0445  1.5827
    4MOL    H43  469   5.002   3.827   5.020 -1.2126 -0.3309 -0.8385
    4MOL    C44  470   4.795   4.003   5.058 -0.2446  0.3567  0.3112
    4MOL    C45  471   4.805   3.939   5.199  0.3327 -0.1651 -0.7496
    4MOL    O46  472   4.686   3.974   5.276  0.0965 -0.1846  0.3681
    4MOL    H47  473   4.816   4.109   5.068 -3.0097  0.8603  1.2473
    4MOL    H48  474   4.690   4.006   5.029  0.4041  0.6945 -2.0965
    4MOL    H49  475   4.891   3.980   5.252 -2.0935  2.7199  1.1291
    4MOL    H50  476   4.825   3.832   5.195  0.3205 -0.1502 -1.2345
    4MOL    C51  477   4.695   3.925   5.410 -0.4672  0.4444  0.5073
    4MOL    C52  478   4.576   3.969   5.489 -0.4291 -0.3402  0.7122
    4MOL    O53  479   4.450   3.952   5.425 -0.0203 -0.6882 -0.0631
    4MOL    H54  480   4.679   3.818   5.400 -2.8316  0.7081  1.1287
    4MOL    H55  481   4.788   3.950   5.462 -0.0600  2.1976 -1.0139
    4MOL    H56  482   4.572   4.076   5.510 -0.0391 -0.7259  2.9073
    4MOL    H57  483   4.577   3.919   5.587 -0.6534  0.6800  1.2433
    4MOL    C58  484   4.338   3.969   5.513  0.2533 -0.0091 -0.5223
    4MOL    C59  485   4.213   3.929   5.437 -0.2731 -0.7056  0.0320
    4MOL    O60  486   4.095   4.013   5.457 -0.2901  0.0918  0.3681
    4MOL    H61  487   4.348   3.902   5.599 -0.1985  0.6469  0.0521
    4MOL    H62  488   4.334   4.068   5.559 -1.6337 -1.0443  1.6954
    4MOL    H63  489   4.205   3.825   5.467  1.3556 -0.8028  0.1612
    4MOL    H64  490   4.229   3.915   5.330  0.3437 -0.7554  0.1307
    4MOL    C65  491   3.980   3.980   5.379  0.1250  0.8568 -0.0928
    4MOL    C66  492   3.852   4.041   5.436  0.0405  1.0966 -0.2330
    4MOL    O67  493   3.847   4.178   5.389 -0.0116 -0.2185  0.2217
    4MOL    H68  494   4.003   4.022   5.281 -2.1821  0.8658 -0.6601
    4MOL    H69  495   3.969   3.872   5.365  1.9491  0.4803  1.1001
    4MOL    H70  496   3.854   4.037   5.545 -0.8158  0.3545 -0.2416
    4MOL    H71  497   3.767   3.979   5.410  0.1920  1.2622 -1.1229
    4MOL    C72  498   3.719   4.231   5.396  0.8615  0.1434 -0.0100
    4MOL    C73  499   3.700   4.307   5.531  0.3881  0.1382  0.2435
    4MOL    O74  500   3.659   4.217   5.628 -0.2617 -0.3133 -0.2298
    4MOL    H75  501   3.707   4.310   5.322  0.3297 -0.2152 -0.3066
    4MOL    H76  502   3.643   4.155   5.376  0.9350  0.7527 -2.8189
    4MOL    H77  503   3.651   4.404   5.519 -2.2199 -1.4722 -2.8000
    4MOL    H78  504   3.801   4.322   5.568  0.6025  0.0369 -0.2985
    4MOL    C79  505   3.647   4.262   5.762  0.4035  0.4341  0.1262
    4MOL    C80  506   3.639   4.140   5.847  0.5094  0.0967 -0.1545
    4MOL    O81  507   3.752   4.098   5.920 -0.0160 -0.4645 -0.1509
    4MOL    H82  508   3.728   4.317   5.808  1.3788 -0.8361 -0.0404
    4MOL    H83  509   3.557   4.323   5.769  0.6418  0.5826  1.9063
    4MOL    H84  510   3.595   4.060   5.788 -0.6639 -0.5263  1.5351
    4MOL    H85  511   3.567   4.168   5.923  0.7724 -1.1140  0.5447
    4MOL    C86  512   3.847   4.027   5.834  0.7183 -0.2257 -0.2024
    4MOL    C87  513   3.952   3.965   5.917 -0.5238  0.7629 -0.2896
    4MOL    O88  514   4.032   4.062   5.984 -0.0413 -0.2540  0.5987
    4MOL    H89  515   3.796   3.947   5.780 -0.6538  0.9360 -0.6269
    4MOL    H90  516   3.883   4.097   5.759 -1.5309  2.0939  0.8365
    4MOL    H91  517   4.011   3.895   5.858 -0.9878 -0.8011  1.0764
    4MOL    H92  518   3.898   3.900   5.986  0.1249 -0.6489 -1.0896
    4MOL    C93  519   3.994   4.094   6.110  0.0521 -0.1330  0.1559
    4MOL    C94  520   4.075   4.212   6.169  0.4300 -0.5796  0.7183
    4MOL    O95  521   4.214   4.186   6.179  0.3496 -0.2173 -0.1896
    4MOL    H96  522   3.889   4.119   6.123 -0.2133 -1.0828 -0.1430
    4MOL    H97  523   3.990   4.007   6.175 -0.8734 -0.6155 -0.5389
    4MOL    H98  524   4.031   4.217   6.268 -1.0389  2.4499 -0.0227
    4MOL    H99  525   4.053   4.307   6.120 -3.6011 -1.7550  0.0381
    4MOL   C100  526   4.292   4.269   6.263 -0.1220  0.0960 -0.3853
    4MOL   C101  527   4.448   4.250   6.235 -0.2795 -0.0491  0.1082
    4MOL   O102  528   4.498   4.161   6.329  0.3029 -0.7179 -0.3931
    4MOL   H103  529   4.276   4.372   6.233  1.3242  0.6278  0.6545
    4MOL   H104  530   4.264   4.263   6.368 -0.4205 -0.0350 -0.4715
    4MOL   H105  531   4.489   4.351   6.242 -0.5382  0.1268 -0.8382
    4MOL   H106  532   4.462   4.212   6.134 -1.2821  1.1685 -0.5015
    4MOL   C107  533   4.512   4.024   6.283  0.1830  0.0825  0.0172
    4MOL   C108  534   4.645   4.015   6.210 -0.1774  0.0097  0.0265
    4MOL   O109  535   4.757   3.999   6.295 -0.2306 -0.2354  0.4262
    4MOL   H110  536   4.506   3.961   6.372  0.2150  1.1647  0.8026
    4MOL   H111  537   4.430   3.992   6.219 -1.0759  1.6471  0.7997
    4MOL   H112  538   4.656   4.102   6.145  0.0603  2.1052  2.7951
    4MOL   H113  539   4.639   3.930   6.142  2.6480 -1.1463  1.1679
    4MOL   C114  540   4.876   3.984   6.228 -0.1666  0.3023  0.7112
    4MOL   C115  541   4.987   3.958   6.331 -0.0159 -0.1999  0.7321
    4MOL   O116  542   5.112   3.981   6.261  0.7921 -0.1887  0.5405
    4MOL   H117  543   4.874   3.894   6.166  1.0032  1.1577 -0.5914
    4MOL   H118  544   4.897   4.062   6.155  0.1160 -0.5524 -0.1383
    4MOL   H119  545   4.979   3.852   6.358  1.4859 -0.9452 -1.5189
    4MOL   H120  546   4.980   4.021   6.419 -0.9092  0.1051  0.4439
    4MOL   C121  547   5.228   3.940   6.332  0.0648 -0.1917  0.2712
    4MOL   C122  548   5.278   4.066   6.411 -0.0673 -0.3534  0.3147
    4MOL   O123  549   5.229   4.058   6.548 -0.1938  0.5866 -0.1201
    4MOL   H124  550   5.217   3.845   6.385  1.1486 -0.7933 -0.5626
    4MOL   H125  551   5.295   3.928   6.247  0.5907  2.6690  0.2456
    4MOL   H126  552   5.253   4.154   6.351  0.9959 -0.7926 -0.7911
    4MOL   H127  553   5.387   4.068   6.410 -0.0747  0.2340 -0.6875
    4MOL   C128  554   5.236   4.182   6.621  0.2845  0.4403 -0.9417
    4MOL   C129  555   5.179   4.176   6.765 -0.0917  0.3994  0.5593
    4MOL   O130  556   5.264   4.112   6.854  0.2382 -0.1644 -0.1249
    4MOL   H131  557   5.336   4.224   6.619  0.9480 -1.1033 -0.4249
    4MOL   H132  558   5.171   4.247   6.562 -1.8644  0.0276  0.9020
    4MOL   H133  559   5.082   4.129   6.777  0.7559 -1.0289  2.1087
    4MOL   H134  560   5.197   4.281   6.785  2.0986  0.2598 -0.4358
    4MOL   C135  561   5.222   4.122   6.986  0.2484 -0.2069 -0.1741
    4MOL   C136  562   5.300   4.028   7.078 -0.2000 -0.4784  0.8938
    4MOL   O137  563   5.247   3.903   7.076  0.0853 -0.3093  0.5695
    4MOL   H138  564   5.244   4.223   7.018  2.5119 -0.7672  0.1638
    4MOL   H139  565   5.116   4.117   7.012  0.5616 -1.7714  0.8672
    4MOL   H140  566   5.307   4.064   7.181  2.9784 -0.6730  0.7875
    4MOL   H141  567   5.401   4.033   7.038 -2.0832  3.3649 -3.8761
    4MOL   H142  568   5.263   3.864   6.992  2.1109  1.4761  0.0951
    5MOL     C1  569   5.920   7.293   1.667  0.0415 -0.1869  0.0370
    5MOL     C2  570   5.984   7.422   1.720 -0.3922 -0.2975  0.1927
    5MOL     O3  571   5.886   7.518   1.749  0.3742 -0.8191  0.6662
    5MOL     H4  572   5.839   7.255   1.729  1.5866 -1.3130  1.3693
    5MOL     H5  573   5.998   7.220   1.645 -1.0151 -1.4945  0.6013
    5MOL     H6  574   6.058   7.450   1.645 -1.4743 -1.2831 -1.2875
    5MOL     H7  575   6.051   7.399   1.803  0.1064 -1.8749 -0.6193
    5MOL     H8  576   5.876   7.325   1.572  0.9153 -0.1215 -0.3453
    5MOL     C9  577   5.937   7.655   1.722 -0.0634 -0.2522 -0.0718
    5MOL    C10  578   5.830   7.749   1.768  0.1084 -0.2076  0.1241
    5MOL    O11  579   5.837   0.027   1.895  0.0461 -0.0348 -0.1716
    5MOL    H12  580   6.031   7.681   1.772 -1.4760  1.6402  1.6989
    5MOL    H13  581   5.950   7.663   1.614 -0.2165 -1.3684 -0.1800
    5MOL    H14  582   5.735   7.695   1.759  0.4947 -0.6473 -1.5719
    5MOL    H15  583   5.831   0.070   1.710  1.0409  1.1916  2.2981
    5MOL    C16  584   5.745   0.132   1.925 -0.4926 -0.5343 -0.0973
    5MOL    C17  585   5.735   0.159   2.085 -0.4253 -0.1001 -0.7853
    5MOL    O18  586   5.860   0.210   2.130 -0.1630 -1.0364  0.0675
    5MOL    H19  587   5.791   0.216   1.873 -2.6290 -2.3687 -5.3401
    5MOL    H20  588   5.639   0.120   1.900 -1.2348  2.2398  1.4789
    5MOL    H21  589   5.699   0.064   2.124 -1.1264  0.6589  0.4510
    5MOL    H22  590   5.654   0.229   2.105  0.0646  0.4975 -0.8917
    5MOL    C23  591   5.897   0.166   2.259  0.8643  0.6094  0.3479
    5MOL    C24  592   6.046   0.195   2.280 -0.0867 -0.2257  0.0335
    5MOL    O25  593   6.074   0.334   2.291 -0.2841 -0.1276 -0.3000
    5MOL    H26  594   5.836   0.215   2.335  1.2075  0.3129  0.8168
    5MOL    H27  595   5.890   0.061   2.286  1.4252  0.0232 -1.7892
    5MOL    H28  596   6.112   0.145   2.209  0.0259 -1.3582  0.9428
    5MOL    H29  597   6.078   0.146   2.371 -0.0663 -0.2008  0.0401
    5MOL    C30  598   6.209   0.370   2.322  0.3645  0.5068 -0.6336
    5MOL    C31  599   6.211   0.517   2.370 -0.1047  0.9520  0.1115
    5MOL    O32  600   6.191   0.606   2.257 -0.2500 -0.5803 -0.4903
    5MOL    H33  601   6.246   0.304   2.401 -0.2211  0.5320 -0.3351
    5MOL    H34  602   6.269   0.349   2.234  0.1364 -0.1248 -0.6473
    5MOL    H35  603   6.309   0.536   2.415  0.5497  0.1333 -0.9326
    5MOL    H36  604   6.134   0.530   2.446 -0.9502  0.7224 -0.6953
    5MOL    C37  605   6.168   0.741   2.305  0.5181 -0.3173 -0.4652
    5MOL    C38  606   6.146   0.823   2.182 -0.1534 -0.4514  0.2296
    5MOL    O39  607   6.017   0.802   2.140  0.0949  0.4636  0.5284
    5MOL    H40  608   6.081   0.753   2.369  0.0811 -0.7546 -0.9735
    5MOL    H41  609   6.252   0.777   2.364  0.8507  0.0461 -1.1510
    5MOL    H42  610   6.228   0.809   2.112  0.4257  0.1916  0.7659
    5MOL    H43  611   6.150   0.927   2.214  0.1065 -0.4586  0.2221
    5MOL    C44  612   6.008   0.799   1.995 -0.5862  0.9407 -1.3087
    5MOL    C45  613   5.991   0.944   1.947 -0.0553 -0.2046  0.6659
    5MOL    O46  614   6.118   1.005   1.973  0.7059  0.0069 -0.1731
    5MOL    H47  615   6.092   0.750   1.945  0.7323  2.3468 -0.5039
    5MOL    H48  616   5.917   0.747   1.965 -0.3106 -0.6454  0.5616
    5MOL    H49  617   5.906   0.974   2.008 -0.7872 -1.1553  0.1233
    5MOL    H50  618   5.967   0.948   1.841  0.5479 -0.5519  0.5144
    5MOL    C51  619   6.110   1.145   1.960  0.2055 -0.0829 -0.2389
    5MOL    C52  620   6.246   1.200   1.992  0.2379  0.7090 -0.1291
    5MOL    O53  621   6.333   1.207   1.875 -0.3607 -0.3826  0.4202
    5MOL    H54  622   6.072   1.181   1.864 -0.1178  1.4606  0.4600
    5MOL    H55  623   6.043   1.175   2.041  1.6976 -0.1189  1.0302
    5MOL    H56  624   6.297   1.154   2.077  0.8700  1.2208 -0.2221
    5MOL    H57  625   6.226   1.304   2.018  0.9686  0.9014 -0.3134
    5MOL    C58  626   6.468   1.255   1.900  0.0360  0.0027  0.0082
    5MOL    C59  627   6.545   1.278   1.773 -0.0909 -0.0453  0.1696
    5MOL    O60  628   6.515   1.411   1.716  0.0200  0.3016 -0.3956
    5MOL    H61  629   6.456   1.350   1.951  0.7453  0.1266 -0.0541
    5MOL    H62  630   6.520   1.180   1.959 -0.1794  0.7291  1.1277
    5MOL    H63  631   6.516   1.203   1.700  1.0810 -0.2104 -0.1381
    5MOL    H64  632   6.652   1.261   1.790 -0.3147 -0.5248  1.1395
    5MOL    C65  633   6.575   1.435   1.593  0.6416 -0.0543  0.8291
    5MOL    C66  634   6.525   1.572   1.533  0.4033 -0.2416  0.0750
    5MOL    O67  635   6.566   1.673   1.621  0.6076  0.1742  0.0311
    5MOL    H68  636   6.682   1.445   1.611  0.2384  3.7787  1.3808
    5MOL    H69  637   6.551   1.347   1.533 -0.3751  0.1549  0.9247
    5MOL    H70  638   6.418   1.564   1.511  0.5745  0.5774 -1.0970
    5MOL    H71  639   6.570   1.602   1.439  1.1823  0.9729  0.8123
    5MOL    C72  640   6.538   1.795   1.544 -0.3833  0.5723 -0.0472
    5MOL    C73  641   6.556   1.915   1.647  0.4369 -0.4722 -0.0244
    5MOL    O74  642   6.691   1.950   1.670  0.6491  0.7607 -0.3571
    5MOL    H75  643   6.604   1.821   1.462  0.4239 -0.7914  0.1615
    5MOL    H76  644   6.439   1.798   1.499  0.1602 -1.4104 -1.4159
    5MOL    H77  645   6.511   1.888   1.742  2.2170  0.4596  1.0967
    5MOL    H78  646   6.499   1.998   1.606  2.1840 -0.0161 -1.5998
    5MOL    C79  647   6.711   2.048   1.772  0.5311  0.1723  0.1539
    5MOL    C80  648   6.855   2.032   1.807 -0.1850 -0.3748  0.3390
    5MOL    O81  649   6.886   1.910   1.870  0.4604  0.1613  0.1771
    5MOL    H82  650   6.696   2.151   1.740  1.3872  0.1428 -0.3795
    5MOL    H83  651   6.642   2.027   1.854  2.2417 -0.6626  1.4186
    5MOL    H84  652   6.875   2.112   1.879 -0.1345 -0.8519  0.8537
    5MOL    H85  653   6.918   2.051   1.720  0.4764  0.0033  0.8948
    5MOL    C86  654   7.025   1.890   1.887 -0.4699  0.8551  0.3830
    5MOL    C87  655   7.040   1.745   1.946 -0.2377 -0.2750 -0.0637
    5MOL    O88  656   6.989   1.761   2.081  0.4126  0.0114  0.1700
    5MOL    H89  657   7.069   1.901   1.788  0.1719 -1.6669  0.3643
    5MOL    H90  658   7.067   1.971   1.947 -1.3106  2.5873 -1.3210
    5MOL    H91  659   7.148   1.730   1.944  0.1009  1.8742 -5.7629
    5MOL    H92  660   6.990   1.667   1.889 -0.9604  0.0994  0.0485
    5MOL    C93  661   6.995   1.638   2.152  0.0513 -0.1271  0.0362
    5MOL    C94  662   6.964   1.685   2.295  0.9599 -0.3728  0.0495
    5MOL    O95  663   7.081   1.726   2.362 -0.7755 -0.6025  0.0398
    5MOL    H96  664   6.928   1.558   2.121  0.5204  0.4698 -2.6892
    5MOL    H97  665   7.100   1.608   2.152 -0.1984 -1.0317  0.2324
    5MOL    H98  666   6.923   1.597   2.344  0.9123  0.1715  1.0055
    5MOL    H99  667   6.884   1.759   2.293  0.1169 -1.1113  3.0074
    5MOL   C100  668   7.118   1.863   2.314  0.9060 -1.1559  0.1968
    5MOL   C101  669   7.220   1.938   2.393 -0.4037  0.1414  0.8729
    5MOL   O102  670   7.353   1.884   2.364 -0.0448  0.4608  0.3007
    5MOL   H103  671   7.162   1.852   2.215 -0.3150 -1.1690 -0.3533
    5MOL   H104  672   7.024   1.917   2.311  3.6576  3.9140 -1.6687
    5MOL   H105  673   7.205   1.945   2.500  0.0064 -2.0212  1.0971
    5MOL   H106  674   7.224   2.042   2.360 -1.2636  0.2984  1.2733
    5MOL   C107  675   7.448   1.937   2.454  0.9743  0.0310  0.3247
    5MOL   C108  676   7.586   1.900   2.409 -0.6521  0.2709  0.6086
    5MOL   O109  677   7.623   1.961   2.287 -0.2464  0.6658  0.3715
    5MOL   H110  678   7.440   2.046   2.448  1.2111  0.0472  0.3133
    5MOL   H111  679   7.427   1.904   2.555 -4.3444 -0.3897 -0.7376
    5MOL   H112  680   7.606   1.793   2.408  0.2365  0.4201  2.1432
    5MOL   H113  681   7.643   1.935   2.494 -0.9118  0.2837  0.7783
    5MOL   C114  682   7.751   1.911   2.241 -0.1027 -0.6373 -0.0858
    5MOL   C115  683   0.003   1.942   2.095  0.6043  0.5894  0.3651
    5MOL   O116  684   7.705   1.850   2.016  0.6857 -0.0258  0.4418
    5MOL   H117  685   0.054   1.958   2.305  0.1504 -0.6379 -0.3790
    5MOL   H118  686   7.764   1.806   2.263  1.8783 -0.0152  1.8520
    5MOL   H119  687   0.109   1.940   2.070  0.2318 -1.0720 -1.2508
    5MOL   H120  688   7.733   2.039   2.069  0.9652  0.6390 -0.0225
    5MOL   C121  689   7.567   1.850   2.023 -0.4374  0.0390  0.8803
    5MOL   C122  690   7.503   1.780   1.899  0.7459  0.0943 -0.0975
    5MOL   O123  691   7.496   1.641   1.914  0.4847  0.2109  0.2591
    5MOL   H124  692   7.532   1.786   2.104  1.4315 -2.6311 -0.3490
    5MOL   H125  693   7.530   1.951   2.040  1.7906  1.1306 -0.4886
    5MOL   H126  694   7.539   1.817   1.803  3.8637 -0.5671  0.7565
    5MOL   H127  695   7.401   1.819   1.909  0.9861  0.5680  0.5548
    5MOL   C128  696   7.435   1.585   1.797 -0.3693 -0.1979  0.2493
    5MOL   C129  697   7.545   1.519   1.708  0.0385  1.4065  0.0965
    5MOL   O130  698   7.600   1.634   1.648  0.1959  0.2999 -0.1048
    5MOL   H131  699   7.370   1.501   1.821 -0.7483  0.3638  1.2138
    5MOL   H132  700   7.365   1.652   1.748  0.0573  0.9835  1.2149
    5MOL   H133  701   7.489   1.454   1.641  3.6558  0.2273 -1.9695
    5MOL   H134  702   7.622   1.461   1.759 -1.8732 -0.5627  0.8187
    5MOL   C135  703   7.717   1.612   1.576  0.6734  0.1722  0.4112
    5MOL   C136  704   7.688   1.544   1.444 -0.3276  0.4032 -0.6594
    5MOL   O137  705   7.730   1.411   1.442  0.3726 -0.1004  0.3461
    5MOL   H138  706   7.762   1.710   1.558  2.5811 -1.1067 -2.0959
    5MOL   H139  707   0.024   1.559   1.629  0.8445  0.8649  0.8570
    5MOL   H140  708   7.731   1.596   1.358 -0.1171  0.0490 -0.7685
    5MOL   H141  709   7.583   1.535   1.416 -0.2457 -0.5490 -0.6488
    5MOL   H142  710   7.668   1.360   1.491 -0.1421  2.0679  2.0210
    6MOL     C1  711   2.981   3.258   5.504  0.3027 -0.5108 -0.1618
    6MOL     C2  712   3.119   3.281   5.446 -0.0332  0.0281  0.8160
    6MOL     O3  713   3.123   3.425   5.432  0.2783  0.2777  0.4173
    6MOL     H4  714   2.958   3.338   5.575 -2.4405 -0.2237 -1.3020
    6MOL     H5  715   2.980   3.165   5.561  0.6802  1.1645  2.7168
    6MOL     H6  716   3.148   3.223   5.358 -0.6367  1.0245 -0.0570
    6MOL     H7  717   3.192   3.250   5.521 -0.2768 -0.3145  0.9124
    6MOL     H8  718   2.908   3.257   5.423  0.4857 -1.5667 -0.3154
    6MOL     C9  719   3.252   3.466   5.404 -1.0211 -0.3724 -1.0924
    6MOL    C10  720   3.297   3.446   5.256 -0.0490 -0.7895 -0.3064
    6MOL    O11  721   3.271   3.554   5.170  0.0679 -0.1029 -0.0661
    6MOL    H12  722   3.261   3.573   5.421 -1.4954 -0.4978  0.0002
    6MOL    H13  723   3.321   3.420   5.474 -0.5442  1.4769 -0.3162
    6MOL    H14  724   3.254   3.352   5.223 -1.1086 -0.7706  0.9438
    6MOL    H15  725   3.404   3.427   5.251  0.1304 -0.0585  0.5619
    6MOL    C16  726   3.283   3.514   5.039 -0.8573 -0.5022 -0.3402
    6MOL    C17  727   3.317   3.640   4.955  0.0902  0.2777 -0.3332
    6MOL    O18  728   3.448   3.688   4.987  0.3524 -0.2720 -0.3375
    6MOL    H19  729   3.349   3.429   5.024 -0.7507 -0.4037 -0.4308
    6MOL    H20  730   3.186   3.478   5.004 -0.6477 -2.7852  1.2915
    6MOL    H21  731   3.245   3.721   4.964 -1.0439 -0.5962 -1.4212
    6MOL    H22  732   3.309   3.609   4.851  0.6168 -0.2433 -0.2266
    6MOL    C23  733   3.507   3.770   4.889 -0.4171 -0.2167  0.5199
    6MOL    C24  734   3.629   3.841   4.943  0.4471 -0.5169 -0.3519
    6MOL    O25  735   3.591   3.956   5.028  0.7224  0.2231  0.2844
    6MOL    H26  736   3.528   3.712   4.800 -2.9084 -0.0644 -0.1950
    6MOL    H27  737   3.433   3.849   4.874 -0.3780 -0.4810 -1.1763
    6MOL    H28  738   3.690   3.877   4.860  1.7638  1.5732  1.4804
    6MOL    H29  739   3.687   3.773   5.005  0.2028 -0.0120  0.4353
    6MOL    C30  740   3.705   4.017   5.088  0.1907 -0.5977 -0.4444
    6MOL    C31  741   3.802   4.081   4.985  0.0102 -0.5807 -0.4684
    6MOL    O32  742   3.739   4.185   4.909 -0.3844  0.0493 -0.7185
    6MOL    H33  743   3.644   4.086   5.147 -0.1987 -1.5182  0.2470
    6MOL    H34  744   3.749   3.942   5.153  1.3993  0.1976 -0.3233
    6MOL    H35  745   3.845   4.007   4.917  2.1066 -0.4353  0.6667
    6MOL    H36  746   3.891   4.120   5.034 -0.5319  0.4583 -0.3075
    6MOL    C37  747   3.838   4.244   4.825 -0.8046 -0.8611 -0.1786
    6MOL    C38  748   3.913   4.353   4.902 -0.4930 -0.1903 -0.0861
    6MOL    O39  749   4.030   4.304   4.973  0.3549 -0.1404 -0.6210
    6MOL    H40  750   3.906   4.177   4.774 -0.0083 -1.5950  1.8132
    6MOL    H41  751   3.791   4.291   4.738  0.2835  0.6284  0.0216
    6MOL    H42  752   3.833   4.399   4.961 -0.5714 -0.5714  0.1050
    6MOL    H43  753   3.948   4.427   4.831  0.0879 -0.2779  0.1085
    6MOL    C44  754   4.102   4.409   5.033  0.5314  0.2697 -0.2682
    6MOL    C45  755   4.045   4.459   5.177  0.3947 -0.2128 -0.0855
    6MOL    O46  756   3.936   4.542   5.151  0.1274  0.2187 -0.8492
    6MOL    H47  757   4.205   4.377   5.052  0.5037  0.0150 -0.5475
    6MOL    H48  758   4.114   4.493   4.965 -1.4620 -0.2455 -1.2714
    6MOL    H49  759   4.116   4.533   5.213 -0.0706 -0.6129  1.7240
    6MOL    H50  760   4.018   4.382   5.250 -0.6891  1.4264  1.2642
    6MOL    C51  761   3.881   4.618   5.266 -0.2198 -0.0928  0.0855
    6MOL    C52  762   3.812   4.741   5.215 -0.3691  0.5230 -0.0343
    6MOL    O53  763   3.889   4.804   5.115 -0.3274  0.6507 -0.0296
    6MOL    H54  764   3.817   4.553   5.325 -0.8215  0.7092  0.3229
    6MOL    H55  765   3.966   4.651   5.325  0.1872  1.8957 -1.5668
    6MOL    H56  766   3.791   4.801   5.304  1.6485 -0.4259  1.1072
    6MOL    H57  767   3.710   4.714   5.185 -0.7472  0.2499  1.4742
    6MOL    C58  768   3.822   4.923   5.063 -0.1947 -0.4101  0.1596
    6MOL    C59  769   3.699   4.904   4.975  0.5072  0.8699 -0.1366
    6MOL    O60  770   3.728   4.922   4.842 -0.2961 -0.6319  0.2778
    6MOL    H61  771   3.796   4.972   5.157  1.4857 -0.2182  0.5385
    6MOL    H62  772   3.890   4.992   5.013 -1.3056  2.1060  2.0110
    6MOL    H63  773   3.632   4.984   5.010 -1.5699 -0.3038 -1.2945
    6MOL    H64  774   3.644   4.811   4.988  0.2567  1.3100  2.1504
    6MOL    C65  775   3.818   4.829   4.781  0.1291 -0.6916 -0.1938
    6MOL    C66  776   3.839   4.881   4.634  1.1433  0.1736  0.1512
    6MOL    O67  777   3.763   4.820   4.531 -0.0066  0.4880  0.6724
    6MOL    H68  778   3.908   4.819   4.841 -0.9706  2.0282  1.9594
    6MOL    H69  779   3.768   4.732   4.789 -0.4200 -0.2426  1.9763
    6MOL    H70  780   3.942   4.863   4.603  1.1308 -0.4910  0.4977
    6MOL    H71  781   3.826   4.989   4.640 -1.0297  0.2047 -3.4962
    6MOL    C72  782   3.623   4.847   4.545 -0.7548  0.2088 -0.5732
    6MOL    C73  783   3.536   4.763   4.453  0.3356 -0.2900  0.1488
    6MOL    O74  784   3.564   4.639   4.499 -0.3494  0.6592  0.0084
    6MOL    H75  785   3.593   4.815   4.645 -1.9601 -0.3281 -1.0958
    6MOL    H76  786   3.597   4.952   4.532 -2.6928  0.3992  3.8115
    6MOL    H77  787   3.561   4.771   4.347  1.2949  1.5489  0.5029
    6MOL    H78  788   3.435   4.802   4.465  0.7629  1.1797 -0.9405
    6MOL    C79  789   3.477   4.546   4.450 -0.2303 -0.0740 -0.2462
    6MOL    C80  790   3.510   4.403   4.489 -0.1910  0.0940  0.6800
    6MOL    O81  791   3.603   4.355   4.396  0.7505  0.4281 -0.4539
    6MOL    H82  792   3.376   4.570   4.483  0.0608  0.9442 -0.0801
    6MOL    H83  793   3.454   4.561   4.345  1.0073 -1.5895 -0.7611
    6MOL    H84  794   3.423   4.340   4.472 -0.4912  0.9051 -0.8752
    6MOL    H85  795   3.563   4.389   4.583  0.1565  1.6857  0.7305
    6MOL    C86  796   3.616   4.216   4.395 -0.3782 -0.0305  0.5120
    6MOL    C87  797   3.718   4.167   4.295  0.8925  0.3485 -0.0195
    6MOL    O88  798   3.655   4.175   4.165 -0.4922 -0.0510 -0.1656
    6MOL    H89  799   3.644   4.193   4.498  0.5884  1.4095  0.5826
    6MOL    H90  800   3.523   4.166   4.367 -0.3649 -1.7254  3.2937
    6MOL    H91  801   3.732   4.060   4.312 -0.5398  0.3136  0.9690
    6MOL    H92  802   3.806   4.229   4.310  0.8549  0.0403  1.5675
    6MOL    C93  803   3.655   4.295   4.098 -0.2449 -0.0289  0.4138
    6MOL    C94  804   3.569   4.284   3.973  0.1604 -0.1934  0.8759
    6MOL    O95  805   3.432   4.335   3.976  0.5126  0.1794  0.0015
    6MOL    H96  806   3.630   4.378   4.164 -0.6695 -2.0887  2.9500
    6MOL    H97  807   3.757   4.310   4.061  0.1743 -1.1212  1.1075
    6MOL    H98  808   3.539   4.185   3.938 -0.8294  0.2366  0.4845
    6MOL    H99  809   3.615   4.341   3.893  0.5400 -1.2253  0.3454
    6MOL   C100  810   3.363   4.270   4.079 -0.5316 -0.6428  0.1956
    6MOL   C101  811   3.219   4.319   4.093 -0.9166  0.0013 -0.4305
    6MOL   O102  812   3.213   4.422   4.193 -0.1971  0.5584 -0.4808
    6MOL   H103  813   3.362   4.165   4.051  1.7743 -0.5208 -0.4973
    6MOL   H104  814   3.417   4.281   4.174  0.9142 -1.4632 -0.5112
    6MOL   H105  815   3.147   4.239   4.105  0.8060 -1.5251  0.0339
    6MOL   H106  816   3.198   4.374   4.001  0.4677  1.1096 -0.1221
    6MOL   C107  817   3.088   4.488   4.210  0.1018  0.3625  0.8958
    6MOL   C108  818   3.103   4.608   4.310 -0.1322  0.6855  0.6393
    6MOL   O109  819   3.110   4.562   4.443 -0.2601  0.5534 -0.7857
    6MOL   H110  820   3.046   4.527   4.117  0.2827 -1.4703  0.0244
    6MOL   H111  821   3.007   4.418   4.233  0.7113 -0.8990 -0.6469
    6MOL   H112  822   3.011   4.664   4.297  0.5385  1.9034  1.0474
    6MOL   H113  823   3.197   4.662   4.295  1.1678 -1.8406 -0.5867
    6MOL   C114  824   3.131   4.664   4.538  0.0362 -0.8387  0.3471
    6MOL   C115  825   3.014   4.727   4.599 -0.5466  0.5400 -0.1710
    6MOL   O116  826   2.953   4.804   4.492  0.1049 -0.5478  0.0029
    6MOL   H117  827   3.185   4.605   4.612 -1.5922  0.7955  2.9163
    6MOL   H118  828   3.199   4.735   4.492 -1.9835  1.6488  1.1071
    6MOL   H119  829   3.042   4.785   4.687 -1.9681 -0.3513  0.9006
    6MOL   H120  830   2.943   4.649   4.628  0.8344  0.2361  2.5927
    6MOL   C121  831   2.825   4.873   4.518  0.1752  0.0899  0.1603
    6MOL   C122  832   2.764   4.896   4.379  0.2698 -0.9115  0.3032
    6MOL   O123  833   2.838   4.992   4.302  0.0754 -0.2562 -0.1247
    6MOL   H124  834   2.757   4.811   4.576 -0.6968  0.5614 -0.3434
    6MOL   H125  835   2.841   4.970   4.566  0.1596 -0.4376  1.2373
    6MOL   H126  836   2.667   4.939   4.404 -0.2337 -0.9276 -1.5734
    6MOL   H127  837   2.756   4.801   4.326  2.4887 -1.1107  0.2724
    6MOL   C128  838   2.946   4.938   4.217  0.5798  0.6104  0.2181
    6MOL   C129  839   2.968   5.026   4.093  0.3267 -0.1969 -0.4449
    6MOL   O130  840   3.087   4.991   4.030 -0.0843 -0.0742  0.4273
    6MOL   H131  841   3.035   4.925   4.279  2.8902  1.0743 -2.8971
    6MOL   H132  842   2.906   4.844   4.179 -0.3694  0.7030  0.9750
    6MOL   H133  843   2.955   5.129   4.126 -0.5839 -0.5970  0.4624
    6MOL   H134  844   2.886   5.003   4.026  0.9325 -1.3820 -0.7773
    6MOL   C135  845   3.107   5.074   3.911 -0.5052  0.7963  0.0619
    6MOL   C136  846   3.217   5.012   3.827 -0.4641  1.1135  0.0648
    6MOL   O137  847   3.342   5.018   3.882  0.4080  0.3054  0.0435
    6MOL   H138  848   3.018   5.068   3.849  0.0716 -1.2231 -0.6289
    6MOL   H139  849   3.127   5.177   3.941  1.8791  0.5401 -0.5658
    6MOL   H140  850   3.210   5.059   3.729 -0.6864 -1.8624 -1.4239
    6MOL   H141  851   3.190   4.907   3.814  0.6692  0.5411  2.0361
    6MOL   H142  852   3.340   4.962   3.957 -1.9297 -0.5953 -0.6331
    7MOL     C1  853   0.403   1.036   1.176 -0.7456 -0.2075 -1.0307
    7MOL     C2  854   0.554   1.050   1.193  0.4431  0.8376 -0.4936
    7MOL     O3  855   0.575   1.105   1.323  0.3263  0.1289  0.0358
    7MOL     H4  856   0.395   0.971   1.088 -0.5807  0.6136 -1.6577
    7MOL     H5  857   0.366   1.137   1.159  0.0246  0.6027  1.8747
    7MOL     H6  858   0.604   1.109   1.116  2.0921  1.2862  0.8825
    7MOL     H7  859   0.594   0.949   1.191 -2.9267 -0.5746  0.1017
    7MOL     H8  860   0.350   0.981   1.254  0.5026  0.5277  0.3564
    7MOL     C9  861   0.705   1.100   1.370  0.1659  0.0889 -0.0536
    7MOL    C10  862   0.726   0.978   1.456  0.0010  0.1211 -1.0982
    7MOL    O11  863   0.655   1.023   1.578  0.6971 -0.4409  0.1701
    7MOL    H12  864   0.767   1.108   1.281  0.7993 -0.7681  0.3078
    7MOL    H13  865   0.710   1.191   1.430 -0.9950  1.1549 -1.5338
    7MOL    H14  866   0.828   0.954   1.486 -1.1175 -1.4751  1.6383
    7MOL    H15  867   0.692   0.887   1.406 -0.5506 -0.2131 -0.1271
    7MOL    C16  868   0.668   0.949   1.703  0.7675  0.3964 -1.0136
    7MOL    C17  869   0.807   0.927   1.769  0.4180 -0.2860  0.6858
    7MOL    O18  870   0.864   0.812   1.719 -0.7256 -0.0682 -0.0113
    7MOL    H19  871   0.598   0.994   1.772 -0.9155  2.7157 -4.1202
    7MOL    H20  872   0.636   0.848   1.676 -2.4624  1.2271 -0.5052
    7MOL    H21  873   0.793   0.920   1.877  0.0188 -0.5574  0.6170
    7MOL    H22  874   0.861   1.015   1.736  0.1423 -0.7182 -0.9579
    7MOL    C23  875   1.013   0.834   1.722  0.0407 -1.0196  0.6902
    7MOL    C24  876   1.085   0.727   1.801  0.8219 -0.8351  0.8801
    7MOL    O25  877   1.075   0.768   1.934 -0.0448 -0.2740 -0.0047
    7MOL    H26  878   1.056   0.826   1.622 -0.1480 -2.5227  0.7208
    7MOL    H27  879   1.054   0.933   1.745  3.3299 -1.9262 -1.0698
    7MOL    H28  880   1.189   0.714   1.772  0.6009  0.2667 -0.4943
    7MOL    H29  881   1.029   0.636   1.781  0.5386 -0.0372 -2.2836
    7MOL    C30  882   1.097   0.651   2.020 -0.2163  0.1569  0.2535
    7MOL    C31  883   1.241   0.606   2.024 -0.0686  0.1997 -0.4633
    7MOL    O32  884   1.252   0.509   1.920 -0.1032  0.2912 -0.4253
    7MOL    H33  885   1.069   0.691   2.118 -0.7522  0.0350  0.1514
    7MOL    H34  886   1.039   0.565   1.988  1.3091 -0.5189 -0.7384
    7MOL    H35  887   1.258   0.561   2.121  3.3496 -4.3317 -2.9691
    7MOL    H36  888   1.305   0.695   2.022  0.2654  0.0071  1.1040
    7MOL    C37  889   1.387   0.482   1.884 -0.4406  0.3778  0.3562
    7MOL    C38  890   1.402   0.366   1.785 -0.2382 -0.5883 -0.4031
    7MOL    O39  891   1.346   0.396   1.662 -0.2125  0.2720 -0.0631
    7MOL    H40  892   1.425   0.568   1.830 -1.7603  1.8268  1.7097
    7MOL    H41  893   1.443   0.459   1.975  0.8777 -0.5999 -0.6834
    7MOL    H42  894   1.364   0.271   1.823  0.6446  0.1468  2.4534
    7MOL    H43  895   1.508   0.348   1.764 -0.4583 -2.1663 -0.2153
    7MOL    C44  896   1.212   0.353   1.647 -0.3025  0.2770  0.0324
    7MOL    C45  897   1.149   0.404   1.515  0.1720 -0.1750 -0.7019
    7MOL    O46  898   1.099   0.533   1.535 -0.0597  0.3388  0.5043
    7MOL    H47  899   1.203   0.244   1.644  0.7985  0.1826 -0.3369
    7MOL    H48  900   1.149   0.385   1.729  1.5365  1.3591  1.0490
    7MOL    H49  901   1.062   0.338   1.508  0.0687 -0.2384  0.8322
    7MOL    H50  902   1.214   0.391   1.429 -0.7682 -0.4003 -1.3847
    7MOL    C51  903   1.012   0.580   1.426  0.1930 -0.0156 -0.5713
    7MOL    C52  904   1.080   0.656   1.316  0.0196  0.1787  0.5056
    7MOL    O53  905   1.072   0.795   1.351 -0.0234  0.4566 -0.4781
    7MOL    H54  906   0.963   0.493   1.382 -1.0139  0.5021 -0.2750
    7MOL    H55  907   0.931   0.644   1.460  0.5982 -0.2017  0.7922
    7MOL    H56  908   1.032   0.641   1.220  0.2936 -0.6209  0.4916
    7MOL    H57  909   1.181   0.620   1.293 -0.2366 -1.3985  1.7496
    7MOL    C58  910   1.140   0.883   1.271  0.5393  0.3059  0.7852
    7MOL    C59  911   1.110   1.021   1.325  0.3521 -0.5982  0.2448
    7MOL    O60  912   1.149   1.050   1.458 -0.0811  0.7971  0.2371
    7MOL    H61  913   1.248   0.866   1.271  0.4102 -0.6036 -0.9612
    7MOL    H62  914   1.108   0.880   1.167 -0.8185  1.8454  1.1350
    7MOL    H63  915   1.005   1.043   1.308  0.1319 -1.4575  0.4371
    7MOL    H64  916   1.159   1.093   1.260 -1.7084  0.0726 -0.5993
    7MOL    C65  917   1.103   1.176   1.510 -0.2842  0.4602 -0.8331
    7MOL    C66  918   1.175   1.292   1.439  1.1531 -0.4096  0.7295
    7MOL    O67  919   1.102   1.344   1.323 -0.4588  0.3061  0.2639
    7MOL    H68  920   0.995   1.180   1.495 -0.0819  0.0240 -2.5618
    7MOL    H69  921   1.119   1.179   1.618 -3.3317  0.1366 -0.3093
    7MOL    H70  922   1.277   1.274   1.405  1.1097  0.9433 -0.1397
    7MOL    H71  923   1.189   1.366   1.517  1.4561  0.6685 -0.3343
    7MOL    C72  924   1.147   1.471   1.274  0.4787  0.0815  0.4357
    7MOL    C73  925   1.052   1.526   1.167  0.2184  0.6029 -0.3267
    7MOL    O74  926   1.119   1.613   1.070  0.5918  0.1456  0.6055
    7MOL    H75  927   1.143   1.542   1.357 -3.1181  1.9120 -1.1666
    7MOL    H76  928   1.245   1.459   1.228  0.6371  0.9429  0.5410
    7MOL    H77  929   0.977   1.567   1.235 -0.3590  0.7048 -1.0089
    7MOL    H78  930   1.009   1.452   1.099  0.1055  1.2876 -1.0112
    7MOL    C79  931   1.159   1.742   1.115  0.5075 -0.5495  0.5057
    7MOL    C80  932   1.037   1.835   1.126  0.4126 -0.8758  0.4317
    7MOL    O81  933   0.973   1.834   1.254 -0.1689 -0.1650  0.2289
    7MOL    H82  934   1.223   1.755   1.202 -0.9126  2.3744  1.1751
    7MOL    H83  935   1.223   1.782   1.036 -0.1805  0.1548  0.2968
    7MOL    H84  936   0.973   1.837   1.038  0.4032  0.3194  0.4649
    7MOL    H85  937   1.079   1.933   1.101 -1.9019  0.7229  2.5873
    7MOL    C86  938   0.897   1.952   1.265 -0.4388 -0.0316 -0.3062
    7MOL    C87  939   0.834   1.935   1.403  0.5356  0.3161  0.2415
    7MOL    O88  940   0.722   1.850   1.387 -0.2343  0.2125  0.1161
    7MOL    H89  941   0.956   2.044   1.269  0.8858 -0.8687 -0.6456
    7MOL    H90  942   0.814   1.957   1.195 -0.5085 -0.8168 -0.2777
    7MOL    H91  943   0.787   2.026   1.441  1.5967  1.7127 -1.7312
    7MOL    H92  944   0.905   1.910   1.481  0.0043  0.2082  0.6968
    7MOL    C93  945   0.672   1.798   1.509 -0.3238 -0.2840 -0.3574
    7MOL    C94  946   0.547   1.878   1.558 -0.7468 -0.4348  0.0968
    7MOL    O95  947   0.579   2.009   1.608  0.3249  0.4044  0.1931
    7MOL    H96  948   0.654   1.692   1.490  0.6593 -0.4927 -0.1519
    7MOL    H97  949   0.747   1.804   1.588  0.4950 -0.4881 -1.1176
    7MOL    H98  950   0.501   1.824   1.641 -3.2699 -0.7835 -1.4663
    7MOL    H99  951   0.475   1.890   1.477 -2.2745  0.4526  1.5408
    7MOL   C100  952   0.475   2.079   1.687 -0.1166 -0.1744  0.2397
    7MOL   C101  953   0.329   2.072   1.632 -0.1269 -0.2490  0.4717
    7MOL   O102  954   0.272   1.943   1.655 -0.3238 -0.1959  0.2652
    7MOL   H103  955   0.466   2.041   1.788 -3.1600 -0.9719 -0.2733
    7MOL   H104  956   0.508   2.183   1.686 -0.5616 -0.0146  1.4522
    7MOL   H105  957   0.330   2.092   1.525 -0.4559 -0.6323  0.3955
    7MOL   H106  958   0.278   2.155   1.682 -1.6400 -0.6279 -0.3996
    7MOL   C107  959   0.133   1.938   1.629  0.2101  0.4761  0.3615
    7MOL   C108  960   0.041   1.994   1.739  0.5683 -0.1137  0.7625
    7MOL   O109  961   0.016   2.135   1.728  0.3302 -0.0148 -0.1198
    7MOL   H110  962   0.113   1.980   1.531 -0.2436 -0.9130 -0.1509
    7MOL   H111  963   0.110   1.832   1.619  0.3681  0.4781 -0.0473
    7MOL   H112  964   0.105   1.984   1.827 -0.5884  0.7698  1.7171
    7MOL   H113  965   7.715   1.944   1.740 -0.4398  1.7456 -0.7287
    7MOL   C114  966   7.691   2.189   1.816 -0.0585  0.1980 -0.5132
    7MOL   C115  967   7.639   2.321   1.756  0.1267  0.1692 -0.1840
    7MOL   O116  968   7.574   2.396   1.855  0.0120 -0.6488 -0.4096
    7MOL   H117  969   7.609   2.117   1.818  0.6232 -0.5844  2.2323
    7MOL   H118  970   7.736   2.199   1.915  0.0085  0.7214 -0.5943
    7MOL   H119  971   7.576   2.295   1.671  0.7583  0.6677 -0.8116
    7MOL   H120  972   7.731   2.372   1.728 -0.1045  0.3759 -0.5590
    7MOL   C121  973   7.528   2.527   1.813 -0.4241 -0.0970 -0.0700
    7MOL   C122  974   7.414   2.597   1.881  0.0656  0.2469  0.4610
    7MOL   O123  975   7.298   2.527   1.840 -0.5261  0.5702  0.4560
    7MOL   H124  976   7.610   2.594   1.839  0.1658 -0.2207 -1.5970
    7MOL   H125  977   7.507   2.530   1.707 -1.6590  1.7338  0.2000
    7MOL   H126  978   7.406   2.696   1.836 -0.0102 -0.8452 -2.0233
    7MOL   H127  979   7.425   2.607   1.989 -0.1279 -1.5834  0.6626
    7MOL   C128  980   7.171   2.586   1.874  0.9640 -0.1493  0.3716
    7MOL   C129  981   7.067   2.484   1.822  0.0059 -0.2794 -0.8742
    7MOL   O130  982   7.025   2.514   1.686  0.1090 -0.0986  0.3057
    7MOL   H131  983   7.162   2.602   1.981 -2.8690 -0.9049  0.2133
    7MOL   H132  984   7.170   2.687   1.831 -0.6902 -0.0513  0.6147
    7MOL   H133  985   6.982   2.479   1.889  0.0390  0.3493 -0.7792
    7MOL   H134  986   7.112   2.386   1.835 -0.7552 -0.4343  0.6805
    7MOL   C135  987   6.947   2.419   1.615 -0.1861  0.6084 -0.5650
    7MOL   C136  988   6.902   2.478   1.484 -0.4658 -0.4692  0.4796
    7MOL   O137  989   6.843   2.375   1.407 -0.4316 -0.0318  0.6057
    7MOL   H138  990   7.012   2.333   1.600  0.3993  1.1141 -0.9639
    7MOL   H139  991   6.860   2.394   1.675 -0.4661 -0.0691 -1.2419
    7MOL   H140  992   6.982   2.525   1.427 -1.5407 -0.4524 -1.0300
    7MOL   H141  993   6.838   2.566   1.494 -1.0465 -0.8375  0.0215
    7MOL   H142  994   6.756   2.364   1.442  0.2929 -0.2722  2.3984
    8MOL     C1  995   0.920   4.666   1.050  0.7704 -0.1363 -0.3212
    8MOL     C2  996   0.771   4.697   1.052 -0.0795 -0.5838 -0.3269
    8MOL     O3  997   0.691   4.593   1.117 -0.4936  0.0061  0.2360
    8MOL     H4  998   0.962   4.644   1.148 -1.5294 -1.6082  0.3651
    8MOL     H5  999   0.973   4.727   0.976 -0.0998  1.7550  0.5792
    8MOL     H6 1000   0.742   4.732   0.953  2.2326  2.2475 -0.0711
    8MOL     H7 1001   0.764   4.782   1.120 -0.3282  1.8071 -3.2114
    8MOL     H8 1002   0.916   4.567   1.005  3.1051 -0.8698  0.9943
    8MOL     C9 1003   0.553   4.604   1.137 -0.5950  0.0121  0.0237
    8MOL    C10 1004   0.486   4.559   1.007  0.1131  0.3421  0.3908
    8MOL    O11 1005   0.537   4.432   0.977 -0.8177 -0.0609 -0.5207
    8MOL    H12 1006   0.521   4.543   1.221 -2.0281 -0.2669 -0.7001
    8MOL    H13 1007   0.517   4.706   1.152 -1.1089 -0.0300 -0.8817
    8MOL    H14 1008   0.519   4.626   0.928  0.3074 -0.8887 -0.5882
    8MOL    H15 1009   0.377   4.566   1.004  0.2225  1.4358 -1.0063
    8MOL    C16 1010   0.521   4.390   0.845  0.5214 -0.2559 -0.5382
    8MOL    C17 1011   0.611   4.478   0.753  0.4470  0.0709 -0.1051
    8MOL    O18 1012   0.529   4.572   0.678  0.1197  0.0416 -0.2751
    8MOL    H19 1013   0.555   4.287   0.851 -2.1380 -1.0885  0.6121
    8MOL    H20 1014   0.415   4.402   0.822  0.6686  1.1464 -0.5502
    8MOL    H21 1015   0.657   4.414   0.677  0.3446 -0.8737  0.6054
    8MOL    H22 1016   0.687   4.521   0.819 -1.6399  2.0563  1.0374
    8MOL    C23 1017   0.611   4.660   0.595 -0.0577 -0.4537  0.0094
    8MOL    C24 1018   0.540   4.771   0.513 -0.3365 -0.1967 -0.3591
    8MOL    O25 1019   0.534   4.886   0.589  0.5618 -0.1287 -0.5083
    8MOL    H26 1020   0.684   4.708   0.660 -0.3009  1.2454 -0.9516
    8MOL    H27 1021   0.662   4.596   0.522  3.2216 -0.2671  2.0069
    8MOL    H28 1022   0.448   4.722   0.482 -0.9745  0.8666 -0.1684
    8MOL    H29 1023   0.599   4.790   0.423  0.7441 -0.2902  0.3160
    8MOL    C30 1024   0.424   4.887   0.675 -0.3134 -0.0027  0.5481
    8MOL    C31 1025   0.418   5.023   0.748 -0.3239  0.1716 -0.5060
    8MOL    O32 1026   0.533   5.037   0.832 -0.0168 -0.5844 -0.3576
    8MOL    H33 1027   0.335   4.866   0.616  1.4103  1.8468 -2.8823
    8MOL    H34 1028   0.432   4.812   0.753  1.5292  0.6153  0.9757
    8MOL    H35 1029   0.336   5.022   0.819  1.0245 -0.4132  1.0789
    8MOL    H36 1030   0.406   5.101   0.673 -0.1142  1.4126  0.7331
    8MOL    C37 1031   0.566   5.169   0.860 -0.2145  0.1279 -0.5940
    8MOL    C38 1032   0.663   5.177   0.972  0.1499  0.2272 -0.6271
    8MOL    O39 1033   0.615   5.132   1.097  0.3943  0.1128 -0.0794
    8MOL    H40 1034   0.605   5.207   0.766 -1.8569  0.5125 -1.1411
    8MOL    H41 1035   0.476   5.226   0.880 -1.2293 -1.8886  0.7642
    8MOL    H42 1036   0.695   5.280   0.984 -2.6274  0.9260  1.1231
    8MOL    H43 1037   0.759   5.132   0.949 -0.5472 -0.4921 -2.2318
    8MOL    C44 1038   0.536   5.226   1.168  0.1317 -0.4100  0.3605
    8MOL    C45 1039   0.478   5.154   1.295  0.4179 -0.6952  0.1442
    8MOL    O46 1040   0.506   5.218   1.416 -0.3679 -0.2545  0.3448
    8MOL    H47 1041   0.600   5.307   1.204  1.2473 -0.6263 -1.1192
    8MOL    H48 1042   0.462   5.284   1.113  0.4281 -0.8892 -0.5521
    8MOL    H49 1043   0.503   5.049   1.310 -2.5718 -1.5386 -0.5239
    8MOL    H50 1044   0.373   5.165   1.271  0.4567 -1.9034 -0.6394
    8MOL    C51 1045   0.489   5.144   1.542 -0.2364 -0.2360 -0.5215
    8MOL    C52 1046   0.499   5.238   1.663  0.2854  0.3646 -0.6796
    8MOL    O53 1047   0.628   5.296   1.675 -0.0083  0.0348  0.3694
    8MOL    H54 1048   0.396   5.088   1.543 -0.4132  0.0709  0.2114
    8MOL    H55 1049   0.556   5.058   1.547 -1.6148 -1.3110 -0.2848
    8MOL    H56 1050   0.477   5.185   1.755  1.5503 -1.8938 -1.6426
    8MOL    H57 1051   0.425   5.318   1.665 -0.2914 -0.1844  1.0916
    8MOL    C58 1052   0.642   5.439   1.642  0.0257  1.1453  0.0914
    8MOL    C59 1053   0.782   5.491   1.597  0.4643  0.0866  0.0768
    8MOL    O60 1054   0.872   5.521   1.702 -0.0362  0.4326 -0.1439
    8MOL    H61 1055   0.576   5.451   1.555 -0.1666 -0.3797  0.0080
    8MOL    H62 1056   0.603   5.491   1.729 -0.1552 -0.2963  0.8834
    8MOL    H63 1057   0.759   5.592   1.562  0.3185 -0.1537 -0.5309
    8MOL    H64 1058   0.822   5.427   1.519 -3.8398 -1.7722 -0.7764
    8MOL    C65 1059   0.966   5.412   1.734 -0.0063  0.1933 -0.3834
    8MOL    C66 1060   1.035   5.447   1.869 -0.2151  0.0078  0.4030
    8MOL    O67 1061   1.121   5.563   1.863 -0.5548 -0.3946  0.2490
    8MOL    H68 1062   0.915   5.316   1.741  1.3542 -0.4247  1.3804
    8MOL    H69 1063   1.041   5.399   1.656  0.2516  1.6894 -0.3954
    8MOL    H70 1064   1.096   5.360   1.895 -1.0102 -0.3976  0.9531
    8MOL    H71 1065   0.955   5.456   1.942 -0.1402 -1.2446  0.6575
    8MOL    C72 1066   1.063   5.691   1.862 -0.6665  0.3155  0.3910
    8MOL    C73 1067   1.166   5.808   1.859  0.6375 -0.3426  0.0107
    8MOL    O74 1068   1.198   5.848   1.989  0.5156  0.0686 -0.6360
    8MOL    H75 1069   1.001   5.702   1.773  0.5672  2.1417 -0.2811
    8MOL    H76 1070   0.990   5.698   1.943 -2.0360  1.2645 -0.8802
    8MOL    H77 1071   1.108   5.888   1.816  0.5383 -0.7214 -0.5669
    8MOL    H78 1072   1.263   5.801   1.809  0.5463  1.3186 -0.4027
    8MOL    C79 1073   1.292   5.950   1.993 -0.5433  0.1244  0.2141
    8MOL    C80 1074   1.254   6.081   1.904  0.8444 -0.3591 -0.8424
    8MOL    O81 1075   1.278   6.056   1.766 -0.0413 -0.7742 -0.0844
    8MOL    H82 1076   1.305   5.968   2.100 -1.4621 -4.7413  1.2548
    8MOL    H83 1077   1.391   5.915   1.965  0.3578  0.6606  2.5725
    8MOL    H84 1078   1.307   6.173   1.929 -2.1484  0.7740  1.6563
    8MOL    H85 1079   1.150   6.103   1.931  0.7229 -1.6615 -0.2324
    8MOL    C86 1080   1.256   6.173   1.686  0.4833 -0.1370 -0.1809
    8MOL    C87 1081   1.105   6.213   1.690  0.5762 -0.1569  0.2084
    8MOL    O88 1082   1.067   6.258   1.562  0.3011  0.0812 -0.1030
    8MOL    H89 1083   1.315   6.261   1.711  0.9636 -0.2551 -0.8579
    8MOL    H90 1084   1.284   6.144   1.584 -1.0540 -0.3092 -0.5662
    8MOL    H91 1085   1.083   6.301   1.751 -1.4830 -0.1875 -0.4670
    8MOL    H92 1086   1.044   6.131   1.728 -1.6019  1.5962  0.6041
    8MOL    C93 1087   0.924   6.261   1.560  0.2368  0.0185  0.5232
    8MOL    C94 1088   0.863   6.277   1.422  0.1389  0.5364 -0.0529
    8MOL    O95 1089   0.902   6.402   1.357  0.1946  0.0867 -0.5781
    8MOL    H96 1090   0.891   6.166   1.601  0.0965 -0.3878 -0.5084
    8MOL    H97 1091   0.895   6.340   1.629  2.1448  0.0270  1.3367
    8MOL    H98 1092   0.754   6.277   1.422  0.1231 -1.4385  1.3991
    8MOL    H99 1093   0.897   6.201   1.352 -0.7385 -0.6213  0.7617
    8MOL   C100 1094   0.848   6.428   1.228 -0.8336  0.1998  0.4010
    8MOL   C101 1095   0.699   6.402   1.193  0.1283 -0.3875 -0.0752
    8MOL   O102 1096   0.672   6.263   1.169 -0.0456 -0.7717 -0.3327
    8MOL   H103 1097   0.872   6.534   1.230  2.5124 -0.4897  0.5895
    8MOL   H104 1098   0.905   6.398   1.139 -0.8549  1.3961 -0.0234
    8MOL   H105 1099   0.684   6.467   1.107  2.1548  1.2468  0.7739
    8MOL   H106 1100   0.631   6.437   1.270  0.9500 -1.2862  1.0777
    8MOL   C107 1101   0.539   6.231   1.118  0.1051 -0.6415 -0.3574
    8MOL   C108 1102   0.535   6.231   0.965 -0.1855 -0.5530 -0.0331
    8MOL   O109 1103   0.568   6.109   0.906 -0.2687 -0.0652 -0.5609
    8MOL   H110 1104   0.493   6.139   1.153  0.1542 -0.4522  0.2103
    8MOL   H111 1105   0.471   6.298   1.171  0.5379 -0.2955 -0.2338
    8MOL   H112 1106   0.588   6.316   0.922 -1.0951  0.4089  0.7165
    8MOL   H113 1107   0.430   6.246   0.937 -0.2007 -1.5844 -0.5699
    8MOL   C114 1108   0.705   6.080   0.913  0.5482  0.3398 -0.3341
    8MOL   C115 1109   0.733   5.949   0.839  0.6545  0.0108 -0.3148
    8MOL   O116 1110   0.730   5.967   0.697 -0.3383 -0.0013  0.0047
    8MOL   H117 1111   0.752   6.159   0.854 -2.0100  1.3400 -1.1187
    8MOL   H118 1112   0.745   6.077   1.014  1.0604  1.5301 -0.4994
    8MOL   H119 1113   0.658   5.877   0.871  0.1168  0.2728 -0.9852
    8MOL   H120 1114   0.828   5.910   0.875  0.1928 -0.8260  0.0126
    8MOL   C121 1115   0.603   5.974   0.629 -0.4999  0.1931  0.0994
    8MOL   C122 1116   0.618   5.957   0.477 -0.0889 -0.3369 -0.1201
    8MOL   O123 1117   0.716   6.053   0.433  0.2148  0.1909 -0.3194
    8MOL   H124 1118   0.539   5.895   0.668 -0.2771  0.0672  0.2099
    8MOL   H125 1119   0.565   6.075   0.646 -0.6779 -0.2495  2.4947
    8MOL   H126 1120   0.526   5.978   0.422 -0.1910 -0.5309 -0.0213
    8MOL   H127 1121   0.646   5.853   0.463 -0.3529 -0.2832 -1.1115
    8MOL   C128 1122   0.717   6.053   0.289 -0.2962 -0.1167 -0.4409
    8MOL   C129 1123   0.780   6.183   0.232  0.5910 -0.0385  0.2459
    8MOL   O130 1124   0.825   6.153   0.098  0.0744 -0.3035 -0.2204
    8MOL   H131 1125   0.776   5.964   0.272 -0.9211 -0.9357  1.5507
    8MOL   H132 1126   0.625   6.043   0.232 -0.0221 -0.5647 -0.7977
    8MOL   H133 1127   0.869   6.205   0.291  0.7231  1.6348 -0.5441
    8MOL   H134 1128   0.713   6.265   0.258 -0.3114  0.2753 -2.9365
    8MOL   C135 1129   0.797   6.253   7.768  0.4208 -0.2902  0.3732
    8MOL   C136 1130   0.884   6.234   7.639 -0.2354  0.0024  0.0466
    8MOL   O137 1131   1.012   6.289   7.655 -0.1181  0.1729 -0.4706
    8MOL   H138 1132   0.691   6.256   7.744  0.0337  0.9468  2.1371
    8MOL   H139 1133   0.812   6.351   0.043  1.2210 -0.3545  0.2489
    8MOL   H140 1134   0.845   6.289   7.553  0.0592 -0.9924 -0.7446
    8MOL   H141 1135   0.882   6.134   7.597  3.2922 -1.3273  2.7831
    8MOL   H142 1136   1.032   6.265   7.744 -0.8733  2.3756  0.3165
    9MOL     C1 1137   7.690   6.361   4.513 -0.0291 -0.0796  1.0355
    9MOL     C2 1138   7.748   6.238   4.573  0.1671  0.2411  0.1098
    9MOL     O3 1139   7.688   6.239   4.705  0.0375  0.0332  0.3403
    9MOL     H4 1140   7.581   6.365   4.519 -0.1173 -2.0758  1.0013
    9MOL     H5 1141   7.721   6.365   4.409 -1.8494 -0.9171  0.4313
    9MOL     H6 1142   0.086   6.238   4.579  0.0913  0.5042  1.4545
    9MOL     H7 1143   7.714   6.149   4.520 -0.7549 -0.1552  1.3539
    9MOL     H8 1144   7.729   6.448   4.566  0.9407 -0.0081  0.2146
    9MOL     C9 1145   7.739   6.143   4.796 -0.2011  0.5715 -0.6112
    9MOL    C10 1146   7.643   6.028   4.830 -0.2244 -0.5097 -0.1518
    9MOL    O11 1147   7.516   6.069   4.881  0.0844 -0.2180  0.1699
    9MOL    H12 1148   0.063   6.103   4.760  0.3528 -1.9808  3.3530
    9MOL    H13 1149   0.002   6.188   4.890  0.8911  0.1399 -0.7947
    9MOL    H14 1150   7.696   5.959   4.895  1.2499  0.3357 -0.4426
    9MOL    H15 1151   7.615   5.969   4.743  1.4605 -0.1222 -0.9718
    9MOL    C16 1152   7.438   5.968   4.935 -0.6271  0.4329 -0.7013
    9MOL    C17 1153   7.298   6.029   4.972 -0.7520  1.0369  0.7132
    9MOL    O18 1154   7.223   6.063   4.858 -0.3934  0.5067  0.1428
    9MOL    H19 1155   7.416   5.884   4.870  1.6521 -0.7871  0.0674
    9MOL    H20 1156   7.490   5.943   5.027 -1.8083 -0.1308 -0.1737
    9MOL    H21 1157   7.315   6.115   5.037  1.6812  1.4798 -0.4839
    9MOL    H22 1158   7.234   5.962   5.030 -0.0127  0.3795  0.7739
    9MOL    C23 1159   7.263   6.185   4.797  0.2474 -0.3200  0.1814
    9MOL    C24 1160   7.143   6.256   4.731  0.3091 -0.9671 -0.0452
    9MOL    O25 1161   7.057   6.295   4.833 -0.0741  0.2230 -0.8243
    9MOL    H26 1162   7.332   6.244   4.857  0.2352  0.5522 -0.6475
    9MOL    H27 1163   7.324   6.169   4.708  0.1862  0.3135  0.0205
    9MOL    H28 1164   7.098   6.176   4.671 -0.5827 -0.5563  0.0592
    9MOL    H29 1165   7.170   6.339   4.666  0.5815 -0.4409  0.7325
    9MOL    C30 1166   6.956   6.376   4.779 -0.6205 -0.5379 -0.0434
    9MOL    C31 1167   6.862   6.428   4.881 -0.5945  0.4925 -0.5895
    9MOL    O32 1168   6.897   6.562   4.926  0.2205 -0.0945  0.6741
    9MOL    H33 1169   7.002   6.458   4.723  2.0569 -2.1567 -0.2744
    9MOL    H34 1170   6.889   6.319   4.715 -0.9026 -3.0762  2.4334
    9MOL    H35 1171   6.853   6.363   4.968  0.4842  0.1748 -0.7126
    9MOL    H36 1172   6.764   6.425   4.835 -1.0403  2.2273  0.2035
    9MOL    C37 1173   6.816   6.595   5.040 -0.3113 -0.7228  0.0646
    9MOL    C38 1174   6.826   6.742   5.077  0.3648 -0.1894 -0.4864
    9MOL    O39 1175   6.697   6.792   5.100 -0.4265  0.1354  0.5714
    9MOL    H40 1176   6.714   6.560   5.024 -1.3265  2.0999  0.0882
    9MOL    H41 1177   6.858   6.545   5.127  0.6599 -2.2256 -1.2431
    9MOL    H42 1178   6.860   6.799   4.990  0.0993 -0.6499 -0.8944
    9MOL    H43 1179   6.891   6.765   5.161 -0.3289  0.3796 -0.0963
    9MOL    C44 1180   6.689   6.920   5.163  0.8816 -0.6132 -0.2502
    9MOL    C45 1181   6.559   6.927   5.222  0.6031 -0.9317 -0.5217
    9MOL    O46 1182   6.471   6.962   5.115  0.0924 -0.3568 -0.2698
    9MOL    H47 1183   6.772   6.927   5.233  0.1947 -1.8141  0.6848
    9MOL    H48 1184   6.713   7.004   5.097 -1.5783 -0.0702 -0.5158
    9MOL    H49 1185   6.567   7.002   5.299 -2.3378 -0.7800 -0.2942
    9MOL    H50 1186   6.530   6.834   5.272  1.3401 -0.1893  1.2744
    9MOL    C51 1187   6.341   6.985   5.158 -0.1460 -0.3874 -0.1416
    9MOL    C52 1188   6.258   7.058   5.049  0.9160 -0.3207  0.3105
    9MOL    O53 1189   6.279   7.196   5.054 -0.5535  0.1784 -0.4172
    9MOL    H54 1190   6.289   6.899   5.200  1.6197 -1.6303 -0.4390
    9MOL    H55 1191   6.342   7.055   5.241  1.0896 -1.3222  0.6517
    9MOL    H56 1192   6.157   7.046   5.089  0.4517 -0.0706 -0.7585
    9MOL    H57 1193   6.274   7.016   4.949 -2.6187  1.4142 -1.1043
    9MOL    C58 1194   6.402   7.247   5.014 -0.2613  0.3556  0.0612
    9MOL    C59 1195   6.391   7.400   4.994  0.5019  0.6561 -0.0811
    9MOL    O60 1196   6.404   7.436   4.861  0.3752  0.4227  0.1408
    9MOL    H61 1197   6.487   7.217   5.076  1.6483  3.5384 -0.9042
    9MOL    H62 1198   6.434   7.208   4.917 -2.6693 -1.3427 -0.0798
    9MOL    H63 1199   6.476   7.455   5.035  0.5944 -0.2122  0.9373
    9MOL    H64 1200   6.309   7.450   5.045 -0.8640 -0.8674 -0.7413
    9MOL    C65 1201   6.311   7.534   4.809  0.2207  0.1913 -0.0785
    9MOL    C66 1202   6.196   7.451   4.744  0.0394  0.2167 -0.5258
    9MOL    O67 1203   6.118   7.378   4.843  0.4693  0.2939  0.1594
    9MOL    H68 1204   6.273   7.610   4.877 -1.2582  0.5225 -1.2607
    9MOL    H69 1205   6.362   7.583   4.726 -3.0270  2.0107 -1.0615
    9MOL    H70 1206   6.246   7.391   4.667  0.0648  1.0579 -1.1764
    9MOL    H71 1207   6.135   7.518   4.684 -1.5243 -0.2017  0.5819
    9MOL    C72 1208   5.988   7.345   4.795  0.1001 -0.7645 -0.4296
    9MOL    C73 1209   5.930   7.247   4.891  0.1114 -0.1044 -0.3625
    9MOL    O74 1210   5.853   7.304   4.992  0.2060 -0.3109  0.8749
    9MOL    H75 1211   5.914   7.424   4.784 -0.7589 -1.5945 -0.6522
    9MOL    H76 1212   6.000   7.291   4.701 -0.1277 -0.2480 -0.7509
    9MOL    H77 1213   6.009   7.188   4.939  1.3291  1.5750 -0.2912
    9MOL    H78 1214   5.866   7.177   4.837 -2.5708  0.5972  1.7642
    9MOL    C79 1215   5.789   7.212   5.081  0.2917  0.1373  0.0650
    9MOL    C80 1216   5.705   7.293   5.177 -0.0729 -0.7146  0.1034
    9MOL    O81 1217   5.779   7.396   5.247 -0.1240  0.7381  0.3965
    9MOL    H82 1218   5.718   7.153   5.023 -0.0855 -2.5468  3.1052
    9MOL    H83 1219   5.855   7.134   5.122  0.1813 -0.4179 -0.7968
    9MOL    H84 1220   5.669   7.217   5.247  0.5399  1.3022  2.6839
    9MOL    H85 1221   5.619   7.332   5.124 -0.1720 -0.1822  0.6456
    9MOL    C86 1222   5.711   7.441   5.369  0.0732  0.0034  0.2150
    9MOL    C87 1223   5.744   7.335   5.479 -0.3017 -0.2836 -0.3347
    9MOL    O88 1224   5.634   7.342   5.574 -0.0965  0.3524  0.1599
    9MOL    H89 1225   5.752   7.539   5.395 -0.6504  1.1073 -2.6189
    9MOL    H90 1226   5.605   7.459   5.354 -0.0596  1.3569  2.5116
    9MOL    H91 1227   5.841   7.364   5.518 -0.8767  1.1037  0.0808
    9MOL    H92 1228   5.762   7.236   5.436 -0.9835  0.0649 -1.4443
    9MOL    C93 1229   5.679   7.282   5.697 -0.8895 -0.0488  0.0524
    9MOL    C94 1230   5.558   7.270   5.800  0.3856 -0.8354 -0.7672
    9MOL    O95 1231   5.501   7.392   5.831 -0.0738  0.1201  1.0628
    9MOL    H96 1232   5.704   7.179   5.672 -0.7251  0.2715 -1.1224
    9MOL    H97 1233   5.760   7.334   5.749 -1.6133  0.8915  0.2519
    9MOL    H98 1234   5.599   7.222   5.889  2.0973  1.5500 -0.2126
    9MOL    H99 1235   5.481   7.202   5.764 -0.4039 -0.2896 -0.1150
    9MOL   C100 1236   5.414   7.386   5.945 -0.1612 -0.2576 -0.2809
    9MOL   C101 1237   5.482   7.452   6.065 -0.3229 -0.2053 -0.4562
    9MOL   O102 1238   5.426   7.586   6.073 -0.7062 -0.2058 -0.3614
    9MOL   H103 1239   5.317   7.426   5.918  1.3739  3.4252 -0.6434
    9MOL   H104 1240   5.395   7.284   5.978  1.5621  0.0518  1.7945
    9MOL   H105 1241   5.590   7.436   6.058 -0.4562 -0.4989 -1.9677
    9MOL   H106 1242   5.465   7.399   6.159 -3.5283 -1.4989 -1.7259
    9MOL   C107 1243   5.490   7.675   6.167 -0.1392 -0.0964 -0.0196
    9MOL   C108 1244   5.645   7.683   6.158 -0.9143 -0.4832  0.1075
    9MOL   O109 1245   5.708   7.624   6.276 -0.3269 -0.1021  0.3252
    9MOL   H110 1246   5.444   7.765   6.126 -1.1072 -1.3901 -1.8493
    9MOL   H111 1247   5.450   7.660   6.267  0.0383 -1.3536 -0.1311
    9MOL   H112 1248   5.666   0.018   6.145 -1.9764 -0.6963 -3.9647
    9MOL   H113 1249   5.679   7.627   6.071  1.2787  0.0877  0.5586
    9MOL   C114 1250   5.849   7.643   6.282 -0.1145  0.3579  0.1212
    9MOL   C115 1251   5.930   7.603   6.154  0.1154  0.1637 -0.4205
    9MOL   O116 1252   5.950   7.709   6.061 -0.4211  0.6239  0.1065
    9MOL   H117 1253   5.871   7.743   6.317 -1.4615  0.0615  1.8559
    9MOL   H118 1254   5.887   7.578   6.361 -1.3760 -0.1673  0.3110
    9MOL   H119 1255   5.881   7.519   6.104 -0.1744  0.0166  0.1092
    9MOL   H120 1256   6.027   7.571   6.190 -0.4201  0.3970  1.2458
    9MOL   C121 1257   6.014   7.670   5.944  0.7069  0.1400  0.0030
    9MOL   C122 1258   5.910   7.613   5.839  0.5006  0.3710 -0.2896
    9MOL   O123 1259   5.824   7.717   5.797  0.3914  0.0379  0.2893
    9MOL   H124 1260   6.061   7.764   5.915  1.2457 -0.6590 -1.7897
    9MOL   H125 1261   6.095   7.600   5.967  0.5409  0.6169  2.1248
    9MOL   H126 1262   5.848   7.533   5.880  1.1536  0.1046  0.1844
    9MOL   H127 1263   5.970   7.571   5.759 -1.7424 -0.6194 -1.4923
    9MOL   C128 1264   5.733   7.677   5.693  0.1691 -0.0924 -0.3111
    9MOL   C129 1265   5.668   0.035   5.634  0.0731  0.3837 -0.0225
    9MOL   O130 1266   5.774   0.113   5.576  0.0763 -0.1790 -0.3008
    9MOL   H131 1267   5.785   7.621   5.616 -0.2695  0.9753 -1.4065
    9MOL   H132 1268   5.661   7.606   5.733 -0.2232  0.4415 -0.0732
    9MOL   H133 1269   5.609   0.086   5.709 -0.1864  0.6587 -0.4127
    9MOL   H134 1270   5.617   0.001   5.544  2.7092 -0.2946 -1.3112
    9MOL   C135 1271   5.743   0.251   5.578 -0.6693  0.6326 -0.4224
    9MOL   C136 1272   5.786   0.301   5.443  0.4069 -0.3125  0.2634
    9MOL   O137 1273   5.928   0.325   5.448  0.4928  0.4615 -0.3553
    9MOL   H138 1274   5.637   0.271   5.597 -0.1288  2.3721  0.9707
    9MOL   H139 1275   5.795   0.308   5.655 -0.0538 -0.2368 -0.1896
    9MOL   H140 1276   5.730   0.389   5.409  1.9784  0.1402 -1.2344
    9MOL   H141 1277   5.769   0.218   5.375 -0.5409  0.1147 -0.0386
    9MOL   H142 1278   5.976   0.244   5.453 -2.2174 -1.2987 -1.7160
   10MOL     C1 1279   2.332   3.642   6.980 -0.6049 -0.4464  0.5046
   10MOL     C2 1280   2.197   3.601   7.019 -0.2296  0.4492 -0.6890
   10MOL     O3 1281   2.119   3.716   7.038 -0.0855 -0.4117 -0.1685
   10MOL     H4 1282   2.388   3.556   6.942 -3.0383 -2.4661  1.2991
   10MOL     H5 1283   2.388   3.671   7.070  0.8364  1.8880 -1.0932
   10MOL     H6 1284   2.209   3.546   7.113  0.5290  1.1917 -0.3408
   10MOL     H7 1285   2.154   3.533   6.945 -2.3527  2.1783 -1.0827
   10MOL     H8 1286   2.327   3.733   6.920 -2.3180 -1.6636 -1.2599
   10MOL     C9 1287   2.014   3.707   7.136 -0.2544 -0.0743 -0.5639
   10MOL    C10 1288   1.930   3.838   7.138  0.3978 -0.1589 -0.2160
   10MOL    O11 1289   1.816   3.838   7.046 -0.6239 -0.5009  0.3026
   10MOL    H12 1290   1.947   3.625   7.111 -1.0585  0.0955  0.9989
   10MOL    H13 1291   2.064   3.696   7.232 -0.9519 -2.2727 -0.4409
   10MOL    H14 1292   1.995   3.923   7.115 -1.1618  0.4607 -2.4438
   10MOL    H15 1293   1.878   3.867   7.229  1.5265 -0.8328  0.6724
   10MOL    C16 1294   1.855   3.875   6.907 -0.4161 -0.0726  0.0172
   10MOL    C17 1295   1.735   3.929   6.827  0.0188 -0.6507 -0.3795
   10MOL    O18 1296   1.791   3.954   6.696 -0.0682 -0.2164  0.1822
   10MOL    H19 1297   1.939   3.943   6.910  0.3220 -0.9997  0.9731
   10MOL    H20 1298   1.898   3.786   6.861  0.1413 -0.9541  2.1745
   10MOL    H21 1299   1.712   4.026   6.869 -0.4351 -1.6683  1.7864
   10MOL    H22 1300   1.654   3.858   6.842 -1.3128  1.0902  0.7948
   10MOL    C23 1301   1.713   3.898   6.595  0.3860  0.2336  0.4423
   10MOL    C24 1302   1.796   3.875   6.466 -0.6464 -0.3566 -0.0993
   10MOL    O25 1303   1.789   3.990   6.393  0.6801 -0.1044  0.1931
   10MOL    H26 1304   1.690   3.801   6.638  2.5392  0.1924  1.5940
   10MOL    H27 1305   1.622   3.949   6.564  1.3124  1.4120 -0.4126
   10MOL    H28 1306   1.751   3.794   6.408  0.0026  0.3426 -1.5872
   10MOL    H29 1307   1.898   3.854   6.497 -1.0468  0.2310  1.7004
   10MOL    C30 1308   1.817   3.977   6.247  0.3274  0.2858 -0.3190
   10MOL    C31 1309   1.815   4.125   6.196  0.4204  0.2146  0.5876
   10MOL    O32 1310   1.689   4.181   6.160 -0.3160 -0.1257 -0.4841
   10MOL    H33 1311   1.921   3.943   6.240  0.6321  1.4546 -1.6277
   10MOL    H34 1312   1.758   3.898   6.201 -1.4525  0.6444  1.3081
   10MOL    H35 1313   1.858   4.124   6.096  0.1052  1.4362  0.4206
   10MOL    H36 1314   1.875   4.192   6.259  1.8252 -0.3603 -0.1124
   10MOL    C37 1315   1.603   4.205   6.274  0.1459 -0.4194  0.8898
   10MOL    C38 1316   1.462   4.254   6.232  0.4569  0.3791 -0.1653
   10MOL    O39 1317   1.391   4.163   6.150  1.0595  0.4938 -0.8287
   10MOL    H40 1318   1.598   4.116   6.337 -2.6924  0.3103  1.7491
   10MOL    H41 1319   1.639   4.295   6.326  0.7345  0.1527 -0.4862
   10MOL    H42 1320   1.478   4.343   6.170 -0.7954 -0.7976 -2.2549
   10MOL    H43 1321   1.406   4.274   6.323 -0.2848  0.4824 -0.6395
   10MOL    C44 1322   1.251   4.178   6.159 -0.0447  0.5013 -0.0176
   10MOL    C45 1323   1.168   4.105   6.047 -0.3518  0.2354 -0.3018
   10MOL    O46 1324   1.140   3.964   6.081  0.3404 -0.2904  0.7283
   10MOL    H47 1325   1.212   4.134   6.250 -0.7735  0.5795 -0.2844
   10MOL    H48 1326   1.223   4.284   6.161 -2.4118 -0.1104  0.4998
   10MOL    H49 1327   1.226   4.107   5.955 -0.6922  0.7741 -0.5066
   10MOL    H50 1328   1.073   4.149   6.017 -1.2888 -1.7027 -0.1925
   10MOL    C51 1329   1.104   3.891   5.971 -0.5348  0.5072 -0.2228
   10MOL    C52 1330   1.051   3.754   6.014  0.7313 -0.5794 -0.0834
   10MOL    O53 1331   1.086   3.654   5.919 -0.2645  0.5717 -0.3715
   10MOL    H54 1332   1.015   3.924   5.918 -0.5409  1.2387  0.2357
   10MOL    H55 1333   1.180   3.866   5.897 -1.3079  1.4338 -1.3529
   10MOL    H56 1334   0.946   3.757   6.040  0.5976 -0.6203 -0.6186
   10MOL    H57 1335   1.102   3.729   6.107  0.9621 -0.8022 -0.2684
   10MOL    C58 1336   1.011   3.649   5.799  0.9395  0.9394 -0.1028
   10MOL    C59 1337   1.054   3.537   5.711 -0.3064 -0.0256  0.3623
   10MOL    O60 1338   1.183   3.544   5.662  0.3821 -0.1050  0.0159
   10MOL    H61 1339   0.905   3.648   5.824  0.4399  1.0927 -2.0827
   10MOL    H62 1340   1.018   3.746   5.750 -0.1485  1.5912  0.9958
   10MOL    H63 1341   0.985   3.511   5.630 -1.0083  0.9338  0.6364
   10MOL    H64 1342   1.068   3.455   5.781  0.8029  0.9150  1.2592
   10MOL    C65 1343   1.201   3.624   5.538 -0.3722 -0.1591  0.1109
   10MOL    C66 1344   1.307   3.576   5.438 -0.4762 -0.4961  0.5861
   10MOL    O67 1345   1.443   3.592   5.485 -0.2469  0.1991 -0.4208
   10MOL    H68 1346   1.113   3.630   5.475  0.8843 -0.7385 -1.7531
   10MOL    H69 1347   1.212   3.730   5.562  0.8356 -0.1607 -0.3673
   10MOL    H70 1348   1.297   3.624   5.341 -1.0150  0.7048  1.2318
   10MOL    H71 1349   1.303   3.471   5.410  1.6640 -0.6424  0.7328
   10MOL    C72 1350   1.462   3.520   5.603  0.2836  0.0344  0.0110
   10MOL    C73 1351   1.609   3.514   5.628 -0.4340  0.0978  0.6657
   10MOL    O74 1352   1.675   3.412   5.561  0.4373  0.0604 -0.0491
   10MOL    H75 1353   1.400   3.558   5.684  1.3552 -1.3849  1.5274
   10MOL    H76 1354   1.428   3.417   5.591  1.7959 -0.8858  3.1016
   10MOL    H77 1355   1.625   3.491   5.733 -0.5916  4.1480  1.6568
   10MOL    H78 1356   1.655   3.610   5.605 -0.8270  0.7799  2.6970
   10MOL    C79 1357   1.819   3.423   5.570 -0.4854 -0.0191  0.6315
   10MOL    C80 1358   1.884   3.316   5.472  0.1443  0.0131 -0.5572
   10MOL    O81 1359   1.856   3.190   5.525  0.3735  0.1563  0.3587
   10MOL    H82 1360   1.846   3.525   5.545 -1.7001  0.7279  2.2439
   10MOL    H83 1361   1.847   3.394   5.671 -0.8247 -3.2822 -0.1454
   10MOL    H84 1362   1.993   3.320   5.477  0.0852  0.0827  0.8379
   10MOL    H85 1363   1.846   3.334   5.371 -1.5319 -2.4165 -0.3977
   10MOL    C86 1364   1.793   3.110   5.424 -0.2384  0.5411 -0.2647
   10MOL    C87 1365   1.754   2.987   5.502 -0.1246 -0.2102  0.3767
   10MOL    O88 1366   1.866   2.903   5.496 -0.1034  0.3733  0.0260
   10MOL    H89 1367   1.700   3.147   5.381  0.4465  2.1540 -0.3951
   10MOL    H90 1368   1.865   3.110   5.342 -0.6074 -1.8326 -0.6123
   10MOL    H91 1369   1.670   2.932   5.459  1.0893 -2.4106  0.7283
   10MOL    H92 1370   1.721   3.005   5.604  0.1277  0.5851  0.3230
   10MOL    C93 1371   1.845   2.770   5.553 -0.3184 -0.6060  0.0059
   10MOL    C94 1372   1.931   2.666   5.480  0.4393  0.5604 -0.0388
   10MOL    O95 1373   1.909   2.681   5.343 -0.6391  0.6990  0.0494
   10MOL    H96 1374   1.864   2.787   5.659  0.9901 -0.9891 -0.1564
   10MOL    H97 1375   1.739   2.755   5.535 -0.7051  0.8206  0.9745
   10MOL    H98 1376   1.899   2.567   5.512 -0.7582  0.9455 -0.0321
   10MOL    H99 1377   2.037   2.676   5.503  0.4735  0.5214 -0.1750
   10MOL   C100 1378   1.985   2.588   5.260 -0.6647  0.5188 -0.7568
   10MOL   C101 1379   1.893   2.559   5.142  0.2976  0.0024  0.6107
   10MOL   O102 1380   1.785   2.471   5.159 -0.1295 -0.3700 -0.2941
   10MOL   H103 1381   2.082   2.620   5.224  0.2692 -1.7379 -0.3481
   10MOL   H104 1382   2.006   2.495   5.312  0.0717  0.0070 -1.9515
   10MOL   H105 1383   1.944   2.514   5.057  1.0446  0.3544  0.8681
   10MOL   H106 1384   1.868   2.651   5.089 -0.3372 -1.3918 -1.5978
   10MOL   C107 1385   1.678   2.518   5.246  0.3643  0.0124 -0.1366
   10MOL   C108 1386   1.563   2.416   5.235 -0.2942  0.1502  0.3793
   10MOL   O109 1387   1.515   2.391   5.104 -0.2288 -0.2127 -0.1761
   10MOL   H110 1388   1.708   2.523   5.351 -1.7337 -0.2131  0.5118
   10MOL   H111 1389   1.639   2.611   5.206 -0.4907 -0.8250 -1.2946
   10MOL   H112 1390   1.477   2.450   5.292  0.4304  1.3559  0.7586
   10MOL   H113 1391   1.591   2.324   5.287 -1.3182 -0.3090  0.1426
   10MOL   C114 1392   1.439   2.269   5.097 -0.2668  0.0306 -0.6058
   10MOL   C115 1393   1.338   2.257   4.975 -0.1285 -0.5897  0.0508
   10MOL   O116 1394   1.279   2.128   4.981  0.6947 -0.1262 -0.2100
   10MOL   H117 1395   1.516   2.192   5.082  2.8486  2.4734  2.0072
   10MOL   H118 1396   1.394   2.249   5.195  1.1338  0.2543  0.1077
   10MOL   H119 1397   1.396   2.268   4.884  0.3977 -0.5020  0.3974
   10MOL   H120 1398   1.251   2.323   4.973 -1.0746 -1.7936  0.4846
   10MOL   C121 1399   1.210   2.094   4.864 -0.1761 -0.4368 -0.4014
   10MOL   C122 1400   1.310   2.036   4.767  1.2497 -0.2423 -0.7716
   10MOL   O123 1401   1.348   2.144   4.683  0.2338 -0.2881 -0.0968
   10MOL   H124 1402   1.132   2.028   4.901  0.7453 -1.2190  0.1574
   10MOL   H125 1403   1.149   2.179   4.833 -1.6226 -1.4351 -0.3409
   10MOL   H126 1404   1.262   1.962   4.703 -2.9788  0.1209  1.8056
   10MOL   H127 1405   1.396   1.989   4.813  1.1769 -2.4678 -2.8315
   10MOL   C128 1406   1.467   2.120   4.606  0.0062 -0.7321 -0.9487
   10MOL   C129 1407   1.588   2.168   4.680  0.6498  0.4039  0.2395
   10MOL   O130 1408   1.578   2.310   4.701 -0.3021 -0.1712 -0.0771
   10MOL   H131 1409   1.476   2.014   4.582  0.2153 -0.5064 -1.9121
   10MOL   H132 1410   1.456   2.177   4.513  0.2470  0.4597 -0.2527
   10MOL   H133 1411   1.680   2.150   4.623  0.9216 -2.3341  1.4200
   10MOL   H134 1412   1.597   2.134   4.783  0.4347  1.1428  0.4991
   10MOL   C135 1413   1.691   2.373   4.763  0.1246  0.0684  0.1239
   10MOL   C136 1414   1.676   2.519   4.803  0.0825  0.3217  0.3548
   10MOL   O137 1415   1.715   2.592   4.687 -0.1464  0.7769 -0.2137
   10MOL   H138 1416   1.714   2.318   4.854 -1.7325  0.9293  1.1327
   10MOL   H139 1417   1.784   2.354   4.709  0.6200  1.4757  0.4586
   10MOL   H140 1418   1.742   2.540   4.887  0.6914 -0.7339  0.1415
   10MOL   H141 1419   1.573   2.543   4.830 -0.6082  1.8735 -3.3581
   10MOL   H142 1420   1.749   2.674   4.720  0.6990  0.0099  0.8560
   11MOL     C1 1421   6.667   1.505   2.799  0.1431 -0.4461  0.5741
   11MOL     C2 1422   6.607   1.529   2.658  0.8267  0.4627 -0.0492
   11MOL     O3 1423   6.586   1.665   2.642 -0.4622  0.3508  0.4545
   11MOL     H4 1424   6.587   1.533   2.868 -1.1330 -0.8722 -0.7157
   11MOL     H5 1425   6.755   1.564   2.823  0.0197 -0.0946  0.1598
   11MOL     H6 1426   6.512   1.477   2.665  1.2245 -0.7861 -3.0668
   11MOL     H7 1427   6.672   1.478   2.586  1.8295 -2.9305  3.1369
   11MOL     H8 1428   6.699   1.403   2.820  1.4443 -0.4345 -1.2590
   11MOL     C9 1429   6.526   1.697   2.514  0.8838  0.9681 -0.5588
   11MOL    C10 1430   6.502   1.851   2.500  0.4928 -0.5587  0.9507
   11MOL    O11 1431   6.379   1.878   2.568 -0.7968  0.0463  0.3078
   11MOL    H12 1432   6.591   1.666   2.433  0.8504 -1.8048  0.4363
   11MOL    H13 1433   6.427   1.651   2.509  1.0967  0.3834  0.4532
   11MOL    H14 1434   6.492   1.858   2.391  0.9422 -0.6430  0.9024
   11MOL    H15 1435   6.580   1.910   2.547 -0.9392  0.6551  1.8325
   11MOL    C16 1436   6.302   1.989   2.537  0.1178 -0.2927  0.0010
   11MOL    C17 1437   6.182   1.943   2.446 -0.2013 -0.7837  0.1482
   11MOL    O18 1438   6.121   2.052   2.371  0.4052  0.2915 -0.3351
   11MOL    H19 1439   6.275   2.032   2.633  1.0820 -0.1298  0.2002
   11MOL    H20 1440   6.370   2.059   2.488  1.6093 -0.8254  1.2513
   11MOL    H21 1441   6.112   1.895   2.514 -0.2280  3.1459  3.0803
   11MOL    H22 1442   6.227   1.871   2.377  0.6451 -1.6031  1.5237
   11MOL    C23 1443   6.047   2.010   2.256 -0.7521 -0.8050  0.1977
   11MOL    C24 1444   5.977   2.129   2.190 -0.1226  0.4039 -0.9125
   11MOL    O25 1445   5.909   2.084   2.072 -0.1309 -0.3180 -0.2634
   11MOL    H26 1446   6.120   1.975   2.183  0.7340  0.8969  0.8076
   11MOL    H27 1447   5.983   1.929   2.290 -0.2162 -0.0655  3.1474
   11MOL    H28 1448   6.037   2.217   2.166  0.2369 -0.0368 -1.6344
   11MOL    H29 1449   5.906   2.164   2.265  0.9427 -1.4281  0.9892
   11MOL    C30 1450   5.782   2.150   2.041 -0.3938  0.0572 -0.1512
   11MOL    C31 1451   5.723   2.095   1.914 -1.0305  0.6866  0.4492
   11MOL    O32 1452   5.643   1.983   1.937 -0.3738  0.2519  0.5469
   11MOL    H33 1453   5.718   2.120   2.124  0.4262  0.6013  0.6863
   11MOL    H34 1454   5.793   2.258   2.037  1.0116 -0.1001 -0.7860
   11MOL    H35 1455   5.808   2.077   1.848 -0.8029 -1.7204  1.3453
   11MOL    H36 1456   5.666   2.168   1.857  0.4906  0.5775 -1.2543
   11MOL    C37 1457   5.510   1.986   1.885 -0.1319  0.6449  0.1884
   11MOL    C38 1458   5.407   2.062   1.960  0.0759  0.0741 -0.3643
   11MOL    O39 1459   5.408   2.201   1.925 -0.0150  0.5119  0.2242
   11MOL    H40 1460   5.510   2.012   1.779 -0.1056  0.9322  0.2573
   11MOL    H41 1461   5.468   1.887   1.897  1.8988 -0.6918 -3.0158
   11MOL    H42 1462   5.433   2.051   2.065  1.8965  1.8204 -0.6011
   11MOL    H43 1463   5.307   2.019   1.951  0.6851 -1.5296  0.4488
   11MOL    C44 1464   5.312   2.229   1.826 -0.2024  0.1858  0.1302
   11MOL    C45 1465   5.182   2.267   1.893  0.1451 -0.3777  0.3440
   11MOL    O46 1466   5.086   2.325   1.805 -0.7697  0.2355 -0.3715
   11MOL    H47 1467   5.347   2.305   1.756  3.8963 -1.6991  0.0297
   11MOL    H48 1468   5.294   2.143   1.762  1.2283 -0.3172  0.3841
   11MOL    H49 1469   5.201   2.331   1.979 -0.8316 -2.9052  2.4972
   11MOL    H50 1470   5.147   2.173   1.934  1.3545 -0.7119  0.6196
   11MOL    C51 1471   4.979   2.390   1.872 -0.0182  0.3484 -0.8258
   11MOL    C52 1472   4.888   2.474   1.783 -0.2846  0.2692 -0.1844
   11MOL    O53 1473   4.930   2.610   1.759  0.5511  0.0593 -0.7752
   11MOL    H54 1474   4.916   2.315   1.919 -0.0029  0.4601 -0.6286
   11MOL    H55 1475   5.014   2.451   1.955 -3.8199  0.5368  0.7145
   11MOL    H56 1476   4.790   2.475   1.830  0.5499 -0.5368  1.6022
   11MOL    H57 1477   4.868   2.422   1.690 -2.6214  1.5284 -0.4278
   11MOL    C58 1478   4.836   2.709   1.804  0.3831 -0.1115  0.5959
   11MOL    C59 1479   4.889   2.844   1.771 -0.2757  0.4226 -0.0978
   11MOL    O60 1480   5.026   2.876   1.794 -0.4603  0.8256  0.0093
   11MOL    H61 1481   4.741   2.696   1.751  0.1662  2.2142  0.3640
   11MOL    H62 1482   4.817   2.701   1.911  0.0463 -0.4564  0.5139
   11MOL    H63 1483   4.827   2.918   1.822  2.1341  1.4255  1.4856
   11MOL    H64 1484   4.872   2.863   1.665  0.4132 -0.2199 -0.3232
   11MOL    C65 1485   5.064   2.868   1.931 -0.0538  0.4659 -0.0628
   11MOL    C66 1486   5.179   2.943   1.979  0.4929  0.1183 -0.6543
   11MOL    O67 1487   5.140   3.078   2.001  0.3086 -0.5188  0.1740
   11MOL    H68 1488   4.976   2.893   1.990  0.3892 -1.1052  1.3391
   11MOL    H69 1489   5.084   2.762   1.950 -2.4039 -0.0561 -0.2955
   11MOL    H70 1490   5.262   2.939   1.909 -0.7127  0.3672 -2.1357
   11MOL    H71 1491   5.210   2.908   2.077  0.1833  0.4208 -0.4454
   11MOL    C72 1492   5.247   3.166   2.035  0.3355  0.2076  0.4077
   11MOL    C73 1493   5.186   3.306   2.072  0.0032  0.2594  0.0560
   11MOL    O74 1494   5.144   3.319   2.209 -0.1570 -0.1190 -0.9844
   11MOL    H75 1495   5.312   3.116   2.107 -0.9494  0.0185  1.4736
   11MOL    H76 1496   5.313   3.174   1.949 -2.0020 -0.5512 -1.5403
   11MOL    H77 1497   5.112   3.344   2.002 -0.4783  3.4058  2.1627
   11MOL    H78 1498   5.262   3.385   2.066 -0.4791  0.9292  2.3271
   11MOL    C79 1499   5.012   3.266   2.234 -0.2871  0.3438  0.2175
   11MOL    C80 1500   4.905   3.311   2.129  0.1665 -0.3678 -0.1328
   11MOL    O81 1501   4.784   3.287   2.183  0.5412 -0.2159  0.5708
   11MOL    H82 1502   5.019   3.158   2.242 -1.0562  0.2575 -0.2883
   11MOL    H83 1503   4.988   3.296   2.336 -0.2655  0.8805  0.0649
   11MOL    H84 1504   4.920   3.243   2.044 -0.3583 -0.6977  0.0367
   11MOL    H85 1505   4.915   3.414   2.097  0.1594 -0.0197  0.9840
   11MOL    C86 1506   4.675   3.321   2.096  0.0491  0.0185 -0.2749
   11MOL    C87 1507   4.638   3.469   2.095 -0.4022 -0.3546  0.8025
   11MOL    O88 1508   4.716   3.533   1.990  0.3980 -0.1173  0.0170
   11MOL    H89 1509   4.685   3.272   1.999  1.1345 -0.8211  0.2574
   11MOL    H90 1510   4.593   3.279   2.155  0.5970  2.5441  2.3784
   11MOL    H91 1511   4.656   3.520   2.189  1.2227  0.8762 -0.1363
   11MOL    H92 1512   4.534   3.467   2.063 -0.4554 -0.6031  0.9941
   11MOL    C93 1513   4.665   3.658   1.957 -0.6503 -0.0282  0.3993
   11MOL    C94 1514   4.728   3.679   1.815  0.0263  0.5531  0.5339
   11MOL    O95 1515   4.655   3.600   1.730 -0.0016 -0.8369 -0.0877
   11MOL    H96 1516   4.556   3.657   1.959 -0.6503  0.1931  3.7680
   11MOL    H97 1517   4.702   3.730   2.031 -1.9223  0.4541  0.5839
   11MOL    H98 1518   4.831   3.644   1.812 -0.2284 -0.2244  0.8328
   11MOL    H99 1519   4.712   3.786   1.795 -0.6386  0.3979  0.2262
   11MOL   C100 1520   4.704   3.607   1.598  0.1513 -0.4608 -0.3920
   11MOL   C101 1521   4.606   3.559   1.502  0.5110  0.3698  0.1629
   11MOL   O102 1522   4.518   3.664   1.462  0.5974 -0.2300  0.9181
   11MOL   H103 1523   4.730   3.707   1.564  2.8892 -0.3651  1.7963
   11MOL   H104 1524   4.794   3.548   1.579  0.0555 -1.2769  1.5586
   11MOL   H105 1525   4.556   3.465   1.526  1.1078  0.0800  0.2813
   11MOL   H106 1526   4.662   3.529   1.413  0.5949 -0.1561  0.3868
   11MOL   C107 1527   4.443   3.614   1.349 -0.7409 -0.6090 -0.5522
   11MOL   C108 1528   4.391   3.729   1.266  0.6063 -0.5956 -0.5416
   11MOL   O109 1529   4.493   3.782   1.179  0.1086  0.3191  0.3200
   11MOL   H110 1530   4.494   3.535   1.294  1.0877 -0.7932  1.3510
   11MOL   H111 1531   4.354   3.567   1.390 -0.1913 -0.5609  0.7110
   11MOL   H112 1532   4.344   3.811   1.321  0.6812 -2.2533  2.0240
   11MOL   H113 1533   4.320   3.677   1.202 -0.3009 -0.9621  0.7505
   11MOL   C114 1534   4.620   3.821   1.236 -0.4856  0.6424  0.1502
   11MOL   C115 1535   4.707   3.877   1.120  1.0209  0.3848 -0.2596
   11MOL   O116 1536   4.695   4.013   1.098 -0.0848 -0.1397 -0.3386
   11MOL   H117 1537   4.606   3.902   1.307 -3.8814  1.1072 -0.9485
   11MOL   H118 1538   4.677   3.738   1.278  1.0407  1.0260 -1.1044
   11MOL   H119 1539   4.699   3.816   1.030  2.5235 -2.3629  1.3844
   11MOL   H120 1540   4.809   3.863   1.158  1.2542  0.3139 -0.8983
   11MOL   C121 1541   4.565   4.042   1.049 -0.5002 -0.2306  0.3136
   11MOL   C122 1542   4.550   4.185   1.008 -0.1066 -0.9954  0.9204
   11MOL   O123 1543   4.415   4.202   0.965  0.0756 -0.1592 -0.2920
   11MOL   H124 1544   4.546   3.964   0.975  2.4563  0.9516 -1.7622
   11MOL   H125 1545   4.487   4.027   1.123  0.7425 -1.0083  1.4731
   11MOL   H126 1546   4.608   4.217   0.922 -1.6072 -0.0084  0.2537
   11MOL   H127 1547   4.577   4.251   1.091 -1.5180 -0.9696  1.3724
   11MOL   C128 1548   4.389   4.338   0.922 -0.3571  0.1268 -0.0422
   11MOL   C129 1549   4.268   4.341   0.824  0.2450  0.1796  0.3417
   11MOL   O130 1550   4.154   4.342   0.909 -0.2604 -0.3653  0.0243
   11MOL   H131 1551   4.360   4.395   1.010  1.0497  0.3488  0.2904
   11MOL   H132 1552   4.476   4.391   0.883 -0.2612 -0.9031 -1.2482
   11MOL   H133 1553   4.271   4.251   0.762 -0.3521  0.9736 -0.8564
   11MOL   H134 1554   4.269   4.430   0.760  3.1098 -0.0081  0.0772
   11MOL   C135 1555   4.109   4.475   0.939 -0.6175  0.8202  0.1508
   11MOL   C136 1556   3.985   4.473   1.022 -0.1926  0.1546 -0.0319
   11MOL   O137 1557   3.948   4.600   1.058 -0.4265  0.1853  0.7735
   11MOL   H138 1558   4.183   4.527   1.000 -0.3434  0.6614 -0.0463
   11MOL   H139 1559   4.086   4.525   0.845 -0.8454  1.3425  0.4763
   11MOL   H140 1560   4.011   4.419   1.113  0.7914  0.6419 -0.0207
   11MOL   H141 1561   3.905   4.422   0.969  0.6773 -0.2871 -0.9211
   11MOL   H142 1562   3.944   4.652   0.979 -0.6083  0.0829  0.7163
   12MOL     C1 1563   5.800   5.876   1.602  0.2572  0.2878  0.2645
   12MOL     C2 1564   5.851   5.838   1.733 -0.4042 -0.0458  0.0284
   12MOL     O3 1565   5.828   5.701   1.751 -0.0103 -0.0496  0.3671
   12MOL     H4 1566   5.701   5.839   1.576  1.2859 -2.0100 -0.5402
   12MOL     H5 1567   5.863   5.830   1.526  0.1358  0.0680  0.2986
   12MOL     H6 1568   5.793   5.899   1.802 -2.0078 -0.2418 -1.1140
   12MOL     H7 1569   5.959   5.857   1.740 -0.5185  0.4821  0.4397
   12MOL     H8 1570   5.809   5.981   1.572 -0.3890  0.1229 -0.5457
   12MOL     C9 1571   5.891   5.671   1.879  0.3094 -0.2925 -0.5139
   12MOL    C10 1572   5.899   5.521   1.916 -0.6028 -0.0865 -0.5197
   12MOL    O11 1573   5.777   5.470   1.954 -0.7722 -0.4025 -0.0013
   12MOL    H12 1574   5.994   5.707   1.875  0.1140  0.2444 -0.7510
   12MOL    H13 1575   5.840   5.729   1.955  0.4241  0.1455 -0.7697
   12MOL    H14 1576   5.970   5.491   1.993 -1.7514 -0.3119  0.4887
   12MOL    H15 1577   5.948   5.471   1.833  1.3822  0.9877 -0.0084
   12MOL    C16 1578   5.690   5.435   1.840  0.4973  0.2670  0.3132
   12MOL    C17 1579   5.578   5.349   1.883  0.0968 -0.2331 -0.4383
   12MOL    O18 1580   5.482   5.332   1.779 -0.2638  0.3591  0.2251
   12MOL    H19 1581   5.654   5.526   1.793 -2.0625 -0.5873  0.5402
   12MOL    H20 1582   5.753   5.389   1.764 -0.0931 -0.8530  0.4854
   12MOL    H21 1583   5.537   5.392   1.974  2.2002 -0.0465  0.4471
   12MOL    H22 1584   5.617   5.250   1.904 -2.4494 -0.5646  3.1040
   12MOL    C23 1585   5.524   5.252   1.673  0.1698 -0.0935 -0.6621
   12MOL    C24 1586   5.413   5.232   1.568 -0.2698 -0.1050  0.3587
   12MOL    O25 1587   5.312   5.148   1.629 -0.6320 -0.0181  0.1580
   12MOL    H26 1588   5.609   5.306   1.630  1.1799  0.0911  1.5087
   12MOL    H27 1589   5.554   5.153   1.707  0.1817 -0.4629 -1.7177
   12MOL    H28 1590   5.453   5.189   1.477 -0.6803  0.6389 -0.1758
   12MOL    H29 1591   5.375   5.328   1.535  2.9098  0.2476 -2.5576
   12MOL    C30 1592   5.225   5.087   1.531  0.4866 -0.1585 -0.2546
   12MOL    C31 1593   5.152   5.199   1.450 -0.0793  0.0720 -0.5496
   12MOL    O32 1594   5.220   5.228   1.334  0.1001  0.3030  0.5708
   12MOL    H33 1595   5.297   5.025   1.477 -0.1507  0.4119 -1.8038
   12MOL    H34 1596   5.151   5.022   1.576  1.5029  1.0511  3.2998
   12MOL    H35 1597   5.155   5.286   1.516  0.0777 -0.2283 -0.1536
   12MOL    H36 1598   5.049   5.180   1.422 -0.3691  1.1435 -0.2222
   12MOL    C37 1599   5.157   5.329   1.248  0.5462  0.2888  0.0338
   12MOL    C38 1600   5.188   5.479   1.289  0.1020  0.5668  0.0990
   12MOL    O39 1601   5.108   5.509   1.401  0.1210 -0.5213 -0.5441
   12MOL    H40 1602   5.218   5.319   1.158 -1.0712 -0.9293 -0.9322
   12MOL    H41 1603   5.057   5.291   1.228  0.4291  1.0072 -0.8072
   12MOL    H42 1604   5.174   5.548   1.205 -0.7930  2.2090  1.5648
   12MOL    H43 1605   5.294   5.492   1.313 -0.6323  2.6403  2.4301
   12MOL    C44 1606   5.128   5.620   1.486  0.2927  0.6039  0.7699
   12MOL    C45 1607   5.012   5.631   1.589  0.5938 -0.1024 -0.1098
   12MOL    O46 1608   4.893   5.657   1.519 -0.6166 -0.3497 -0.3460
   12MOL    H47 1609   5.219   5.607   1.544 -0.1459 -0.1534  1.3009
   12MOL    H48 1610   5.135   5.714   1.432 -1.7113  0.5139  0.3185
   12MOL    H49 1611   5.050   5.707   1.657 -0.0899 -0.7478  1.0044
   12MOL    H50 1612   5.002   5.537   1.642 -0.3747  1.0083  1.7329
   12MOL    C51 1613   4.785   5.676   1.604  0.2930 -0.2324  0.4910
   12MOL    C52 1614   4.671   5.712   1.512  0.1250  0.4285  0.1100
   12MOL    O53 1615   4.606   5.831   1.548 -0.2054  0.0044 -0.3807
   12MOL    H54 1616   4.759   5.585   1.658 -1.1192 -0.0742  0.0934
   12MOL    H55 1617   4.806   5.748   1.683  0.0725  0.9288 -0.4930
   12MOL    H56 1618   4.603   5.628   1.499  0.5672  0.1042 -0.1442
   12MOL    H57 1619   4.715   5.734   1.415  1.3541 -0.2875  0.4863
   12MOL    C58 1620   4.536   5.899   1.446  0.0624 -1.0480 -0.1591
   12MOL    C59 1621   4.464   6.029   1.494 -0.1504  0.1545  0.2541
   12MOL    O60 1622   4.539   6.097   1.600 -0.1339 -0.3243 -0.4442
   12MOL    H61 1623   4.601   5.928   1.363 -1.7847  2.3776 -0.4648
   12MOL    H62 1624   4.470   5.820   1.408  2.1185 -2.3993 -1.0473
   12MOL    H63 1625   4.358   6.012   1.508 -0.2663  1.5651  1.2100
   12MOL    H64 1626   4.459   6.093   1.406  0.3942 -0.6331 -0.3564
   12MOL    C65 1627   4.518   6.240   1.610 -0.1294  0.1243 -0.1394
   12MOL    C66 1628   4.367   6.283   1.640 -0.0048  0.1476 -0.1451
   12MOL    O67 1629   4.299   6.300   1.513 -0.1145  0.1351  0.0679
   12MOL    H68 1630   4.571   6.260   1.703  1.5363  0.4810 -1.1326
   12MOL    H69 1631   4.570   6.279   1.522 -0.7768 -0.1885 -0.6586
   12MOL    H70 1632   4.351   6.372   1.700  3.0080  0.4863  0.2053
   12MOL    H71 1633   4.324   6.206   1.704 -0.0914  0.0246 -0.3476
   12MOL    C72 1634   4.165   6.331   1.527 -0.8656 -0.2958  0.1978
   12MOL    C73 1635   4.069   6.237   1.608 -0.1396  0.0194 -1.6968
   12MOL    O74 1636   4.076   6.272   1.746 -0.3014  0.5727  0.1900
   12MOL    H75 1637   4.152   6.438   1.545  1.5224 -0.2632  2.0437
   12MOL    H76 1638   4.146   6.306   1.423 -0.9201  0.4356  0.0323
   12MOL    H77 1639   4.090   6.132   1.587  2.8979  0.1125  0.4952
   12MOL    H78 1640   3.969   6.249   1.567 -0.3994 -0.9922 -1.3786
   12MOL    C79 1641   3.982   6.204   1.821 -0.3819 -0.1933  0.6066
   12MOL    C80 1642   3.984   6.287   1.947 -0.2035 -0.1836  0.8098
   12MOL    O81 1643   3.899   6.225   2.036  0.4218 -0.1139 -0.1220
   12MOL    H82 1644   3.883   6.204   1.776 -0.2248  2.1252  0.1951
   12MOL    H83 1645   4.010   6.102   1.849  2.0438  0.2958  0.0869
   12MOL    H84 1646   3.950   6.386   1.916  0.1805  0.0080  1.0005
   12MOL    H85 1647   4.081   6.299   1.995  0.8913 -0.5204 -1.2592
   12MOL    C86 1648   3.853   6.309   2.134 -0.3415 -0.0193 -0.3660
   12MOL    C87 1649   3.779   6.219   2.240 -0.2604 -0.3898  0.3964
   12MOL    O88 1650   3.672   6.293   2.302  0.6089  0.5244 -0.4641
   12MOL    H89 1651   3.929   6.375   2.176  0.2147  0.0545 -1.4679
   12MOL    H90 1652   3.779   6.374   2.090 -0.7132 -0.3971 -0.3049
   12MOL    H91 1653   3.848   6.193   2.321 -1.8609 -0.3649  1.8079
   12MOL    H92 1654   3.744   6.131   2.187 -0.9392 -0.2969  0.6856
   12MOL    C93 1655   3.718   6.402   2.384  0.5296 -0.4642  0.7087
   12MOL    C94 1656   3.615   6.496   2.451  0.7509 -0.0967  0.9266
   12MOL    O95 1657   3.562   6.582   2.348  0.0549 -0.2159 -0.2980
   12MOL    H96 1658   3.769   6.350   2.465  1.8689 -0.1761  0.0648
   12MOL    H97 1659   3.790   6.461   2.328 -0.4081 -1.2549 -1.3938
   12MOL    H98 1660   3.672   6.553   2.525 -0.7469 -0.8880  2.7506
   12MOL    H99 1661   3.536   6.440   2.501  0.1785  0.9695  1.2320
   12MOL   C100 1662   3.423   6.549   2.316  0.6811  0.2778  0.2785
   12MOL   C101 1663   3.363   6.644   2.210 -0.3832 -0.5874  0.4419
   12MOL   O102 1664   3.307   6.768   2.265 -0.4798 -0.5096 -0.8134
   12MOL   H103 1665   3.431   6.443   2.295  2.3640  0.7575 -1.7473
   12MOL   H104 1666   3.359   6.559   2.404 -1.9706  2.3123 -1.8023
   12MOL   H105 1667   3.298   6.590   2.142 -1.0146  2.3908 -1.4517
   12MOL   H106 1668   3.445   6.674   2.145 -1.4039 -1.7879 -1.4260
   12MOL   C107 1669   3.245   6.846   2.164  0.6662  0.0148 -0.2964
   12MOL   C108 1670   3.171   6.957   2.242  0.6744  0.5369  0.5961
   12MOL   O109 1671   3.092   7.043   2.157 -0.3668 -0.1976  0.9273
   12MOL   H110 1672   3.319   6.883   2.094 -1.7556  0.8621 -2.5044
   12MOL   H111 1673   3.173   6.783   2.111  1.6414 -1.6956  0.3534
   12MOL   H112 1674   3.253   7.015   2.284  1.4702 -0.0122 -0.1750
   12MOL   H113 1675   3.119   6.903   2.321  0.1510  0.0547 -0.0695
   12MOL   C114 1676   3.040   7.156   2.226 -0.1089 -0.2163 -0.7880
   12MOL   C115 1677   2.926   7.222   2.139 -0.9094  0.6010  0.0776
   12MOL   O116 1678   2.921   7.364   2.156  0.2891  0.1113  0.1934
   12MOL   H117 1679   2.998   7.136   2.325  2.4198  2.2104  0.8455
   12MOL   H118 1680   3.124   7.224   2.236  1.0312 -1.8269  0.6481
   12MOL   H119 1681   2.837   7.165   2.168 -1.2815  1.2820  0.2732
   12MOL   H120 1682   2.955   7.191   2.038  1.5830  0.5189  0.7918
   12MOL   C121 1683   2.809   7.418   2.082 -0.6565  0.3254 -0.0775
   12MOL   C122 1684   2.860   7.442   1.941  0.5170 -0.0465 -0.5070
   12MOL   O123 1685   2.849   7.328   1.858  0.5419 -0.2283  0.0381
   12MOL   H124 1686   2.716   7.362   2.095 -1.7661  1.6880 -1.9589
   12MOL   H125 1687   2.790   7.511   2.135 -3.5275  0.2540 -0.8810
   12MOL   H126 1688   2.961   7.485   1.940 -0.4084  2.1794 -0.4845
   12MOL   H127 1689   2.802   7.515   1.884  0.2955  1.6871  1.8456
   12MOL   C128 1690   2.886   7.352   1.724 -0.1649  0.5944 -0.7793
   12MOL   C129 1691   2.887   7.227   1.638  0.8457 -0.7181 -0.4343
   12MOL   O130 1692   2.970   7.258   1.527 -0.2593 -0.3596  0.2119
   12MOL   H131 1693   2.819   7.415   1.665  0.8831  1.0531 -1.5022
   12MOL   H132 1694   2.983   7.402   1.724  0.7969 -1.1959  0.3720
   12MOL   H133 1695   2.787   7.216   1.596  0.7206  0.7064 -0.5316
   12MOL   H134 1696   2.923   7.139   1.692 -0.5020 -0.1983  1.3452
   12MOL   C135 1697   2.973   7.145   1.444 -0.3058  0.1519 -0.0200
   12MOL   C136 1698   3.094   7.171   1.356 -0.3897  0.0205  0.4716
   12MOL   O137 1699   3.218   7.145   1.434 -0.0612  0.6591 -0.2846
   12MOL   H138 1700   2.996   7.051   1.494  1.3633 -0.7252 -2.3559
   12MOL   H139 1701   2.876   7.135   1.394 -0.4295  3.2997 -0.5173
   12MOL   H140 1702   3.098   7.261   1.295 -0.5574 -1.5188 -1.8430
   12MOL   H141 1703   3.090   7.084   1.292 -1.3492 -0.3551  1.0305
   12MOL   H142 1704   3.227   7.202   1.509 -3.2351  1.9818 -0.8245
   13MOL     C1 1705   6.353   4.773   5.843  0.2671 -0.5185 -0.2872
   13MOL     C2 1706   6.298   4.641   5.794 -0.6697  0.0010 -0.0466
   13MOL     O3 1707   6.180   4.670   5.728 -0.2964  0.3389 -0.1311
   13MOL     H4 1708   6.350   4.858   5.775 -0.2816  0.3320  0.7970
   13MOL     H5 1709   6.452   4.752   5.885  0.1198 -0.5744  0.0319
   13MOL     H6 1710   6.284   4.559   5.865  0.1388  0.3404  0.5050
   13MOL     H7 1711   6.365   4.602   5.717 -0.0950 -1.4802  1.1891
   13MOL     H8 1712   6.284   4.805   5.920  2.1043 -0.4357  1.3685
   13MOL     C9 1713   6.102   4.558   5.682 -0.1027 -0.2938  0.4009
   13MOL    C10 1714   6.014   4.486   5.785 -0.3029  0.1763 -0.1746
   13MOL    O11 1715   5.931   4.579   5.848 -0.9295 -0.4447  0.2652
   13MOL    H12 1716   6.033   4.593   5.605  0.5706  0.2942  0.0561
   13MOL    H13 1717   6.157   4.481   5.627 -2.4783 -1.0329 -1.0035
   13MOL    H14 1718   6.072   4.427   5.855 -0.9705 -0.7505 -0.3995
   13MOL    H15 1719   5.955   4.418   5.724  1.0052 -0.4242 -0.7783
   13MOL    C16 1720   5.850   4.514   5.943 -0.2714 -0.2399 -0.5806
   13MOL    C17 1721   5.787   4.614   6.040  0.2522 -0.5602  0.4640
   13MOL    O18 1722   5.867   4.654   6.151 -0.0366 -1.1766 -0.4300
   13MOL    H19 1723   5.773   4.459   5.890 -1.0280  0.0471  0.2128
   13MOL    H20 1724   5.901   4.438   6.003  0.2968 -1.0585 -2.0839
   13MOL    H21 1725   5.706   4.557   6.087  2.4577 -2.2356  2.3688
   13MOL    H22 1726   5.732   4.698   5.998  1.1141  0.0161  0.4807
   13MOL    C23 1727   5.981   4.725   6.125 -0.7325 -0.0402  0.0064
   13MOL    C24 1728   6.069   4.771   6.242  0.9704  0.4108  0.2032
   13MOL    O25 1729   6.193   4.821   6.200  0.3776 -0.4512 -0.2844
   13MOL    H26 1730   6.046   4.669   6.057  1.5118 -1.6021  3.3077
   13MOL    H27 1731   5.940   4.806   6.066 -0.5119 -0.8191 -1.2352
   13MOL    H28 1732   6.085   4.689   6.312  0.4708  2.1105  2.3814
   13MOL    H29 1733   6.023   4.858   6.289  1.7391 -0.0385  1.8305
   13MOL    C30 1734   6.295   4.805   6.297  0.0296  0.4728  0.2410
   13MOL    C31 1735   6.289   4.923   6.398 -0.1438  0.3487  0.1935
   13MOL    O32 1736   6.201   4.880   6.501  0.6730  0.2069 -0.2353
   13MOL    H33 1737   6.296   4.711   6.353  1.1413 -0.2682 -0.9806
   13MOL    H34 1738   6.388   4.809   6.240 -0.3160  0.0187 -0.3612
   13MOL    H35 1739   6.257   5.017   6.353  1.0172  1.3815  1.4900
   13MOL    H36 1740   6.387   4.940   6.441 -0.4277  0.4775  0.7982
   13MOL    C37 1741   6.183   4.976   6.597 -0.0718  0.0042  0.4702
   13MOL    C38 1742   6.053   5.051   6.567 -0.0260  1.0422 -0.1727
   13MOL    O39 1743   6.086   5.175   6.504  0.4144 -0.4669 -0.1312
   13MOL    H40 1744   6.179   4.909   6.683 -0.0923  0.1438  0.5777
   13MOL    H41 1745   6.258   5.055   6.586  0.0653 -0.2866 -0.7360
   13MOL    H42 1746   5.987   5.053   6.653  0.9654 -0.7911  0.6718
   13MOL    H43 1747   6.004   4.983   6.497  0.4559  0.4753  0.0327
   13MOL    C44 1748   5.963   5.226   6.445  0.6949  0.5095 -0.3272
   13MOL    C45 1749   6.005   5.360   6.378 -0.5287 -0.6940  0.0164
   13MOL    O46 1750   6.030   5.463   6.474  0.8528  0.0978  0.4924
   13MOL    H47 1751   5.929   5.148   6.376  0.0914 -0.6601  1.2653
   13MOL    H48 1752   5.876   5.248   6.506 -0.2940  1.3293 -1.9972
   13MOL    H49 1753   5.919   5.397   6.323 -1.3972 -2.0215  0.4541
   13MOL    H50 1754   6.083   5.342   6.304  0.0894 -0.9471  0.7205
   13MOL    C51 1755   6.111   5.567   6.430 -0.6921  0.3795  0.8795
   13MOL    C52 1756   6.128   5.678   6.528 -0.0954  0.2058 -0.3810
   13MOL    O53 1757   6.254   5.739   6.521 -0.1465 -0.3207  0.2716
   13MOL    H54 1758   6.211   5.531   6.404  0.1375  1.6853  2.1835
   13MOL    H55 1759   6.070   5.608   6.338  0.5427 -0.0751  0.1033
   13MOL    H56 1760   6.103   5.643   6.628  1.2387 -0.0315 -0.1291
   13MOL    H57 1761   6.056   5.759   6.515 -0.1413 -0.0561 -1.8884
   13MOL    C58 1762   6.276   5.848   6.611 -0.4903  0.8473  0.0752
   13MOL    C59 1763   6.258   5.813   6.757  0.0390 -1.0333  0.4481
   13MOL    O60 1764   6.121   5.834   6.797 -0.0241 -0.3763 -0.2543
   13MOL    H61 1765   6.383   5.869   6.601 -0.1609 -0.1430  1.3966
   13MOL    H62 1766   6.215   5.928   6.569  1.4032  2.2788 -0.0483
   13MOL    H63 1767   6.332   5.877   6.805  0.9436 -0.9357 -1.0423
   13MOL    H64 1768   6.299   5.714   6.780  3.2556  0.5675  2.0712
   13MOL    C65 1769   6.110   5.822   6.943 -0.8735 -0.1259 -0.1492
   13MOL    C66 1770   5.962   5.838   6.981 -0.4734 -0.2332  0.0503
   13MOL    O67 1771   5.902   5.719   6.934  0.3256  0.3607 -0.6113
   13MOL    H68 1772   6.144   5.725   6.978  0.4237  0.6561  0.7930
   13MOL    H69 1773   6.170   5.893   6.999 -0.5569 -0.5650  0.0695
   13MOL    H70 1774   5.931   5.909   6.904 -0.1315 -2.6838 -2.4491
   13MOL    H71 1775   5.944   5.868   7.084 -0.6076  0.1766 -0.0929
   13MOL    C72 1776   5.853   5.633   7.036  1.2296  0.7437 -0.4538
   13MOL    C73 1777   5.953   5.568   7.133 -0.7238  0.3127  0.5902
   13MOL    O74 1778   5.978   5.651   7.244 -0.0581 -0.1111  0.3558
   13MOL    H75 1779   5.771   5.679   7.092  1.8681  0.1107  1.0341
   13MOL    H76 1780   5.793   5.551   6.996 -1.0269  0.8545  2.4889
   13MOL    H77 1781   6.049   5.558   7.082 -2.1425 -2.1777 -1.7243
   13MOL    H78 1782   5.926   5.467   7.166 -0.6818 -0.2903 -1.1594
   13MOL    C79 1783   6.059   5.585   7.348  0.3356  0.1223 -0.0033
   13MOL    C80 1784   6.105   5.684   7.458  0.2495  0.2057  0.1141
   13MOL    O81 1785   6.211   5.776   7.424  0.3163 -0.0799 -0.3453
   13MOL    H82 1786   5.988   5.512   7.388 -0.2223 -0.1147 -1.4076
   13MOL    H83 1787   6.149   5.538   7.309 -1.4172 -2.3340 -1.3134
   13MOL    H84 1788   6.138   5.615   7.536 -1.3370 -0.9790 -0.2247
   13MOL    H85 1789   6.023   5.748   7.491  2.0455  2.2191  0.7676
   13MOL    C86 1790   6.161   5.883   7.350  0.6605  0.0871 -0.3393
   13MOL    C87 1791   6.286   5.972   7.324 -0.1448  0.4304  0.2311
   13MOL    O88 1792   6.364   5.923   7.215  0.4232 -0.0439  0.2083
   13MOL    H89 1793   6.117   5.852   7.255 -0.5720 -1.6935  0.8043
   13MOL    H90 1794   6.084   5.939   7.402  1.9318  1.1727  0.4210
   13MOL    H91 1795   6.338   6.005   7.414  2.4539  0.2367 -1.1684
   13MOL    H92 1796   6.255   6.064   7.275 -0.0069 -0.3226 -1.3067
   13MOL    C93 1797   6.492   5.991   7.208 -0.1144 -0.1163 -0.2122
   13MOL    C94 1798   6.588   5.937   7.097  0.2064  0.5068  0.2076
   13MOL    O95 1799   6.637   5.804   7.131 -0.2480 -0.0638  0.1429
   13MOL    H96 1800   6.471   6.097   7.191 -1.9551 -0.4968 -0.3890
   13MOL    H97 1801   6.551   5.993   7.300 -0.5465  0.6212  0.0509
   13MOL    H98 1802   6.675   6.001   7.082  1.0692 -0.5131  0.7190
   13MOL    H99 1803   6.534   5.942   7.003  0.4406 -0.5276  0.0128
   13MOL   C100 1804   6.563   5.697   7.074 -0.0072  0.0474 -0.2420
   13MOL   C101 1805   6.629   5.564   7.101 -0.5342  0.5123 -0.0127
   13MOL   O102 1806   6.626   5.537   7.237 -0.1663  0.6300  0.7009
   13MOL   H103 1807   6.459   5.691   7.108  0.2347  2.4317  0.9910
   13MOL   H104 1808   6.560   5.718   6.967 -1.0727  1.6768  0.0873
   13MOL   H105 1809   6.731   5.559   7.064 -1.2734 -2.4015 -1.8591
   13MOL   H106 1810   6.577   5.484   7.048  0.6588 -0.0877 -0.2853
   13MOL   C107 1811   6.502   5.492   7.282  0.5470  0.0173 -0.2622
   13MOL   C108 1812   6.515   5.427   7.423  0.0222 -0.1762  0.4680
   13MOL   O109 1813   6.558   5.290   7.414  0.1204 -0.3142 -0.3601
   13MOL   H110 1814   6.441   5.580   7.302 -0.9474 -0.6640 -1.6598
   13MOL   H111 1815   6.442   5.419   7.227 -1.8008  0.0037  2.2227
   13MOL   H112 1816   6.415   5.431   7.467  0.4357  0.4043  1.3694
   13MOL   H113 1817   6.570   5.494   7.489 -1.4839  0.5825  0.9844
   13MOL   C114 1818   6.569   5.217   7.536 -0.0176  0.3501 -0.2050
   13MOL   C115 1819   6.617   5.295   7.658  0.7328 -0.5550 -0.4735
   13MOL   O116 1820   6.503   5.357   7.713  0.0822  0.4119  0.2744
   13MOL   H117 1821   6.480   5.159   7.560  0.6713 -0.8092 -0.4092
   13MOL   H118 1822   6.654   5.155   7.509  0.9493  1.8802 -0.7490
   13MOL   H119 1823   6.690   5.364   7.616 -0.2624 -1.1417 -3.2748
   13MOL   H120 1824   6.670   5.235   7.732  1.0902  0.6244  0.2406
   13MOL   C121 1825   6.546   5.447   0.040 -0.3708 -0.6101 -0.5883
   13MOL   C122 1826   6.426   5.509   0.109  0.2874 -0.4274  0.2825
   13MOL   O123 1827   6.355   5.401   0.170  0.0132 -0.4258  0.5121
   13MOL   H124 1828   6.613   5.396   0.110 -0.0084  0.8141  0.1105
   13MOL   H125 1829   6.609   5.519   7.759  1.1002 -1.8598 -0.5869
   13MOL   H126 1830   6.372   5.569   0.035  1.1942  2.3879  1.8324
   13MOL   H127 1831   6.473   5.571   0.185 -1.6372 -0.5309  1.5798
   13MOL   C128 1832   6.312   5.428   0.305 -0.2762  0.4524 -0.2836
   13MOL   C129 1833   6.432   5.421   0.405 -0.2489  0.1850 -0.7302
   13MOL   O130 1834   6.437   5.289   0.460 -0.4425  0.3112  0.5117
   13MOL   H131 1835   6.273   5.530   0.304  0.6350  0.8287  1.6388
   13MOL   H132 1836   6.229   5.367   0.342  0.7223  0.3413  1.8168
   13MOL   H133 1837   6.420   5.489   0.489 -1.4261 -0.4855 -0.3392
   13MOL   H134 1838   6.524   5.446   0.352 -0.6463  0.7820 -1.1433
   13MOL   C135 1839   6.348   5.269   0.566 -0.3304  0.3309  0.1187
   13MOL   C136 1840   6.407   5.151   0.638  0.4509 -0.0610 -0.3255
   13MOL   O137 1841   6.371   5.043   0.555 -0.0281  0.0142  0.3106
   13MOL   H138 1842   6.348   5.353   0.635  0.9655  0.0657  0.4386
   13MOL   H139 1843   6.244   5.250   0.538 -0.7205 -1.3140  2.5019
   13MOL   H140 1844   6.367   5.154   0.739 -1.8072 -0.6983 -1.1695
   13MOL   H141 1845   6.515   5.157   0.656  0.3435  1.9554 -0.3208
   13MOL   H142 1846   6.371   5.074   0.465  1.1939  1.9131  0.9291
   14MOL     C1 1847   3.396   1.197   2.157  0.7553  0.5486  0.0350
   14MOL     C2 1848   3.310   1.214   2.032 -0.0370  0.2503 -0.3706
   14MOL     O3 1849   3.229   1.100   2.010  0.4037  0.3798 -0.1719
   14MOL     H4 1850   3.337   1.188   2.248  0.5619 -1.3118 -0.2679
   14MOL     H5 1851   3.449   1.290   2.179  1.3089  0.0184  0.9259
   14MOL     H6 1852   3.352   1.247   1.937  0.9452 -1.7428 -0.6506
   14MOL     H7 1853   3.242   1.296   2.056 -0.3933 -0.5162  1.3276
   14MOL     H8 1854   3.467   1.115   2.163  0.9759  0.4144 -3.2614
   14MOL     C9 1855   3.150   1.111   1.887 -0.1209  0.0811 -0.1727
   14MOL    C10 1856   3.062   0.980   1.872 -0.2240  0.0104  0.8911
   14MOL    O11 1857   2.945   0.987   1.955  0.6685 -0.2363  0.4044
   14MOL    H12 1858   3.091   1.202   1.876  0.7045  0.4214 -1.9276
   14MOL    H13 1859   3.220   1.100   1.804  2.0072  0.9172  1.4633
   14MOL    H14 1860   3.113   0.886   1.891  0.1118 -0.2994 -1.3661
   14MOL    H15 1861   3.036   0.959   1.768 -1.1461  3.0130  0.4575
   14MOL    C16 1862   2.839   0.891   1.925 -0.5672 -0.8170 -0.2164
   14MOL    C17 1863   2.887   0.743   1.920  0.5218  0.2688 -0.5028
   14MOL    O18 1864   2.920   0.721   1.784  0.7124 -0.0756  0.3390
   14MOL    H19 1865   2.769   0.903   2.008  0.4046  0.6306  0.4025
   14MOL    H20 1866   2.774   0.926   1.844  1.8110  1.7991 -1.0932
   14MOL    H21 1867   2.803   0.681   1.954  0.3543  0.8051  0.0679
   14MOL    H22 1868   2.973   0.723   1.984  0.8319 -2.3081 -1.6476
   14MOL    C23 1869   2.970   0.600   1.753  0.3850  0.2466 -0.2809
   14MOL    C24 1870   3.000   0.571   1.604  0.3034 -0.5988 -0.5180
   14MOL    O25 1871   2.881   0.504   1.553 -0.4791 -0.5271 -0.0312
   14MOL    H26 1872   3.063   0.588   1.809  1.0407 -2.3941 -1.8639
   14MOL    H27 1873   2.891   0.530   1.780 -0.7881  0.7716 -2.2928
   14MOL    H28 1874   3.087   0.506   1.593  1.1197  0.7147 -2.0474
   14MOL    H29 1875   3.023   0.659   1.544  1.4914 -0.6780 -0.1996
   14MOL    C30 1876   2.910   0.419   1.444  0.3583  0.2144  0.3927
   14MOL    C31 1877   2.778   0.370   1.373 -0.1283 -0.9522 -0.7874
   14MOL    O32 1878   2.721   0.469   1.295 -0.1901 -0.6364 -0.5776
   14MOL    H33 1879   2.986   0.464   1.380  0.7010 -0.4819  0.3051
   14MOL    H34 1880   2.958   0.331   1.485 -0.6786  0.1108  1.4112
   14MOL    H35 1881   2.719   0.324   1.451  0.6095 -0.4892  0.0567
   14MOL    H36 1882   2.807   0.286   1.309 -0.2499  0.1698 -2.3555
   14MOL    C37 1883   2.578   0.456   1.274 -0.1887  0.4439 -0.1410
   14MOL    C38 1884   2.564   0.364   1.151  0.1706  0.7950 -1.2015
   14MOL    O39 1885   2.496   0.247   1.203  0.5263  0.5019 -0.5098
   14MOL    H40 1886   2.535   0.413   1.365  1.1146 -2.6537 -0.9301
   14MOL    H41 1887   2.542   0.554   1.241  1.7115  0.4934 -2.2191
   14MOL    H42 1888   2.662   0.342   1.112 -0.5965  0.3358 -2.8958
   14MOL    H43 1889   2.492   0.398   1.076 -0.0275  1.1380 -0.8597
   14MOL    C44 1890   2.485   0.148   1.105 -0.6333 -0.8060  0.4474
   14MOL    C45 1891   2.422   0.019   1.160  0.5884  0.6310 -0.4151
   14MOL    O46 1892   2.280   0.042   1.135 -0.3467  0.1684 -0.0505
   14MOL    H47 1893   2.417   0.183   1.026  0.0438  0.6957  0.5117
   14MOL    H48 1894   2.579   0.121   1.058 -0.2174 -0.2990  0.9889
   14MOL    H49 1895   2.453   0.016   1.265  0.8010  2.9222 -0.3952
   14MOL    H50 1896   2.447   7.703   1.100 -0.3067  0.1350 -0.0925
   14MOL    C51 1897   2.195   7.733   1.216 -0.1401  0.0183  0.3599
   14MOL    C52 1898   2.056   7.738   1.142 -0.2688  0.2955 -0.3028
   14MOL    O53 1899   2.065   7.652   1.029 -0.1968  0.1053 -0.6689
   14MOL    H54 1900   2.240   7.636   1.237 -0.7902 -0.8082 -1.8658
   14MOL    H55 1901   2.185   0.007   1.314  1.0437  0.4759  0.2869
   14MOL    H56 1902   2.041   0.070   1.110  1.9850  1.5948  2.5501
   14MOL    H57 1903   1.968   7.713   1.201 -1.8097  3.0866 -1.3277
   14MOL    C58 1904   2.068   7.512   1.053 -1.1283  0.4770  0.6762
   14MOL    C59 1905   1.931   7.458   1.077  0.9365  0.0201 -0.2852
   14MOL    O60 1906   1.882   7.472   1.207  0.4113  0.1626 -0.3266
   14MOL    H61 1907   2.111   7.466   0.964  1.1070  2.3750  0.7465
   14MOL    H62 1908   2.137   7.487   1.134  2.0355  1.1051 -1.7192
   14MOL    H63 1909   1.938   7.349   1.076 -1.4381 -0.2187  2.7145
   14MOL    H64 1910   1.861   7.485   0.997 -1.0642 -0.1749  1.3532
   14MOL    C65 1911   1.752   7.418   1.236 -0.2338 -0.3836 -0.1800
   14MOL    C66 1912   1.738   7.268   1.203  0.0412  0.2015 -0.2468
   14MOL    O67 1913   1.697   7.259   1.067  0.1297 -0.0745  0.3167
   14MOL    H68 1914   1.740   7.426   1.344 -2.7322 -1.6350 -0.3287
   14MOL    H69 1915   1.683   7.487   1.187  0.8482 -0.7618 -2.3138
   14MOL    H70 1916   1.654   7.239   1.265 -0.8829  1.0360 -1.0882
   14MOL    H71 1917   1.829   7.212   1.224  0.0393 -0.1441 -1.1361
   14MOL    C72 1918   1.622   7.141   1.044 -0.1904 -0.2125  0.3927
   14MOL    C73 1919   1.565   7.138   0.900 -0.4628 -0.0153 -0.6571
   14MOL    O74 1920   1.470   7.239   0.882  0.2791  0.5247  0.9822
   14MOL    H75 1921   1.694   7.059   1.038 -0.2033 -0.2163  0.2729
   14MOL    H76 1922   1.564   7.110   1.130  0.1844 -2.7478 -0.2375
   14MOL    H77 1923   1.523   7.038   0.892 -0.0531 -0.1354 -1.3089
   14MOL    H78 1924   1.646   7.141   0.827  2.0762 -0.1080  2.0790
   14MOL    C79 1925   1.530   7.359   0.833 -0.2862  0.8081 -0.5115
   14MOL    C80 1926   1.441   7.473   0.788 -0.3433  0.5836 -0.0569
   14MOL    O81 1927   1.467   7.510   0.651  0.0587  0.5608 -0.5509
   14MOL    H82 1928   1.598   7.404   0.905 -0.8172 -0.2895  0.6859
   14MOL    H83 1929   1.598   7.339   0.750  0.2980 -1.3674  0.4611
   14MOL    H84 1930   1.446   7.562   0.851 -0.4364  1.0019 -0.6382
   14MOL    H85 1931   1.336   7.449   0.803  0.8757 -3.1406  3.5409
   14MOL    C86 1932   1.370   7.601   0.606  0.4446  0.3793 -0.5196
   14MOL    C87 1933   1.369   7.644   0.460 -0.0961 -0.2822 -0.3099
   14MOL    O88 1934   1.472   7.746   0.428  0.2102  0.2922  0.3032
   14MOL    H89 1935   1.275   7.549   0.617 -0.4439  1.2729 -3.4250
   14MOL    H90 1936   1.376   7.687   0.672 -0.1133  1.7255 -2.1690
   14MOL    H91 1937   1.272   7.688   0.437 -1.5650 -1.8807  2.5128
   14MOL    H92 1938   1.377   7.553   0.401  3.1276  0.4261 -1.0840
   14MOL    C93 1939   1.593   7.697   0.399 -0.0815  0.3378 -0.6052
   14MOL    C94 1940   1.692   0.039   0.378  0.0816 -0.0281  0.5543
   14MOL    O95 1941   1.735   0.053   0.238 -0.0893 -0.0740  0.0411
   14MOL    H96 1942   1.620   7.650   0.493 -0.7967  2.4672  0.7011
   14MOL    H97 1943   1.585   7.620   0.322  0.0518 -1.4887  1.1567
   14MOL    H98 1944   1.778   0.010   0.439  0.1897  0.6841  0.7424
   14MOL    H99 1945   1.658   0.137   0.413 -0.9831 -0.0367 -0.4230
   14MOL   C100 1946   1.854   0.124   0.222  0.4693  0.1583  0.1277
   14MOL   C101 1947   1.884   0.132   0.069 -0.5386 -0.5487 -0.1158
   14MOL   O102 1948   1.787   0.211   0.012  0.0158  0.4868 -0.3175
   14MOL   H103 1949   1.851   0.218   0.277 -1.5027 -0.9226  1.9830
   14MOL   H104 1950   1.929   0.057   0.264 -0.4889 -0.2017  1.3048
   14MOL   H105 1951   1.889   0.027   0.040  0.7227 -0.5921  0.2240
   14MOL   H106 1952   1.985   0.174   0.065 -1.3868  1.5244 -0.8031
   14MOL   C107 1953   1.789   0.212   7.644  0.4345  0.0691 -0.3450
   14MOL   C108 1954   1.864   0.339   7.584 -0.3736 -0.4520  0.0950
   14MOL   O109 1955   2.009   0.328   7.583  0.0878  0.2334 -0.0617
   14MOL   H110 1956   1.829   0.120   7.601 -0.1481 -1.6703  2.6954
   14MOL   H111 1957   1.688   0.223   7.604  0.2281 -1.3079 -0.2229
   14MOL   H112 1958   1.828   0.429   7.634  2.1848 -0.6185  2.3090
   14MOL   H113 1959   1.827   0.354   7.482  0.2630  2.7813  0.2891
   14MOL   C114 1960   2.069   0.452   7.596  0.6588 -0.4673 -0.1325
   14MOL   C115 1961   2.225   0.449   7.589 -0.3112  0.3426  0.8271
   14MOL   O116 1962   2.272   0.575   7.627 -0.5949  0.1355 -0.4844
   14MOL   H117 1963   2.048   0.525   7.518  0.0689  2.1562  2.3844
   14MOL   H118 1964   2.039   0.491   7.693  1.0865  2.3663 -1.0919
   14MOL   H119 1965   2.264   0.435   7.489  1.7338  2.2701  1.3112
   14MOL   H120 1966   2.263   0.374   7.659 -1.7046  1.0649  2.4207
   14MOL   C121 1967   2.415   0.591   7.596  0.3564 -0.2399  0.1192
   14MOL   C122 1968   2.462   0.662   7.725 -0.5459  0.3895  0.4678
   14MOL   O123 1969   2.455   0.578   0.065 -0.3800  0.2617  0.2135
   14MOL   H124 1970   2.478   0.502   7.597  1.3307  0.4483  1.5007
   14MOL   H125 1971   2.424   0.649   7.504  1.6971  4.0748  2.8159
   14MOL   H126 1972   2.408   0.756   7.730 -0.4092  0.5485 -0.9680
   14MOL   H127 1973   2.564   0.697   7.709 -0.9137  1.0155 -0.5127
   14MOL   C128 1974   2.470   0.651   0.188 -0.0723 -0.4743 -0.5349
   14MOL   C129 1975   2.338   0.709   0.237  1.2124  0.3451 -0.3605
   14MOL   O130 1976   2.240   0.607   0.267  0.3932  0.2628 -0.6379
   14MOL   H131 1977   2.521   0.585   0.258 -0.2156  0.7798  0.7928
   14MOL   H132 1978   2.537   0.735   0.174 -1.8538  1.4012  1.6896
   14MOL   H133 1979   2.284   0.786   0.182 -0.6794  2.0212  3.5788
   14MOL   H134 1980   2.366   0.762   0.328  0.3022 -0.1596  0.2171
   14MOL   C135 1981   2.168   0.542   0.170 -0.1627 -0.0954  0.4011
   14MOL   C136 1982   2.058   0.448   0.225  0.0896  0.1761 -0.0243
   14MOL   O137 1983   1.953   0.519   0.279  0.0314 -0.2079 -0.1149
   14MOL   H138 1984   2.132   0.611   0.094 -0.3558  0.7691  1.2753
   14MOL   H139 1985   2.241   0.490   0.108 -0.9957  2.4366 -2.8474
   14MOL   H140 1986   2.103   0.388   0.303  0.0962  1.2154  0.7853
   14MOL   H141 1987   2.020   0.392   0.139 -1.4637  2.3311 -0.7941
   14MOL   H142 1988   1.987   0.585   0.338 -1.9197 -0.1795  1.0356
   15MOL     C1 1989   5.725   6.090   2.775 -0.0883 -0.1101  0.3368
   15MOL     C2 1990   5.829   6.080   2.889 -0.4056 -0.3413 -0.0355
   15MOL     O3 1991   5.780   6.130   3.008 -0.5562 -0.3510  0.0192
   15MOL     H4 1992   5.633   6.033   2.786  1.3594 -2.9376 -1.4683
   15MOL     H5 1993   5.781   6.060   2.686  0.5227 -1.1151  1.0449
   15MOL     H6 1994   5.924   6.131   2.873 -2.0618  2.9663  0.3381
   15MOL     H7 1995   5.859   5.977   2.909  1.3503 -0.0058 -0.8387
   15MOL     H8 1996   5.690   6.190   2.751 -2.9606 -1.5810 -1.8580
   15MOL     C9 1997   5.864   6.137   3.124 -0.8421  0.2833  0.2437
   15MOL    C10 1998   5.814   6.236   3.235 -0.1215 -0.2663  0.0989
   15MOL    O11 1999   5.708   6.176   3.308 -0.1963 -0.0050 -0.0265
   15MOL    H12 2000   5.884   6.036   3.159 -0.6190 -0.3967 -1.7909
   15MOL    H13 2001   5.964   6.169   3.094  0.3223 -3.0590  0.2985
   15MOL    H14 2002   5.784   6.326   3.181  1.1690 -1.4205 -2.6638
   15MOL    H15 2003   5.890   6.266   3.308  0.6766  3.4735 -2.1249
   15MOL    C16 2004   5.666   6.257   3.422  1.0835 -0.0584  0.5314
   15MOL    C17 2005   5.609   6.391   3.379  0.0364 -0.3729  0.1829
   15MOL    O18 2006   5.721   6.482   3.351 -0.2488 -0.0707 -0.3843
   15MOL    H19 2007   5.599   6.196   3.483 -0.5858  2.5329  1.3711
   15MOL    H20 2008   5.745   6.289   3.490  0.4532 -0.1162  1.2954
   15MOL    H21 2009   5.555   6.430   3.466  0.2802 -0.6348  0.4541
   15MOL    H22 2010   5.542   6.384   3.294  1.3041 -1.7190 -0.7286
   15MOL    C23 2011   5.679   6.614   3.329 -0.1354  0.5605 -0.0926
   15MOL    C24 2012   5.801   6.702   3.321  0.5523 -0.3601  0.1171
   15MOL    O25 2013   5.852   6.725   3.450  0.3017 -0.3895 -0.1865
   15MOL    H26 2014   5.617   6.613   3.240 -0.5271 -1.4623  0.1767
   15MOL    H27 2015   5.627   6.645   3.420 -0.8277  0.3618 -0.4179
   15MOL    H28 2016   5.771   6.797   3.276  0.3049 -1.8143 -2.8809
   15MOL    H29 2017   5.866   6.645   3.255  0.2488 -0.6606  0.0789
   15MOL    C30 2018   5.964   6.808   3.445 -0.3007  0.1426 -0.7033
   15MOL    C31 2019   5.964   6.884   3.582  0.7235  0.0564 -0.5088
   15MOL    O32 2020   6.089   6.951   3.588  0.0385 -0.2020  0.3046
   15MOL    H33 2021   6.045   6.736   3.437  0.1429  0.7514 -1.7405
   15MOL    H34 2022   5.971   6.879   3.363  0.9117 -0.2291 -0.9291
   15MOL    H35 2023   5.948   6.808   3.659  2.0359  1.0790  0.7861
   15MOL    H36 2024   5.887   6.961   3.588  2.0342  1.1296  3.5131
   15MOL    C37 2025   6.110   7.025   3.706 -0.1377  0.3738  0.2487
   15MOL    C38 2026   6.235   7.100   3.698  0.1449  0.0684 -0.6128
   15MOL    O39 2027   6.352   7.019   3.675  0.1789 -0.0680 -0.1086
   15MOL    H40 2028   6.022   7.088   3.713  0.4253  1.4754 -1.8063
   15MOL    H41 2029   6.099   6.960   3.792 -2.6415  1.2252  0.5953
   15MOL    H42 2030   6.253   7.152   3.792  0.7910 -1.7256  0.2758
   15MOL    H43 2031   6.229   7.172   3.616 -0.1195 -1.3556 -1.8477
   15MOL    C44 2032   6.400   6.946   3.784  0.1499  0.0970  0.2421
   15MOL    C45 2033   6.551   6.907   3.760 -0.0744 -0.3096 -0.8573
   15MOL    O46 2034   6.620   7.002   3.832 -0.1984  0.4818 -0.4478
   15MOL    H47 2035   6.392   7.007   3.874  1.4110  2.0025 -0.8996
   15MOL    H48 2036   6.333   6.862   3.804 -3.5460  2.7128 -0.7211
   15MOL    H49 2037   6.569   6.894   3.654 -1.4206  1.3411 -1.3147
   15MOL    H50 2038   6.570   6.808   3.801 -1.2147 -0.0694  0.2954
   15MOL    C51 2039   6.760   6.989   3.827 -0.0684 -0.9842  0.0922
   15MOL    C52 2040   6.814   7.034   3.962  0.3163  0.6277  0.2930
   15MOL    O53 2041   6.826   7.177   3.955 -0.5319  0.4933  0.1696
   15MOL    H54 2042   6.788   6.884   3.817 -0.3375 -1.1344  0.9002
   15MOL    H55 2043   6.806   7.054   3.751 -0.9994 -0.5129 -0.0708
   15MOL    H56 2044   6.916   7.001   3.979  0.3574 -0.2420 -1.5636
   15MOL    H57 2045   6.751   7.000   4.045  1.9317  0.3898  1.4475
   15MOL    C58 2046   6.878   7.240   4.065 -0.5815  0.1044 -0.2293
   15MOL    C59 2047   6.872   7.391   4.055  0.2855 -0.3440  0.9349
   15MOL    O60 2048   6.980   7.448   3.975 -0.2099  0.3272 -0.6406
   15MOL    H61 2049   6.828   7.213   4.159 -1.1095  1.2715 -0.1699
   15MOL    H62 2050   6.983   7.212   4.070 -0.8619 -0.8598  0.4396
   15MOL    H63 2051   6.880   7.418   4.160 -0.5176 -2.4164  1.5502
   15MOL    H64 2052   6.770   7.420   4.031 -0.4186 -1.9380  1.9055
   15MOL    C65 2053   6.960   7.447   3.832  0.5385  0.2232  0.5487
   15MOL    C66 2054   7.059   7.534   3.753  0.7944  0.4663  0.5329
   15MOL    O67 2055   7.030   7.671   3.744  0.3926 -0.1134  0.3123
   15MOL    H68 2056   6.963   7.341   3.804  1.5050  0.3569  0.1252
   15MOL    H69 2057   6.860   7.487   3.814  0.3697  0.3792  1.8315
   15MOL    H70 2058   7.069   7.493   3.653 -1.6692  0.4870  0.2577
   15MOL    H71 2059   7.158   7.505   3.789 -0.0785 -0.4643  2.2487
   15MOL    C72 2060   7.115   7.746   3.656  0.7180  0.0991 -0.5407
   15MOL    C73 2061   7.242   0.020   3.728  0.0389 -0.1244 -0.5788
   15MOL    O74 2062   7.330   7.678   3.752  0.4709 -0.6982  0.2787
   15MOL    H75 2063   7.133   7.695   3.562  2.5042 -0.9392  0.3403
   15MOL    H76 2064   7.064   0.064   3.619  0.2514 -1.1012 -2.8665
   15MOL    H77 2065   7.209   0.049   3.828 -1.5395 -3.7042  0.0181
   15MOL    H78 2066   7.295   0.099   3.674 -0.0964 -1.0112 -2.0012
   15MOL    C79 2067   7.449   7.725   3.816  0.0607  0.9941  0.0547
   15MOL    C80 2068   7.551   7.614   3.818 -0.0607  0.3600  0.8480
   15MOL    O81 2069   7.581   7.569   3.685 -0.2928 -0.7900  0.2978
   15MOL    H82 2070   7.502   0.034   3.764  3.2991 -0.6821  0.6368
   15MOL    H83 2071   7.430   7.767   3.915  2.0083  0.4778  0.6725
   15MOL    H84 2072   7.519   7.524   3.870 -0.8256  0.0795 -0.0807
   15MOL    H85 2073   7.646   7.648   3.858  1.4642 -0.6720 -1.7534
   15MOL    C86 2074   7.653   7.447   3.677 -0.2247 -0.3126 -0.1645
   15MOL    C87 2075   0.018   7.445   3.745  0.0089 -0.1460  0.3459
   15MOL    O88 2076   0.004   7.379   3.868  0.1718  0.2122  0.4338
   15MOL    H89 2077   7.588   7.368   3.714 -0.3361 -0.0862  0.1255
   15MOL    H90 2078   7.662   7.431   3.569  2.1633 -0.9520  0.1093
   15MOL    H91 2079   0.076   7.537   3.735  1.4517 -1.1281 -0.4794
   15MOL    H92 2080   0.076   7.377   3.683 -3.9099 -2.4834 -0.9898
   15MOL    C93 2081   0.114   7.387   3.953  0.1553 -0.8792 -0.2980
   15MOL    C94 2082   0.066   7.324   4.087  0.0710  0.4443 -0.2871
   15MOL    O95 2083   0.171   7.274   4.167 -0.3240  0.7403  0.1104
   15MOL    H96 2084   0.194   7.321   3.919  1.1791 -0.0026  0.4112
   15MOL    H97 2085   0.150   7.490   3.954  1.1410 -1.1910 -1.7691
   15MOL    H98 2086   7.764   7.246   4.069 -1.7792  2.1638 -0.3445
   15MOL    H99 2087   0.013   7.406   4.133  1.4703  0.8348  0.6681
   15MOL   C100 2088   0.138   7.184   4.280  0.4376 -0.1182 -0.9361
   15MOL   C101 2089   0.065   7.260   4.388 -0.4015 -0.3904 -0.5889
   15MOL   O102 2090   0.044   7.167   4.500 -0.0824  0.4745 -0.2886
   15MOL   H103 2091   0.085   7.094   4.248  1.8389 -2.0552  1.9485
   15MOL   H104 2092   0.231   7.148   4.323 -0.1983 -0.3481  0.2724
   15MOL   H105 2093   7.736   7.290   4.357  0.0381 -0.7383 -2.3822
   15MOL   H106 2094   0.112   7.351   4.426  0.8000 -1.0981 -0.3933
   15MOL   C107 2095   7.718   7.202   4.593 -0.0188 -0.3951  0.1223
   15MOL   C108 2096   7.733   7.338   4.660 -0.9232 -0.3774 -0.0024
   15MOL   O109 2097   7.689   7.439   4.574  0.1218  0.1208  0.0928
   15MOL   H110 2098   7.628   7.211   4.532  0.7617  1.2988 -0.7891
   15MOL   H111 2099   7.715   7.113   4.657  1.9595 -0.5622  0.0086
   15MOL   H112 2100   0.068   7.358   4.678 -0.8946 -1.8587  1.6495
   15MOL   H113 2101   7.677   7.333   4.753 -1.2792  0.5040 -0.1663
   15MOL   C114 2102   7.694   7.576   4.618  0.1331  0.4019 -0.8538
   15MOL   C115 2103   7.602   7.613   4.736 -0.1314  0.9356  0.4775
   15MOL   O116 2104   7.464   7.575   4.714  0.1821  0.1557  0.0441
   15MOL   H117 2105   0.025   7.609   4.639 -0.4332 -0.1388  3.2755
   15MOL   H118 2106   7.651   7.638   4.540 -2.2983  1.0430  0.9450
   15MOL   H119 2107   7.598   7.718   4.764  0.3554  1.5157 -1.5498
   15MOL   H120 2108   7.647   7.553   4.815  1.1064  0.4431 -0.5842
   15MOL   C121 2109   7.385   7.660   4.632  0.0558 -0.2219 -0.3605
   15MOL   C122 2110   7.241   7.621   4.624 -0.2875 -0.1598  0.1854
   15MOL   O123 2111   7.235   7.516   4.527 -0.2883 -0.3796  0.6565
   15MOL   H124 2112   7.381   7.760   4.677  1.1237 -0.1377 -0.4383
   15MOL   H125 2113   7.428   7.673   4.533 -2.6819  0.5206 -1.5143
   15MOL   H126 2114   7.180   7.699   4.580  1.8037  0.8897 -0.9524
   15MOL   H127 2115   7.209   7.592   4.724  0.4310 -1.4769  0.0552
   15MOL   C128 2116   7.245   7.382   4.575  0.2401 -0.4882 -0.0447
   15MOL   C129 2117   7.173   7.291   4.470  0.9297  0.1707  0.1853
   15MOL   O130 2118   7.264   7.237   4.384 -0.2474  0.6275 -0.0629
   15MOL   H131 2119   7.347   7.361   4.606  0.6796 -0.8056 -1.6629
   15MOL   H132 2120   7.185   7.364   4.664  1.0202  1.0108  0.7971
   15MOL   H133 2121   7.095   7.348   4.419  2.6690  0.5732 -2.1113
   15MOL   H134 2122   7.130   7.200   4.512 -1.0755  1.2591  0.5728
   15MOL   C135 2123   7.304   7.343   4.286 -0.7456 -0.3887  0.1607
   15MOL   C136 2124   7.371   7.269   4.172 -0.3344  0.1734 -0.0746
   15MOL   O137 2125   7.503   7.240   4.217 -0.2468  0.7775  0.1226
   15MOL   H138 2126   7.219   7.397   4.244  0.8584  2.0899 -0.0093
   15MOL   H139 2127   7.372   7.416   4.330  0.1853 -0.3843 -1.2610
   15MOL   H140 2128   7.372   7.334   4.084  1.3120 -0.5591 -0.6048
   15MOL   H141 2129   7.316   7.179   4.144  2.6939 -1.9090  0.4706
   15MOL   H142 2130   7.490   7.171   4.280 -2.5058 -0.7020 -1.8912
   16MOL     C1 2131   1.328   0.941   5.198  0.1104 -0.3011  0.4733
   16MOL     C2 2132   1.425   1.050   5.142 -0.3869 -0.2980 -0.3636
   16MOL     O3 2133   1.345   1.168   5.126  0.0123 -0.0084 -0.5756
   16MOL     H4 2134   1.298   0.960   5.301 -0.7384  0.8400  0.0240
   16MOL     H5 2135   1.376   0.844   5.187  2.7665  1.1553 -1.3496
   16MOL     H6 2136   1.467   1.019   5.046 -0.0139 -1.0421  0.0344
   16MOL     H7 2137   1.497   1.066   5.222  0.1495  0.3451 -0.9743
   16MOL     H8 2138   1.234   0.938   5.142  1.1522 -1.3261 -1.2913
   16MOL     C9 2139   1.415   1.280   5.072  0.5190 -0.1198 -0.3538
   16MOL    C10 2140   1.410   1.393   5.172  0.2966 -0.3090  0.0835
   16MOL    O11 2141   1.521   1.380   5.263 -0.0131  0.4903 -0.1693
   16MOL    H12 2142   1.521   1.269   5.050 -0.1730 -0.5623 -3.7834
   16MOL    H13 2143   1.370   1.323   4.983 -1.0798 -1.3287 -0.1578
   16MOL    H14 2144   1.318   1.396   5.230  1.0498  0.1471  1.2659
   16MOL    H15 2145   1.409   1.491   5.126  1.5098 -0.7358 -0.8903
   16MOL    C16 2146   1.521   1.463   5.381  0.0899  0.6666 -0.3114
   16MOL    C17 2147   1.422   1.403   5.489  0.3188  0.4011  0.5465
   16MOL    O18 2148   1.433   1.477   5.610  0.1916  0.7036  0.3187
   16MOL    H19 2149   1.624   1.460   5.416 -0.5064  1.2357  1.5313
   16MOL    H20 2150   1.484   1.562   5.351  0.5539  0.8227 -0.3753
   16MOL    H21 2151   1.438   1.296   5.500  1.0347  0.6924  2.5898
   16MOL    H22 2152   1.319   1.413   5.454  0.9441  1.3780 -1.0595
   16MOL    C23 2153   1.542   1.440   5.687  0.3173 -0.2421  0.2280
   16MOL    C24 2154   1.579   1.561   5.780  0.0983 -0.0862 -0.4985
   16MOL    O25 2155   1.486   1.556   5.882  0.2978 -1.2037  0.4981
   16MOL    H26 2156   1.520   1.357   5.754  0.3149  0.5031  1.1535
   16MOL    H27 2157   1.634   1.410   5.636 -0.4599 -2.0518 -0.1691
   16MOL    H28 2158   1.574   1.655   5.725 -2.5703  0.4877  0.6660
   16MOL    H29 2159   1.681   1.555   5.819 -0.4591 -0.9509  0.8623
   16MOL    C30 2160   1.542   1.510   6.004  0.2889  0.0114  0.1837
   16MOL    C31 2161   1.424   1.522   6.107 -0.1809 -0.9856  0.1012
   16MOL    O32 2162   1.419   1.658   6.159 -0.2929 -0.3507 -0.5121
   16MOL    H33 2163   1.576   1.408   5.983  0.3943  0.4411 -1.7508
   16MOL    H34 2164   1.620   1.571   6.050 -0.7982  0.0847  1.9627
   16MOL    H35 2165   1.431   1.457   6.194 -0.6737  0.4524  1.2396
   16MOL    H36 2166   1.325   1.499   6.068  0.7251 -1.4239 -2.0204
   16MOL    C37 2167   1.317   1.676   6.256  0.0573  0.2124  0.2515
   16MOL    C38 2168   1.305   1.818   6.312  1.0224  0.0077 -0.9585
   16MOL    O39 2169   1.399   1.855   6.402  0.0234 -0.4522 -0.3214
   16MOL    H40 2170   1.225   1.634   6.217  3.1120 -1.2554 -5.9216
   16MOL    H41 2171   1.343   1.604   6.334 -2.1365  1.0878  1.8656
   16MOL    H42 2172   1.213   1.828   6.370  1.4678 -1.0452 -0.0478
   16MOL    H43 2173   1.294   1.883   6.225  1.0213  0.1769 -0.8307
   16MOL    C44 2174   1.390   1.790   6.529  0.3729 -0.1145 -0.1204
   16MOL    C45 2175   1.434   1.888   6.640  0.0159 -0.3878  0.1181
   16MOL    O46 2176   1.510   1.828   6.747 -0.5245  0.5692 -0.2809
   16MOL    H47 2177   1.294   1.741   6.545  2.9097 -5.1880  0.2410
   16MOL    H48 2178   1.463   1.712   6.509  0.5702  0.0688 -0.1137
   16MOL    H49 2179   1.339   1.909   6.689  0.0695 -1.9498  0.8995
   16MOL    H50 2180   1.481   1.982   6.609 -1.8128  0.7956  0.8483
   16MOL    C51 2181   1.646   1.814   6.710  0.4071 -0.0463 -0.4205
   16MOL    C52 2182   1.739   1.845   6.824  0.0218  0.5221 -0.1993
   16MOL    O53 2183   1.725   1.757   6.932 -0.0916 -0.0624 -0.0856
   16MOL    H54 2184   1.663   1.713   6.671  0.4449 -1.6080  3.4285
   16MOL    H55 2185   1.671   1.879   6.626 -1.4133  1.1061 -0.0842
   16MOL    H56 2186   1.717   1.942   6.868  0.3317  0.8167 -0.6900
   16MOL    H57 2187   1.836   1.844   6.775 -0.2971 -1.5763 -0.8553
   16MOL    C58 2188   1.828   1.787   7.025 -0.2918 -0.0304  0.1918
   16MOL    C59 2189   1.816   1.693   7.146 -0.8661  0.6436  0.2073
   16MOL    O60 2190   1.851   1.565   7.100  0.3361 -0.1644  0.0524
   16MOL    H61 2191   1.930   1.777   6.986 -0.0460  0.8565  0.6166
   16MOL    H62 2192   1.804   1.884   7.067 -0.1309 -0.1698  0.6071
   16MOL    H63 2193   1.718   1.699   7.192 -0.9977  1.8587 -0.2096
   16MOL    H64 2194   1.880   1.726   7.228  1.7363 -1.0936 -1.0594
   16MOL    C65 2195   1.851   1.473   7.207 -0.1522 -0.1346  0.3635
   16MOL    C66 2196   1.865   1.326   7.159 -0.1380 -0.2151 -0.3512
   16MOL    O67 2197   1.994   1.294   7.114 -0.4517 -0.0867  0.0848
   16MOL    H68 2198   1.935   1.488   7.275  0.9247 -0.5042 -0.8740
   16MOL    H69 2199   1.752   1.465   7.252 -1.0180  0.3951 -1.4335
   16MOL    H70 2200   1.786   1.305   7.087 -0.4216 -0.3750 -0.0022
   16MOL    H71 2201   1.852   1.264   7.248  3.4606 -1.6102 -0.7163
   16MOL    C72 2202   1.993   1.192   7.024  0.1060  0.6551  0.7185
   16MOL    C73 2203   2.135   1.135   7.020 -0.3808 -0.4435  0.0863
   16MOL    O74 2204   2.222   1.214   6.943 -0.1879 -0.0155  0.6765
   16MOL    H75 2205   1.920   1.117   7.055 -2.1374  3.0173  1.3333
   16MOL    H76 2206   1.953   1.232   6.931  0.3706 -0.6566  0.0227
   16MOL    H77 2207   2.130   1.033   6.981 -2.4682 -0.1272 -0.5423
   16MOL    H78 2208   2.176   1.139   7.121  1.7740  2.7418 -0.8447
   16MOL    C79 2209   2.201   1.192   6.804 -0.1566 -0.5731  0.2685
   16MOL    C80 2210   2.260   1.298   6.716 -0.4254  0.0312  0.2220
   16MOL    O81 2211   2.394   1.256   6.676  0.6772  0.1068  0.2566
   16MOL    H82 2212   2.251   1.099   6.780  1.8434  0.0729  1.8126
   16MOL    H83 2213   2.097   1.187   6.771  0.5338 -0.3651 -2.0391
   16MOL    H84 2214   2.258   1.395   6.765  0.2737 -0.4800  1.2655
   16MOL    H85 2215   2.205   1.303   6.622  0.8306 -1.4805 -0.6066
   16MOL    C86 2216   2.492   1.297   6.771 -0.0184  0.1686 -0.3498
   16MOL    C87 2217   2.638   1.311   6.728 -0.9479  0.5248  0.1875
   16MOL    O88 2218   2.641   1.400   6.617  0.5666  0.0489  0.6090
   16MOL    H89 2219   2.468   1.393   6.816  0.7875 -0.0035  0.4707
   16MOL    H90 2220   2.478   1.222   6.850 -0.9324  0.6554 -0.0454
   16MOL    H91 2221   2.678   1.216   6.693 -1.1684  0.7556 -0.6857
   16MOL    H92 2222   2.699   1.361   6.804 -0.8885 -2.3272  2.0757
   16MOL    C93 2223   2.767   1.399   6.552 -0.4531  0.0289  0.3515
   16MOL    C94 2224   2.875   1.489   6.609 -0.6322  0.1555 -0.5726
   16MOL    O95 2225   2.958   1.428   6.713  0.7181 -0.2158  0.0544
   16MOL    H96 2226   2.800   1.295   6.550  0.0437  0.2028 -1.4216
   16MOL    H97 2227   2.740   1.438   6.454 -2.0768  0.2394  0.8574
   16MOL    H98 2228   2.829   1.585   6.634 -2.6202 -1.1235  0.7836
   16MOL    H99 2229   2.943   1.518   6.529 -1.3718 -1.5587 -1.8583
   16MOL   C100 2230   3.062   1.507   6.749  0.5209  0.4425  0.4108
   16MOL   C101 2231   3.118   1.470   6.894  0.5544 -0.2113 -0.4509
   16MOL   O102 2232   3.210   1.359   6.875  0.2898  0.3379 -0.5102
   16MOL   H103 2233   3.134   1.510   6.668  0.5515  0.8848  0.4505
   16MOL   H104 2234   3.018   1.606   6.760  1.6541  0.8314  1.7239
   16MOL   H105 2235   3.041   1.456   6.970 -1.7874 -2.3195 -3.1055
   16MOL   H106 2236   3.175   1.552   6.938  1.2486 -0.2430 -1.2685
   16MOL   C107 2237   3.230   1.281   6.997  0.0850 -0.0056  1.2614
   16MOL   C108 2238   3.332   1.339   7.096 -0.4717  0.7588  0.6573
   16MOL   O109 2239   3.289   1.465   7.146 -0.2365  0.2772 -0.3656
   16MOL   H110 2240   3.133   1.267   7.045 -1.0769  3.2497  0.0040
   16MOL   H111 2241   3.270   1.187   6.960  2.1326  1.6411 -0.8509
   16MOL   H112 2242   3.424   1.356   7.039 -0.8544  1.4302  0.2321
   16MOL   H113 2243   3.366   1.266   7.169  1.4290  1.2211  0.2589
   16MOL   C114 2244   3.222   1.453   7.268  0.4218  0.6695 -0.3037
   16MOL   C115 2245   3.129   1.579   7.277  0.6683  0.0246  0.1262
   16MOL   O116 2246   3.181   1.668   7.379 -0.0101  0.2681 -0.0293
   16MOL   H117 2247   3.156   1.366   7.272  0.7433  0.5251  3.6504
   16MOL   H118 2248   3.288   1.437   7.354  1.0370 -1.1716 -1.0758
   16MOL   H119 2249   3.032   1.544   7.311 -0.0671  2.0776  0.2127
   16MOL   H120 2250   3.099   1.625   7.182  0.6490 -1.4902 -0.6245
   16MOL   C121 2251   3.106   1.784   7.397 -0.5808  0.4930  0.0675
   16MOL   C122 2252   3.002   1.756   7.503 -0.2121  0.4891 -0.0365
   16MOL   O123 2253   2.891   1.728   7.426 -0.0485 -0.2136  0.1069
   16MOL   H124 2254   3.171   1.861   7.440  0.4604 -0.1331 -0.3634
   16MOL   H125 2255   3.059   1.835   7.313  1.2823  0.0652 -1.2684
   16MOL   H126 2256   2.992   1.839   7.573  0.1242 -0.2807  0.9465
   16MOL   H127 2257   3.025   1.669   7.565 -0.8597  0.3089 -0.0483
   16MOL   C128 2258   2.783   1.678   7.505 -0.4936 -0.4903  0.0611
   16MOL   C129 2259   2.715   1.782   7.600 -0.1037 -0.7747  0.2783
   16MOL   O130 2260   2.789   1.779   7.717  0.0974 -0.3520  0.2315
   16MOL   H131 2261   2.709   1.646   7.432 -0.0340 -2.0992  0.2813
   16MOL   H132 2262   2.805   1.587   7.561 -0.6869  0.6748  2.1010
   16MOL   H133 2263   2.612   1.760   7.626 -0.7731  1.4153 -0.3991
   16MOL   H134 2264   2.718   1.881   7.554 -0.1507 -1.9034 -2.2074
   16MOL   C135 2265   2.770   1.889   0.035  1.0642 -0.7368  0.4429
   16MOL   C136 2266   2.804   1.811   0.169 -0.0509 -1.0611 -0.9831
   16MOL   O137 2267   2.788   1.902   0.284 -0.0737  0.3345 -0.6940
   16MOL   H138 2268   2.838   1.967   7.770  0.3736  0.1155  0.9618
   16MOL   H139 2269   2.667   1.925   0.037  0.6577 -1.8628  0.1539
   16MOL   H140 2270   2.907   1.775   0.176  1.4086  3.0080 -0.2212
   16MOL   H141 2271   2.734   1.729   0.185 -0.4204 -0.5290  0.1621
   16MOL   H142 2272   2.850   1.972   0.278 -0.0142  0.3534  0.0806
   17MOL     C1 2273   4.380   5.291   0.172 -0.1534 -0.6028  0.2962
   17MOL     C2 2274   4.515   5.351   0.153  0.4587  0.7879 -0.3298
   17MOL     O3 2275   4.522   5.481   0.202  0.1223 -0.4769  0.4943
   17MOL     H4 2276   4.305   5.350   0.120  1.1186  1.2059  0.4639
   17MOL     H5 2277   4.358   5.287   0.279  0.5722 -0.1895  0.4613
   17MOL     H6 2278   4.541   5.347   0.047 -0.9846  2.3060 -0.7572
   17MOL     H7 2279   4.586   5.283   0.201  1.2426 -0.3913 -3.0252
   17MOL     H8 2280   4.373   5.192   0.128 -2.8110  0.1090 -1.0250
   17MOL     C9 2281   4.644   5.546   0.150 -0.4726  0.3336 -0.2483
   17MOL    C10 2282   4.763   5.496   0.228 -0.0285 -0.6569 -1.2129
   17MOL    O11 2283   4.811   5.389   0.148 -0.7239 -0.1067  0.1792
   17MOL    H12 2284   4.658   5.528   0.043  1.9028 -0.4722  0.1666
   17MOL    H13 2285   4.644   5.654   0.157 -1.6441  0.2490  1.2966
   17MOL    H14 2286   4.742   5.475   0.333  0.9994  1.6960 -0.4931
   17MOL    H15 2287   4.842   5.572   0.233 -0.5203 -0.2778  1.1188
   17MOL    C16 2288   4.905   5.302   0.199 -0.9621  0.1089  0.5056
   17MOL    C17 2289   4.948   5.207   0.091 -0.4642  0.1710 -0.2935
   17MOL    O18 2290   4.837   5.123   0.051  0.4871  0.0828 -0.1956
   17MOL    H19 2291   4.993   5.360   0.230 -0.8379  0.0318  0.2984
   17MOL    H20 2292   4.879   5.250   0.292  1.6348 -0.1137  1.1501
   17MOL    H21 2293   5.022   5.138   0.132 -0.6336 -0.5051 -1.1120
   17MOL    H22 2294   4.999   5.268   0.016 -0.2446  0.6814  0.2656
   17MOL    C23 2295   4.827   5.103   7.683 -0.5146  0.0676  0.5092
   17MOL    C24 2296   4.915   4.990   7.620  0.6224 -0.0526 -0.0789
   17MOL    O25 2297   4.879   4.849   7.649  0.0018  0.4183 -0.3595
   17MOL    H26 2298   4.725   5.067   7.671 -0.2779 -0.3248 -0.4496
   17MOL    H27 2299   4.837   5.200   7.633 -1.3134 -0.1066 -0.0039
   17MOL    H28 2300   5.020   5.016   7.637  0.4782  0.8011 -0.4654
   17MOL    H29 2301   4.895   4.997   7.513  0.8311 -1.9820 -0.2586
   17MOL    C30 2302   4.887   4.810   0.008 -1.1482 -0.3772  0.0857
   17MOL    C31 2303   4.861   4.658   0.016  0.1400 -0.4721  0.3152
   17MOL    O32 2304   4.721   4.631   7.766 -0.1506  0.1442 -0.0814
   17MOL    H33 2305   4.981   4.837   0.056 -0.6754 -1.0908 -0.4185
   17MOL    H34 2306   4.813   4.853   0.075 -0.6079 -0.9878  1.0873
   17MOL    H35 2307   4.890   4.622   0.115  2.2211  0.7150  0.1666
   17MOL    H36 2308   4.920   4.609   7.710 -0.4165  0.1018 -0.4781
   17MOL    C37 2309   4.645   4.591   0.116 -0.2665  0.4120 -0.0576
   17MOL    C38 2310   4.631   4.699   0.228  0.1154 -0.4755  0.7514
   17MOL    O39 2311   4.555   4.801   0.152 -0.4103 -0.0846  0.5693
   17MOL    H40 2312   4.542   4.566   0.092 -0.0546 -0.8087  0.2845
   17MOL    H41 2313   4.690   4.503   0.162 -1.5724  0.2443  0.9386
   17MOL    H42 2314   4.733   4.728   0.250 -0.0917 -0.6788  2.0084
   17MOL    H43 2315   4.591   4.655   0.319 -2.7159 -2.2196 -1.2442
   17MOL    C44 2316   4.496   4.901   0.232 -0.4623  0.2359  0.4304
   17MOL    C45 2317   4.604   4.986   0.305 -0.3962 -0.3153 -0.2858
   17MOL    O46 2318   4.652   4.914   0.425 -0.7975 -0.5392  0.3122
   17MOL    H47 2319   4.438   4.964   0.164 -0.7075 -0.1752  0.2622
   17MOL    H48 2320   4.424   4.860   0.302 -0.0393 -0.5916  0.3929
   17MOL    H49 2321   4.555   5.080   0.329  1.5550  1.0630 -1.5739
   17MOL    H50 2322   4.686   5.001   0.235 -0.7025  1.0819 -0.3562
   17MOL    C51 2323   4.743   4.984   0.509  0.0487 -0.0237 -0.5605
   17MOL    C52 2324   4.813   4.880   0.604 -0.7113  0.0023  0.1099
   17MOL    O53 2325   4.863   4.767   0.534  0.0660 -0.4747  0.5277
   17MOL    H54 2326   4.822   5.045   0.465 -0.7199 -0.0851 -2.0523
   17MOL    H55 2327   4.692   5.047   0.581  0.7011 -1.1217  0.8902
   17MOL    H56 2328   4.738   4.849   0.676 -0.2572 -0.1670  0.5146
   17MOL    H57 2329   4.897   4.917   0.663  0.8836 -1.4961 -1.1596
   17MOL    C58 2330   4.975   4.797   0.449  0.6101  0.1850  0.2209
   17MOL    C59 2331   5.021   4.667   0.387 -0.2795  0.3621  0.0818
   17MOL    O60 2332   5.133   4.701   0.311  0.3608 -0.1351 -0.3707
   17MOL    H61 2333   4.957   4.869   0.370  2.2443  0.6077  0.2088
   17MOL    H62 2334   5.054   4.847   0.505  1.9007 -1.0122 -0.4816
   17MOL    H63 2335   4.950   4.613   0.324 -0.6205 -1.4948  2.0172
   17MOL    H64 2336   5.045   4.592   0.462  0.2432  1.3111  0.8703
   17MOL    C65 2337   5.219   4.596   0.290  0.0130  0.3003  0.2446
   17MOL    C66 2338   5.173   4.501   0.175  0.1262  0.3518 -0.3586
   17MOL    O67 2339   5.054   4.427   0.210  0.1455 -0.3706  0.0606
   17MOL    H68 2340   5.302   4.642   0.237 -0.6144 -0.2602 -1.2465
   17MOL    H69 2341   5.249   4.542   0.379 -1.2065  0.5733  0.8366
   17MOL    H70 2342   5.252   4.428   0.161  0.8974  1.1598 -0.3168
   17MOL    H71 2343   5.163   4.551   0.078 -0.4655  0.1330 -0.4115
   17MOL    C72 2344   5.020   4.305   0.154 -0.2447 -0.6113 -0.0078
   17MOL    C73 2345   4.892   4.250   0.223 -0.7191 -0.9383  0.6607
   17MOL    O74 2346   4.933   4.161   0.322 -0.4321  0.3699  0.1852
   17MOL    H75 2347   4.991   4.337   0.055  0.0015 -1.2174 -0.2789
   17MOL    H76 2348   5.099   4.231   0.154 -1.0394 -1.4750  0.1883
   17MOL    H77 2349   4.837   4.191   0.150 -1.7838  0.1177  0.5827
   17MOL    H78 2350   4.828   4.326   0.269  0.1017  0.2270 -0.0946
   17MOL    C79 2351   4.825   4.092   0.392  0.3881  0.4823 -0.0210
   17MOL    C80 2352   4.873   3.965   0.466 -0.0218  0.3487  0.3089
   17MOL    O81 2353   4.905   3.859   0.376 -0.4861  0.4897 -0.0314
   17MOL    H82 2354   4.797   4.156   0.476  2.1759  2.0800 -0.6200
   17MOL    H83 2355   4.735   4.082   0.332 -0.0900 -0.5606  0.8496
   17MOL    H84 2356   4.799   3.928   0.537 -1.3675  1.1140 -0.6894
   17MOL    H85 2357   4.966   3.982   0.520 -0.3962 -1.6866  1.6733
   17MOL    C86 2358   4.926   3.730   0.430 -0.5731 -0.2087 -0.1827
   17MOL    C87 2359   4.931   3.634   0.306  0.3290  0.5570 -0.5142
   17MOL    O88 2360   5.052   3.620   0.242  0.5146 -0.4778  0.2484
   17MOL    H89 2361   5.017   3.725   0.489  0.2208 -2.0835 -1.5252
   17MOL    H90 2362   4.841   3.708   0.493  0.5520  1.2932  1.9218
   17MOL    H91 2363   4.847   3.654   0.240 -0.0635 -2.9624 -1.1582
   17MOL    H92 2364   4.909   3.540   0.357 -0.6930  0.6232 -0.8207
   17MOL    C93 2365   5.096   3.745   0.187 -0.2225 -0.2914  0.0755
   17MOL    C94 2366   5.242   3.728   0.140  0.0069 -0.5636 -0.3704
   17MOL    O95 2367   5.304   3.679   0.258  0.0171 -0.7638  0.0510
   17MOL    H96 2368   5.040   3.796   0.109 -1.5980  2.2620  2.6104
   17MOL    H97 2369   5.102   3.825   0.262  2.4909  2.3044 -2.7632
   17MOL    H98 2370   5.283   3.822   0.105  1.2394 -0.7085  0.6318
   17MOL    H99 2371   5.236   3.656   0.058 -2.2276 -1.9744  0.9895
   17MOL   C100 2372   5.449   3.652   0.240  0.4039  0.2985 -0.1172
   17MOL   C101 2373   5.522   3.788   0.235  0.6131  0.4164  0.0039
   17MOL   O102 2374   5.629   3.761   0.318  0.0993 -0.1315  0.3181
   17MOL   H103 2375   5.486   3.589   0.321  0.3961  0.6539  0.1617
   17MOL   H104 2376   5.461   3.580   0.160 -0.6666 -1.3748  1.2013
   17MOL   H105 2377   5.461   3.867   0.280 -1.6534 -0.9541 -0.5773
   17MOL   H106 2378   5.547   3.811   0.132 -0.3491 -1.0250 -0.5717
   17MOL   C107 2379   5.722   3.862   0.331 -0.6289 -0.3930 -0.5336
   17MOL   C108 2380   5.828   3.812   0.426  0.6581 -0.1015  0.0071
   17MOL   O109 2381   5.917   3.726   0.357 -0.1773 -0.3464 -0.3194
   17MOL   H110 2382   5.764   3.896   0.236  2.0993  0.9286  1.0893
   17MOL   H111 2383   5.678   3.951   0.375  1.8800  0.1460  0.9636
   17MOL   H112 2384   5.792   3.779   0.524 -1.1515 -0.9286 -0.9040
   17MOL   H113 2385   5.896   3.896   0.440  0.7965  0.0193 -1.3752
   17MOL   C114 2386   5.882   3.584   0.386 -0.4326  0.7289  0.1168
   17MOL   C115 2387   6.008   3.493   0.347  0.5107 -0.4061  0.7776
   17MOL   O116 2388   6.091   3.463   0.453  0.3128 -0.3041 -0.3134
   17MOL   H117 2389   5.842   3.561   0.485 -0.3392  0.7700  0.1654
   17MOL   H118 2390   5.793   3.566   0.325  0.7067 -1.3716 -0.9756
   17MOL   H119 2391   6.068   3.538   0.268 -0.1600  2.0647  1.6287
   17MOL   H120 2392   5.960   3.402   0.312 -0.8842  0.6798 -0.2224
   17MOL   C121 2393   6.191   3.363   0.425 -0.0913  0.0630  0.1477
   17MOL   C122 2394   6.269   3.338   0.552  0.0634 -0.5756 -0.0998
   17MOL   O123 2395   6.389   3.264   0.532  0.0787  0.3373 -0.2904
   17MOL   H124 2396   6.145   3.270   0.392 -0.2954  0.0204  0.5390
   17MOL   H125 2397   6.260   3.391   0.346 -1.8991 -0.3365 -1.6114
   17MOL   H126 2398   6.201   3.288   0.621 -1.2351 -0.1129 -1.0293
   17MOL   H127 2399   6.282   3.428   0.612 -0.8129  1.2091 -2.4730
   17MOL   C128 2400   6.495   3.350   0.507 -0.0591 -0.0885  0.2931
   17MOL   C129 2401   6.616   3.259   0.478 -0.1624 -0.8017  0.2601
   17MOL   O130 2402   6.669   3.201   0.600  0.5233 -0.1867 -0.0684
   17MOL   H131 2403   6.469   3.419   0.427 -1.1634  1.3203  1.8360
   17MOL   H132 2404   6.516   3.408   0.597  1.6203  0.4021 -0.3981
   17MOL   H133 2405   6.684   3.317   0.416 -0.8091 -1.3958 -1.0362
   17MOL   H134 2406   6.585   3.179   0.411  2.3978  0.2760 -2.3035
   17MOL   C135 2407   6.724   3.070   0.583  0.1794 -0.9677  0.4917
   17MOL   C136 2408   6.756   3.004   0.718 -0.2461 -0.2452  0.3927
   17MOL   O137 2409   6.848   3.085   0.791 -0.2399 -0.1323 -0.0890
   17MOL   H138 2410   6.656   3.015   0.518  1.4069 -0.7955 -0.9664
   17MOL   H139 2411   6.810   3.085   0.519 -0.7293  0.6694 -0.3947
   17MOL   H140 2412   6.783   2.900   0.702 -1.6331 -0.5764  0.1100
   17MOL   H141 2413   6.660   2.999   0.770  0.4355 -2.2659  1.5134
   17MOL   H142 2414   6.812   3.172   0.805  0.8208  1.1274 -4.5158
   18MOL     C1 2415   4.168   0.368   2.876  0.2620 -0.0436  1.1083
   18MOL     C2 2416   4.234   0.507   2.886 -0.0947  0.0622  0.0569
   18MOL     O3 2417   4.243   0.534   3.022 -0.8456 -0.0942  0.0484
   18MOL     H4 2418   4.071   0.357   2.924 -0.9479  2.7321 -0.5562
   18MOL     H5 2419   4.234   0.293   2.920  1.7336  1.1235  0.9375
   18MOL     H6 2420   4.178   0.582   2.829 -0.0083 -0.2828 -0.4877
   18MOL     H7 2421   4.332   0.492   2.842 -1.0931 -1.2583 -1.7845
   18MOL     H8 2422   4.146   0.347   2.771 -1.1313 -0.9859  1.5655
   18MOL     C9 2423   4.296   0.665   3.044 -0.4556  0.3325 -0.1587
   18MOL    C10 2424   4.297   0.693   3.193  0.1486 -0.2176 -0.5811
   18MOL    O11 2425   4.190   0.771   3.247  0.3182 -0.1422  0.3023
   18MOL    H12 2426   4.393   0.668   2.995 -0.6028 -1.7938 -0.6192
   18MOL    H13 2427   4.242   0.744   2.992  0.2729 -1.2106 -3.4049
   18MOL    H14 2428   4.380   0.756   3.224  0.1288 -1.3574  1.8656
   18MOL    H15 2429   4.318   0.604   3.252 -0.9718 -1.7797 -2.4700
   18MOL    C16 2430   4.061   0.725   3.228 -0.0037 -0.7618  0.1754
   18MOL    C17 2431   3.950   0.782   3.315  0.4414 -0.1870 -0.6010
   18MOL    O18 2432   3.967   0.705   3.424 -0.6661  0.4267 -0.3355
   18MOL    H19 2433   4.027   0.733   3.124  0.5121 -0.4011  0.0356
   18MOL    H20 2434   4.064   0.618   3.247  0.5403 -0.7455  0.1676
   18MOL    H21 2435   3.850   0.774   3.273  0.1053  0.1957  0.1056
   18MOL    H22 2436   3.979   0.885   3.339  0.1974 -0.2506 -0.0257
   18MOL    C23 2437   3.864   0.731   3.523  0.2987  0.2384 -0.1329
   18MOL    C24 2438   3.896   0.648   3.644 -0.0251  0.3895 -0.3860
   18MOL    O25 2439   3.878   0.506   3.624  0.0779  0.3639 -0.3113
   18MOL    H26 2440   3.880   0.832   3.561  1.9980 -0.5956  1.4683
   18MOL    H27 2441   3.765   0.708   3.484 -0.1349 -0.1643  1.1894
   18MOL    H28 2442   3.823   0.671   3.721 -1.4489  2.5394 -2.3210
   18MOL    H29 2443   3.993   0.673   3.687  0.3376 -1.2652 -0.1950
   18MOL    C30 2444   3.945   0.431   3.722  1.1409  0.1036 -0.2548
   18MOL    C31 2445   4.092   0.404   3.671  0.4325 -1.0607 -0.3559
   18MOL    O32 2446   4.185   0.507   3.706  0.7183 -0.1348 -0.4146
   18MOL    H33 2447   3.943   0.489   3.815  0.4210 -1.5631  0.8033
   18MOL    H34 2448   3.887   0.339   3.734 -0.1049  0.3861 -3.7645
   18MOL    H35 2449   4.097   0.385   3.564  2.1452 -0.3359 -0.4156
   18MOL    H36 2450   4.116   0.309   3.720  2.9153 -0.3137 -0.0566
   18MOL    C37 2451   4.320   0.470   3.685  0.2917  0.0779 -0.6299
   18MOL    C38 2452   4.377   0.446   3.548  0.6026 -0.7016 -0.4586
   18MOL    O39 2453   4.374   0.311   3.522  0.3064  1.0428 -0.1805
   18MOL    H40 2454   4.377   0.553   3.726  1.5131 -1.2565  0.4356
   18MOL    H41 2455   4.356   0.384   3.742  1.8468 -0.4385 -2.3608
   18MOL    H42 2456   4.483   0.470   3.557  0.3836 -0.4690  1.5796
   18MOL    H43 2457   4.324   0.507   3.475  0.0998  1.7080  1.8654
   18MOL    C44 2458   4.407   0.272   3.385 -0.4818 -0.8369  0.1393
   18MOL    C45 2459   4.293   0.290   3.278 -0.8782 -0.0752 -1.0439
   18MOL    O46 2460   4.173   0.237   3.322 -0.0452 -0.0232  0.7173
   18MOL    H47 2461   4.497   0.319   3.346 -0.6766  0.1000  0.7945
   18MOL    H48 2462   4.446   0.170   3.386  0.2195 -0.5830 -0.3457
   18MOL    H49 2463   4.316   0.243   3.182  2.9618 -1.5119  0.5158
   18MOL    H50 2464   4.283   0.395   3.248 -1.2924  0.1577 -0.0916
   18MOL    C51 2465   4.062   0.267   3.251 -0.1440  0.1708 -0.5890
   18MOL    C52 2466   3.960   0.179   3.314 -0.2723 -1.1521  0.5501
   18MOL    O53 2467   3.985   0.041   3.280  0.1580  0.1171  0.1712
   18MOL    H54 2468   4.042   0.373   3.264 -0.9981  0.0337 -0.7258
   18MOL    H55 2469   4.073   0.249   3.144  1.2893 -1.5844 -0.1775
   18MOL    H56 2470   3.862   0.205   3.275  0.4387 -1.2787 -1.3870
   18MOL    H57 2471   3.955   0.190   3.422 -3.1996  0.0525  0.3393
   18MOL    C58 2472   3.861   7.740   3.255  0.3317 -0.2575  0.2940
   18MOL    C59 2473   3.834   7.744   3.104 -0.8458 -0.7088 -0.6606
   18MOL    O60 2474   3.936   7.674   3.026 -0.2286  0.4415  0.1304
   18MOL    H61 2475   3.879   7.639   3.291 -0.9644 -0.6710 -0.1975
   18MOL    H62 2476   3.780   7.771   3.320 -1.8433  1.8431 -3.2292
   18MOL    H63 2477   3.828   0.077   3.072  1.2554 -0.3578 -0.0014
   18MOL    H64 2478   3.741   7.701   3.066 -0.7825 -1.5332  0.0888
   18MOL    C65 2479   3.964   7.739   2.904  0.0173 -0.0350 -0.3684
   18MOL    C66 2480   4.069   7.646   2.837 -0.1226  0.3188  0.2161
   18MOL    O67 2481   4.031   7.607   2.700 -0.0033 -0.2810 -0.0219
   18MOL    H68 2482   3.873   7.731   2.844 -2.1281 -0.4219  2.8578
   18MOL    H69 2483   3.996   0.072   2.903  0.9790 -0.3267 -0.7777
   18MOL    H70 2484   4.081   7.566   2.910  0.7275  1.0571  0.8924
   18MOL    H71 2485   4.161   7.704   2.835  0.0414  0.0440 -0.3286
   18MOL    C72 2486   4.128   7.516   2.637  0.4255 -0.0779  0.3323
   18MOL    C73 2487   4.081   7.444   2.520  0.0483 -0.0643  0.1055
   18MOL    O74 2488   4.057   7.527   2.406 -0.4899  0.0255  0.7985
   18MOL    H75 2489   4.215   7.575   2.609 -0.4021  0.6431 -0.7656
   18MOL    H76 2490   4.150   7.451   2.721  0.2582 -0.2176  0.2681
   18MOL    H77 2491   3.983   7.400   2.540  0.6249 -0.5792  1.8254
   18MOL    H78 2492   4.153   7.366   2.498 -0.3231 -0.3362 -0.1496
   18MOL    C79 2493   3.989   7.465   2.303 -0.3684 -0.0541 -0.8872
   18MOL    C80 2494   4.022   7.527   2.164  0.2649 -0.8796  0.4936
   18MOL    O81 2495   4.129   7.466   2.095 -0.1865  0.5688 -0.0374
   18MOL    H82 2496   4.032   7.365   2.304 -0.6847 -0.1979 -1.3968
   18MOL    H83 2497   3.882   7.452   2.321  0.2502 -1.7503  1.8119
   18MOL    H84 2498   4.029   7.636   2.170 -2.4310 -0.7592  2.3365
   18MOL    H85 2499   3.934   7.503   2.105  0.6793 -1.8365  0.2624
   18MOL    C86 2500   4.249   7.529   2.129  0.0406  0.3838  0.4562
   18MOL    C87 2501   4.368   7.463   2.052  0.1879  0.3361 -0.4066
   18MOL    O88 2502   4.459   7.402   2.142 -0.2516 -0.0111  0.2169
   18MOL    H89 2503   4.249   7.635   2.103 -0.8905  0.6638  1.5555
   18MOL    H90 2504   4.261   7.530   2.237  1.7838  2.2518  0.2703
   18MOL    H91 2505   4.419   7.552   2.016  2.2377 -0.2117  1.0685
   18MOL    H92 2506   4.336   7.394   1.974 -2.3931  0.6795  0.2909
   18MOL    C93 2507   4.582   7.369   2.086 -0.1283 -0.4465 -0.6874
   18MOL    C94 2508   4.679   7.298   2.188 -0.0005  0.0073  0.2131
   18MOL    O95 2509   4.814   7.298   2.141  0.3842 -0.3902 -0.1010
   18MOL    H96 2510   4.557   7.331   1.987  1.1895  0.2361 -1.3069
   18MOL    H97 2511   4.638   7.460   2.064 -1.0259  0.0800 -0.8117
   18MOL    H98 2512   4.649   7.194   2.201  1.8246 -0.8230 -1.8849
   18MOL    H99 2513   4.687   7.360   2.277 -0.9241 -1.0340  1.0432
   18MOL   C100 2514   4.823   7.218   2.024 -0.0975  0.2931 -0.0998
   18MOL   C101 2515   4.961   7.161   2.032  0.5265  0.1026  0.6096
   18MOL   O102 2516   4.971   7.059   2.129 -0.0342 -0.0999 -0.4920
   18MOL   H103 2517   4.747   7.141   2.015  2.2022 -1.7557 -3.2481
   18MOL   H104 2518   4.811   7.281   1.937 -0.1721 -0.6244 -0.7629
   18MOL   H105 2519   5.046   7.227   2.047  2.4172 -1.6213 -2.1570
   18MOL   H106 2520   4.970   7.125   1.929 -0.9408 -1.2472  0.9293
   18MOL   C107 2521   5.090   6.990   2.154 -0.3411  0.0525 -0.0295
   18MOL   C108 2522   5.084   6.920   2.290  0.1384  0.2963 -0.3295
   18MOL   O109 2523   5.033   6.785   2.279  0.1409  0.0099  0.4583
   18MOL   H110 2524   5.109   6.929   2.066 -0.3997  0.1651 -0.1201
   18MOL   H111 2525   5.180   7.050   2.150  1.9546 -3.3072 -0.9249
   18MOL   H112 2526   5.032   6.982   2.363  0.6158  1.4335 -0.9385
   18MOL   H113 2527   5.183   6.918   2.334 -1.6601  1.1890  3.9353
   18MOL   C114 2528   5.047   6.712   2.403 -0.2760 -0.0305 -0.3091
   18MOL   C115 2529   4.968   6.580   2.386 -0.2710 -0.2515 -0.5942
   18MOL   O116 2530   5.044   6.473   2.330  0.0951 -0.3272 -0.2384
   18MOL   H117 2531   5.153   6.690   2.419 -0.8861 -1.3361  2.1389
   18MOL   H118 2532   5.009   6.766   2.490 -1.4988 -0.0271 -0.8395
   18MOL   H119 2533   4.883   6.578   2.318 -0.5127 -2.4196 -0.2789
   18MOL   H120 2534   4.936   6.556   2.487  2.9070 -1.1298  0.2835
   18MOL   C121 2535   4.967   6.353   2.323  0.4563  0.1393 -0.5086
   18MOL   C122 2536   5.038   6.217   2.302 -0.2680  0.7696 -0.1552
   18MOL   O123 2537   5.054   6.209   2.163 -0.1656 -0.3481 -0.0196
   18MOL   H124 2538   4.911   6.343   2.416 -0.3629  2.3579 -0.7287
   18MOL   H125 2539   4.891   6.366   2.246 -1.1977 -1.0402  0.8864
   18MOL   H126 2540   4.963   6.139   2.320  0.2678  0.5466  1.1358
   18MOL   H127 2541   5.126   6.190   2.360 -0.5083 -0.6446 -0.4251
   18MOL   C128 2542   5.146   6.115   2.120  0.6774  0.0931 -0.3379
   18MOL   C129 2543   5.137   6.088   1.969 -0.8970 -0.0821 -0.0861
   18MOL   O130 2544   5.000   6.063   1.933  0.7113  0.1710  0.2094
   18MOL   H131 2545   5.252   6.136   2.134  0.4777 -0.2842  1.8468
   18MOL   H132 2546   5.116   6.025   2.175 -0.1351  0.4203 -0.2430
   18MOL   H133 2547   5.199   6.003   1.942 -0.3210 -0.3034  1.8978
   18MOL   H134 2548   5.178   6.174   1.914 -0.4940  0.3992  0.9551
   18MOL   C135 2549   4.977   6.058   1.793  0.1748  0.4940 -0.4404
   18MOL   C136 2550   4.951   6.204   1.742  0.2181  0.9908  0.0850
   18MOL   O137 2551   4.840   6.257   1.807 -0.3492  0.4424  0.0255
   18MOL   H138 2552   5.068   6.010   1.756  0.0814 -1.0356  1.2464
   18MOL   H139 2553   4.891   5.995   1.769  1.1899 -0.6109 -1.2321
   18MOL   H140 2554   4.921   6.218   1.638  0.4854  2.2980  0.1721
   18MOL   H141 2555   5.029   6.277   1.760  0.2282  1.2221 -0.8793
   18MOL   H142 2556   4.847   6.238   1.899  0.8825  0.6088 -0.0190
   19MOL     C1 2557   2.953   6.670   6.625  0.8543 -0.2396 -0.4005
   19MOL     C2 2558   2.860   6.556   6.670 -0.0188 -0.0569 -0.7395
   19MOL     O3 2559   2.938   6.480   6.763  0.3655 -0.1005  0.2274
   19MOL     H4 2560   3.049   6.630   6.592  0.6290 -0.7788 -0.4096
   19MOL     H5 2561   2.978   6.730   6.712  3.4833 -2.4138  0.4312
   19MOL     H6 2562   2.832   6.491   6.588  1.2817 -3.2934  1.2808
   19MOL     H7 2563   2.766   6.589   6.715  0.0060 -1.0009  0.0257
   19MOL     H8 2564   2.899   6.724   6.547 -0.4668 -0.4190  0.3748
   19MOL     C9 2565   2.886   6.350   6.779 -0.6012  0.4834 -0.2376
   19MOL    C10 2566   2.761   6.361   6.871  0.0115 -0.6561  0.3364
   19MOL    O11 2567   2.638   6.389   6.797  0.3593 -0.1320  0.3034
   19MOL    H12 2568   2.865   6.292   6.689 -2.8393 -1.3119  1.3589
   19MOL    H13 2569   2.970   6.304   6.830  0.4599  1.7496 -0.8260
   19MOL    H14 2570   2.771   6.435   6.950 -1.0397  0.4615 -0.5404
   19MOL    H15 2571   2.740   6.265   6.918 -2.3253 -0.4781 -0.2551
   19MOL    C16 2572   2.512   6.380   6.874 -0.3378 -0.3240  0.2846
   19MOL    C17 2573   2.399   6.377   6.770  0.4362  0.1451 -0.1992
   19MOL    O18 2574   2.405   6.254   6.688  0.2102 -0.2703  0.0726
   19MOL    H19 2575   2.505   6.291   6.936  0.4150 -0.9786 -0.5600
   19MOL    H20 2576   2.511   6.457   6.951  0.7539  0.5418 -0.5543
   19MOL    H21 2577   2.406   6.471   6.714  0.4911  1.9513  2.7294
   19MOL    H22 2578   2.300   6.384   6.816  0.1692 -0.9562 -0.5846
   19MOL    C23 2579   2.272   6.219   6.649 -0.5203 -0.0743 -0.0013
   19MOL    C24 2580   2.276   6.075   6.597  0.4256  0.9005 -0.2251
   19MOL    O25 2581   2.330   6.061   6.461 -0.2257  0.0752  0.2451
   19MOL    H26 2582   2.190   6.229   6.721 -0.7709  1.1193 -0.4325
   19MOL    H27 2583   2.236   6.279   6.566  1.8488  0.7702 -0.4454
   19MOL    H28 2584   2.173   6.040   6.593  0.6562  0.3694 -2.0011
   19MOL    H29 2585   2.323   6.001   6.662 -0.8120 -0.8253 -1.2413
   19MOL    C30 2586   2.285   5.941   6.403 -0.2129 -0.0848  0.1910
   19MOL    C31 2587   2.345   5.924   6.264 -0.0548  0.2032 -0.6007
   19MOL    O32 2588   2.246   5.958   6.162 -0.0840  0.3092  0.6036
   19MOL    H33 2589   2.319   5.859   6.467  2.5179  0.8447  0.0277
   19MOL    H34 2590   2.176   5.938   6.402 -0.2481  0.8430  1.1784
   19MOL    H35 2591   2.360   5.816   6.255 -3.4817 -0.1653 -2.9733
   19MOL    H36 2592   2.437   5.980   6.249 -0.2717  0.2502 -1.7878
   19MOL    C37 2593   2.191   6.092   6.164 -0.4273 -0.2317  0.1046
   19MOL    C38 2594   2.086   6.111   6.055 -0.2293  0.1724  0.3353
   19MOL    O39 2595   2.145   6.134   5.924  0.0456  0.3219 -0.2334
   19MOL    H40 2596   2.136   6.093   6.259  0.4108 -0.1371  0.5973
   19MOL    H41 2597   2.269   6.168   6.166 -0.0315 -0.6170 -0.4860
   19MOL    H42 2598   2.009   6.188   6.059 -1.4845 -0.9378 -1.5678
   19MOL    H43 2599   2.021   6.024   6.055  1.0839 -0.8278  1.8542
   19MOL    C44 2600   2.191   6.016   5.855 -0.3105 -0.4089 -0.3403
   19MOL    C45 2601   2.334   6.035   5.802  0.2329  0.7302 -0.5594
   19MOL    O46 2602   2.330   6.095   5.673  0.6153 -0.5763  0.3013
   19MOL    H47 2603   2.183   5.931   5.923 -0.7680  0.2001  0.3702
   19MOL    H48 2604   2.127   5.998   5.769  0.5525 -1.3716 -0.7883
   19MOL    H49 2605   2.387   5.939   5.804  0.9496  1.1298  0.1245
   19MOL    H50 2606   2.389   6.101   5.868 -0.3586  0.3418  0.3300
   19MOL    C51 2607   2.456   6.112   5.601  0.2756 -0.7464 -0.7755
   19MOL    C52 2608   2.422   6.170   5.463 -0.0167 -0.6052  0.3716
   19MOL    O53 2609   2.354   6.073   5.386 -0.6591  0.3866  0.7722
   19MOL    H54 2610   2.513   6.184   5.661 -0.9886  3.8074 -4.7463
   19MOL    H55 2611   2.511   6.018   5.597  2.1212  0.3465 -2.3520
   19MOL    H56 2612   2.509   6.210   5.411 -0.8630  1.0286  0.1832
   19MOL    H57 2613   2.365   6.263   5.472  0.7271 -0.0092 -0.9232
   19MOL    C58 2614   2.322   6.113   5.258 -0.0921 -0.6088 -0.1535
   19MOL    C59 2615   2.261   6.008   5.160 -0.0065  0.3930 -0.0407
   19MOL    O60 2616   2.371   5.933   5.092  0.1321  0.5336  0.2475
   19MOL    H61 2617   2.253   6.198   5.257  1.2632  0.5514  2.0176
   19MOL    H62 2618   2.410   6.154   5.208 -1.3650  0.3616 -1.6739
   19MOL    H63 2619   2.199   6.061   5.088 -0.0301 -1.1052 -1.1394
   19MOL    H64 2620   2.183   5.948   5.208  0.5508 -0.2078  0.1073
   19MOL    C65 2621   2.432   5.842   5.177 -0.2020 -0.4602  0.1294
   19MOL    C66 2622   2.517   5.751   5.092 -0.5138 -0.2653  0.0326
   19MOL    O67 2623   2.437   5.664   5.012 -0.1274 -0.1412 -0.4139
   19MOL    H68 2624   2.485   5.900   5.252 -1.2461 -1.9388  2.0664
   19MOL    H69 2625   2.351   5.788   5.227 -0.2587 -0.8155 -0.3435
   19MOL    H70 2626   2.579   5.687   5.154 -1.7559 -2.2887 -0.7833
   19MOL    H71 2627   2.576   5.817   5.028  0.3585 -2.5188 -1.5217
   19MOL    C72 2628   2.512   5.597   4.917 -0.1877  0.4009  0.4226
   19MOL    C73 2629   2.409   5.530   4.828  0.9565  0.2904 -0.3705
   19MOL    O74 2630   2.383   5.408   4.884  0.0978  0.4703 -0.4652
   19MOL    H75 2631   2.562   5.679   4.865 -0.6239  1.0620  1.0337
   19MOL    H76 2632   2.592   5.546   4.970 -0.5383  0.8144  1.3678
   19MOL    H77 2633   2.439   5.514   4.724  0.8714  1.2861 -0.5531
   19MOL    H78 2634   2.314   5.583   4.819 -0.0955 -1.5635 -0.5777
   19MOL    C79 2635   2.295   5.330   4.802  0.6173  0.5445 -0.3976
   19MOL    C80 2636   2.264   5.199   4.872  0.0681 -0.3775 -0.1192
   19MOL    O81 2637   2.159   5.227   4.968 -0.0673 -0.2988  0.2489
   19MOL    H82 2638   2.198   5.376   4.779  0.2110  0.9823  2.0416
   19MOL    H83 2639   2.357   5.318   4.713  0.2844 -0.4727 -0.4932
   19MOL    H84 2640   2.345   5.146   4.922  0.6608 -0.5423 -1.2398
   19MOL    H85 2641   2.219   5.123   4.807  0.4376 -0.6779 -0.0221
   19MOL    C86 2642   2.121   5.109   5.039  0.1087 -0.0005 -0.6599
   19MOL    C87 2643   1.981   5.058   5.007 -0.2436 -0.1308 -0.0130
   19MOL    O88 2644   1.991   4.999   4.879 -0.4301 -0.1845 -0.0670
   19MOL    H89 2645   2.194   5.030   5.022  0.6824  0.2867  0.4052
   19MOL    H90 2646   2.141   5.130   5.144 -1.8926  2.3975 -0.7187
   19MOL    H91 2647   1.902   5.134   5.007  0.7156  0.8828  0.5029
   19MOL    H92 2648   1.952   4.982   5.078 -0.8119 -1.4423 -1.6201
   19MOL    C93 2649   1.875   4.984   4.808  1.1484  0.1871  0.1787
   19MOL    C94 2650   1.887   4.891   4.690 -0.7954  0.2291 -0.6133
   19MOL    O95 2651   1.957   4.941   4.575 -0.2409  0.6026  0.0221
   19MOL    H96 2652   1.805   4.941   4.880  1.9093  0.5837  1.1620
   19MOL    H97 2653   1.838   5.079   4.769 -2.2034 -0.4839  1.4836
   19MOL    H98 2654   1.797   4.844   4.651 -0.9563  1.2515 -1.4769
   19MOL    H99 2655   1.952   4.812   4.728 -3.4683 -1.0534  1.4535
   19MOL   C100 2656   2.084   5.000   4.594  0.7638 -0.1585  0.2669
   19MOL   C101 2657   2.180   5.015   4.473  0.0213  0.2547 -0.5435
   19MOL   O102 2658   2.155   5.143   4.421 -0.8800 -0.1414 -0.1183
   19MOL   H103 2659   2.080   5.091   4.655 -2.1631  0.4537 -0.7819
   19MOL   H104 2660   2.141   4.931   4.657  1.6944  1.4962  1.2987
   19MOL   H105 2661   2.150   4.944   4.396 -2.3331 -0.9129  1.3886
   19MOL   H106 2662   2.280   4.985   4.503 -0.6805 -0.7361  0.9063
   19MOL   C107 2663   2.261   5.190   4.339  0.3719  0.1900  0.2879
   19MOL   C108 2664   2.241   5.329   4.282  0.0276 -0.0796 -0.6078
   19MOL   O109 2665   2.340   5.428   4.327 -0.2367  0.0166  0.1569
   19MOL   H110 2666   2.355   5.185   4.394  0.6494 -0.8810 -0.2652
   19MOL   H111 2667   2.276   5.113   4.263  1.8639  1.3195 -0.5934
   19MOL   H112 2668   2.147   5.360   4.328  1.1625 -0.8212  2.3764
   19MOL   H113 2669   2.233   5.328   4.174  3.1526 -0.9841 -0.8827
   19MOL   C114 2670   2.462   5.418   4.262 -0.3231  0.6987  0.3638
   19MOL   C115 2671   2.566   5.494   4.345 -0.1065  0.5623 -0.1597
   19MOL   O116 2672   2.572   5.433   4.473  0.4991 -0.2706  0.0797
   19MOL   H117 2673   2.487   5.312   4.253 -1.3755  0.3792  1.1330
   19MOL   H118 2674   2.457   5.445   4.156 -0.1524  1.1587  0.4721
   19MOL   H119 2675   2.531   5.596   4.358 -0.0974  0.3340  1.6681
   19MOL   H120 2676   2.667   5.491   4.303  0.5134 -0.9270  1.3792
   19MOL   C121 2677   2.649   5.310   4.479  0.4560  0.3481  0.2132
   19MOL   C122 2678   2.658   5.235   4.614  0.3352 -0.7174  0.2150
   19MOL   O123 2679   2.566   5.127   4.614  0.4880 -0.0623  0.4212
   19MOL   H124 2680   2.616   5.242   4.399 -1.6543  1.0248  0.4819
   19MOL   H125 2681   2.755   5.324   4.460  0.8436  0.1188  2.1715
   19MOL   H126 2682   2.638   5.302   4.697  1.2592  0.0411 -0.1709
   19MOL   H127 2683   2.758   5.193   4.610  1.4773  1.8805  0.6154
   19MOL   C128 2684   2.579   5.056   4.738 -0.9774  0.4183 -0.4536
   19MOL   C129 2685   2.480   4.941   4.770 -0.3812 -0.2709  0.0831
   19MOL   O130 2686   2.512   4.820   4.696  0.0494  0.7085  0.4954
   19MOL   H131 2687   2.679   5.011   4.741 -0.6875  1.0937  0.4274
   19MOL   H132 2688   2.566   5.128   4.819 -1.8059  2.5216 -2.4136
   19MOL   H133 2689   2.376   4.971   4.752 -0.4451 -0.4176  0.2056
   19MOL   H134 2690   2.482   4.920   4.877 -0.9932  0.3504  0.2190
   19MOL   C135 2691   2.414   4.723   4.715  0.3417  0.1109  0.1510
   19MOL   C136 2692   2.479   4.588   4.669  0.1666  0.1508  0.6461
   19MOL   O137 2693   2.396   4.470   4.708  0.4998 -0.6382  0.4001
   19MOL   H138 2694   2.377   4.727   4.817  0.0779  3.0433 -0.0338
   19MOL   H139 2695   2.336   4.740   4.641  1.6196 -1.0472 -1.5296
   19MOL   H140 2696   2.578   4.567   4.709  0.8844  0.3205 -1.0440
   19MOL   H141 2697   2.487   4.579   4.561  1.5036  2.1485  0.5673
   19MOL   H142 2698   2.307   4.498   4.693  1.1863  1.6007  0.2040
   20MOL     C1 2699   2.416   5.850   0.171  0.6653 -0.1829 -0.0608
   20MOL     C2 2700   2.318   5.838   0.058 -0.5503  0.0586  0.0344
   20MOL     O3 2701   2.265   5.966   0.030 -0.0977 -0.1383  0.1058
   20MOL     H4 2702   2.381   5.876   0.271  1.8562 -1.4210  0.6938
   20MOL     H5 2703   2.488   5.929   0.150  0.7717  0.2290  1.7780
   20MOL     H6 2704   2.240   5.768   0.089 -0.0052 -0.2343  0.7692
   20MOL     H7 2705   2.365   5.801   7.738 -0.6976  0.1164 -0.0639
   20MOL     H8 2706   2.474   5.758   0.178 -0.1392 -0.6999 -0.0635
   20MOL     C9 2707   2.153   5.967   7.720  0.5150 -0.2913 -0.4185
   20MOL    C10 2708   2.157   5.895   7.585 -0.7652  0.7726 -0.2300
   20MOL    O11 2709   2.147   5.757   7.604  0.1714 -0.1493 -0.1976
   20MOL    H12 2710   2.068   5.923   0.001  1.6508 -0.5763  1.2268
   20MOL    H13 2711   2.132   6.074   7.711  1.8546 -0.1773 -2.5927
   20MOL    H14 2712   2.243   5.925   7.525 -0.9151 -2.3437 -2.1427
   20MOL    H15 2713   2.074   5.930   7.523  0.0913  3.9608  0.3202
   20MOL    C16 2714   2.073   5.685   7.506 -0.0067 -0.0238  0.3965
   20MOL    C17 2715   2.084   5.535   7.543  0.0228  0.3661  1.2315
   20MOL    O18 2716   2.055   5.459   7.423 -0.2210  0.0162  0.5584
   20MOL    H19 2717   1.970   5.721   7.507  0.4606  1.3892  0.1810
   20MOL    H20 2718   2.133   5.710   7.418 -1.1220  0.0099 -0.3696
   20MOL    H21 2719   2.026   5.514   7.633 -2.2031  0.3665 -0.1439
   20MOL    H22 2720   2.185   5.517   7.577  0.3422 -2.4067 -1.0359
   20MOL    C23 2721   2.091   5.325   7.427 -0.3526 -0.4284 -0.0329
   20MOL    C24 2722   2.071   5.259   7.287 -0.1930 -0.3498  1.1275
   20MOL    O25 2723   1.941   5.197   7.281  0.4206  0.4755 -0.4956
   20MOL    H26 2724   2.198   5.315   7.450 -0.3835 -0.3455  0.1545
   20MOL    H27 2725   2.036   5.267   7.501  0.9685  0.2135  1.5071
   20MOL    H28 2726   2.153   5.187   7.279 -0.6547 -1.0969  2.9211
   20MOL    H29 2727   2.088   5.321   7.199  1.1260 -0.9077  0.9760
   20MOL    C30 2728   1.847   5.280   7.221  0.5987  0.8883  0.4180
   20MOL    C31 2729   1.831   5.229   7.077 -0.0557 -0.6976  0.2975
   20MOL    O32 2730   1.949   5.262   7.002  0.5194 -0.1627  0.4071
   20MOL    H33 2731   1.755   5.279   7.279 -0.8108  0.0310 -1.7894
   20MOL    H34 2732   1.876   5.384   7.232  0.8104  0.8707  0.0262
   20MOL    H35 2733   1.753   5.284   7.025  1.2220  0.1070 -0.8006
   20MOL    H36 2734   1.803   5.124   7.070  0.5191 -0.8556  0.2930
   20MOL    C37 2735   1.948   5.264   6.861  0.6897  0.2808 -0.2987
   20MOL    C38 2736   1.899   5.135   6.788  0.0996 -0.4837 -0.3376
   20MOL    O39 2737   1.762   5.139   6.745 -0.4221  0.4860 -0.2541
   20MOL    H40 2738   1.902   5.356   6.825  2.6728  1.9381  1.2675
   20MOL    H41 2739   2.048   5.280   6.820  1.0537  0.1948  0.5593
   20MOL    H42 2740   1.923   5.046   6.846 -0.8571 -0.7167 -0.2929
   20MOL    H43 2741   1.957   5.117   6.698  1.2534  0.6764  0.1489
   20MOL    C44 2742   1.684   5.032   6.804  0.6639  0.4121  0.1188
   20MOL    C45 2743   1.530   5.053   6.773  0.2936  0.1051 -0.3255
   20MOL    O46 2744   1.509   5.000   6.652 -0.4050 -0.4548 -0.0038
   20MOL    H47 2745   1.711   4.937   6.759  0.1159  0.7394 -0.9355
   20MOL    H48 2746   1.687   5.033   6.913  1.1691  1.1857  0.1030
   20MOL    H49 2747   1.495   5.155   6.791 -0.3959 -0.2079  0.0992
   20MOL    H50 2748   1.477   4.998   6.850 -1.3163 -0.2769 -1.6736
   20MOL    C51 2749   1.378   5.002   6.599 -0.4637 -0.5529  0.7432
   20MOL    C52 2750   1.334   5.141   6.539 -0.4988 -0.2686 -0.4422
   20MOL    O53 2751   1.296   5.219   6.643 -0.3733 -0.0817 -0.1748
   20MOL    H54 2752   1.387   4.920   6.527  1.2182  0.3436 -0.0887
   20MOL    H55 2753   1.304   4.965   6.670 -1.1663 -0.2966  0.1576
   20MOL    H56 2754   1.254   5.120   6.467 -0.3449 -0.8334 -0.4522
   20MOL    H57 2755   1.414   5.189   6.483 -0.7602  0.4666 -0.1939
   20MOL    C58 2756   1.247   5.345   6.598 -0.1677  0.3989  0.7742
   20MOL    C59 2757   1.197   5.442   6.708 -0.0980 -0.3761  0.2199
   20MOL    O60 2758   1.072   5.388   6.738  0.3307  0.6098 -0.0792
   20MOL    H61 2759   1.323   5.401   6.544  1.9973 -2.2517  0.9947
   20MOL    H62 2760   1.165   5.334   6.527  1.6803  0.5397 -1.4157
   20MOL    H63 2761   1.172   5.540   6.667  2.0326  1.0519  2.1941
   20MOL    H64 2762   1.262   5.430   6.795 -2.0938 -0.6019  1.7280
   20MOL    C65 2763   1.011   5.444   6.850 -0.5656 -0.0472 -0.6178
   20MOL    C66 2764   0.877   5.381   6.871 -0.7269  0.6348 -0.5196
   20MOL    O67 2765   0.789   5.419   6.769  0.4415 -0.7141 -0.2441
   20MOL    H68 2766   1.065   5.430   6.944 -1.1509  3.7762  0.3745
   20MOL    H69 2767   0.995   5.552   6.847 -3.0459 -0.4082 -1.0234
   20MOL    H70 2768   0.841   5.401   6.972  2.2318 -0.1967  0.7328
   20MOL    H71 2769   0.890   5.273   6.857 -1.4583  0.2461  1.5587
   20MOL    C72 2770   0.690   5.519   6.814  0.3791  0.0303 -0.5020
   20MOL    C73 2771   0.751   5.660   6.839  0.4610 -0.4354  0.3301
   20MOL    O74 2772   0.814   5.707   6.715 -0.0424 -0.0761 -0.1167
   20MOL    H75 2773   0.610   5.530   6.741 -0.0029  0.5220 -0.0134
   20MOL    H76 2774   0.645   5.485   6.907  1.0935 -0.3110 -0.2799
   20MOL    H77 2775   0.829   5.651   6.914 -1.0289 -0.0094  1.9504
   20MOL    H78 2776   0.673   5.729   6.872  0.7853  0.1779 -0.1674
   20MOL    C79 2777   0.864   5.843   6.717  0.2999 -0.8953  0.3108
   20MOL    C80 2778   0.998   5.869   6.781  0.8298 -0.3537 -0.4852
   20MOL    O81 2779   1.100   5.816   6.694  0.0251 -0.0873  0.2035
   20MOL    H82 2780   0.863   5.865   6.610 -1.6752  0.4673  0.5985
   20MOL    H83 2781   0.799   5.904   6.779  0.0125 -0.5687 -0.3122
   20MOL    H84 2782   1.009   5.827   6.881  0.8069  0.4626 -0.1424
   20MOL    H85 2783   1.021   5.975   6.790 -0.9837 -0.0437  0.7300
   20MOL    C86 2784   1.229   5.881   6.702 -0.1439  0.8636 -0.3995
   20MOL    C87 2785   1.324   5.813   6.597 -0.2537  0.3197  0.1665
   20MOL    O88 2786   1.285   5.858   6.472 -0.1919  0.2207  0.7857
   20MOL    H89 2787   1.234   5.989   6.694 -3.4302  1.0109 -0.8305
   20MOL    H90 2788   1.268   5.864   6.802 -0.7622  0.8947 -0.1521
   20MOL    H91 2789   1.311   5.705   6.601  1.3133  0.0366 -1.7233
   20MOL    H92 2790   1.424   5.851   6.617 -0.2367  0.3144  0.0910
   20MOL    C93 2791   1.359   5.789   6.364 -0.7925  0.1978  0.3098
   20MOL    C94 2792   1.332   5.848   6.225  0.8070  0.1326  0.2035
   20MOL    O95 2793   1.434   5.931   6.170 -0.3115  0.4485 -0.3296
   20MOL    H96 2794   1.466   5.799   6.380 -0.9127  1.4700  0.3727
   20MOL    H97 2795   1.332   5.684   6.367  0.6535 -0.1653  0.7599
   20MOL    H98 2796   1.231   5.887   6.209  0.3311 -1.0171  0.3028
   20MOL    H99 2797   1.329   5.766   6.154 -1.3747  0.2775  0.0741
   20MOL   C100 2798   1.439   6.064   6.226  0.4884 -0.9351  0.7514
   20MOL   C101 2799   1.578   6.128   6.185 -0.3686 -0.8319  0.1610
   20MOL   O102 2800   1.673   6.112   6.288 -0.3395 -0.3398 -0.0568
   20MOL   H103 2801   1.352   6.109   6.179  0.8260 -1.2196 -0.1477
   20MOL   H104 2802   1.433   6.050   6.334  0.5834 -2.1192  0.6068
   20MOL   H105 2803   1.580   6.236   6.169 -2.6668 -0.7431  0.3153
   20MOL   H106 2804   1.633   6.076   6.107 -0.0036 -1.8089  1.0614
   20MOL   C107 2805   1.745   5.991   6.289 -0.5252  0.0705  0.0160
   20MOL   C108 2806   1.877   6.021   6.358 -0.3380 -0.2258 -0.3853
   20MOL   O109 2807   1.854   6.047   6.490  0.6527  0.1816 -0.1020
   20MOL   H110 2808   1.687   5.905   6.323  0.2802 -1.9295 -3.4177
   20MOL   H111 2809   1.780   5.972   6.188 -0.3792  3.2139 -0.5741
   20MOL   H112 2810   1.927   6.110   6.320  1.9777 -0.7345  1.3742
   20MOL   H113 2811   1.946   5.938   6.338  0.1976  0.0586  0.2669
   20MOL   C114 2812   1.846   5.929   6.568 -0.0260 -0.0511 -0.0659
   20MOL   C115 2813   1.830   5.962   6.719 -0.2688  0.2126  0.2989
   20MOL   O116 2814   1.959   5.980   6.778  0.4946 -0.2232 -1.0589
   20MOL   H117 2815   1.752   5.878   6.548  1.4847 -3.4686  1.2788
   20MOL   H118 2816   1.925   5.861   6.539  0.9566  0.2921  1.7294
   20MOL   H119 2817   1.790   5.874   6.770 -1.9121  1.1259  0.6235
   20MOL   H120 2818   1.772   6.051   6.743 -1.2299 -0.5117  0.7046
   20MOL   C121 2819   1.958   6.012   6.923 -0.6868  0.2767 -0.6556
   20MOL   C122 2820   2.105   6.038   6.972 -0.0749  0.2492  0.3618
   20MOL   O123 2821   2.102   6.026   7.115 -0.4844  0.3036  0.1179
   20MOL   H124 2822   1.909   6.109   6.934  2.6600  1.9896 -0.2178
   20MOL   H125 2823   1.895   5.936   6.971 -0.6882  0.9595  0.4347
   20MOL   H126 2824   2.148   6.136   6.950  1.7362 -0.8802 -1.3195
   20MOL   H127 2825   2.156   5.956   6.920 -1.5218  0.1770 -0.9857
   20MOL   C128 2826   2.210   5.944   7.160  0.2216  0.3723  0.1845
   20MOL   C129 2827   2.329   6.033   7.195 -0.3616  0.2338  0.1198
   20MOL   O130 2828   2.301   6.089   7.325  0.3467  0.5748 -0.3726
   20MOL   H131 2829   2.175   5.895   7.251  1.1160 -0.5687  0.0281
   20MOL   H132 2830   2.236   5.865   7.089  0.9764  1.5324 -0.8322
   20MOL   H133 2831   2.363   6.101   7.117  0.7993 -0.6261 -0.1430
   20MOL   H134 2832   2.402   5.953   7.205 -2.0146 -1.3803 -0.4898
   20MOL   C135 2833   2.276   6.228   7.312 -0.2624 -0.1289  0.5771
   20MOL   C136 2834   2.245   6.286   7.438 -0.5404  0.4464 -0.4551
   20MOL   O137 2835   2.279   6.423   7.448  0.2999  0.2241 -0.5435
   20MOL   H138 2836   2.364   6.278   7.273 -0.2976 -0.5985 -0.1018
   20MOL   H139 2837   2.197   6.254   7.241 -2.3402 -0.4873  2.6888
   20MOL   H140 2838   2.301   6.227   7.511  2.2857  0.8864 -2.2003
   20MOL   H141 2839   2.144   6.274   7.478  0.6183  0.8963  2.6933
   20MOL   H142 2840   2.270   6.448   7.539 -1.3848 -0.4648 -0.5198
   21MOL     C1 2841   3.709   0.746   2.247 -0.0917 -0.3227 -0.1304
   21MOL     C2 2842   3.590   0.818   2.191  0.5285  0.1796  0.3328
   21MOL     O3 2843   3.477   0.734   2.189 -0.0156 -0.5846  0.6163
   21MOL     H4 2844   3.729   0.652   2.196 -1.5205 -0.7696  0.1160
   21MOL     H5 2845   3.683   0.719   2.349 -0.8734  0.7377 -0.0367
   21MOL     H6 2846   3.621   0.866   2.098  1.9477 -0.6946  0.3358
   21MOL     H7 2847   3.568   0.896   2.264  1.3409 -0.4888  1.3092
   21MOL     H8 2848   3.789   0.820   2.241 -0.7609  0.4401  0.2566
   21MOL     C9 2849   3.363   0.792   2.117 -0.6027  0.1269  0.6240
   21MOL    C10 2850   3.254   0.688   2.092  0.2061 -0.2211 -0.9867
   21MOL    O11 2851   3.270   0.628   1.962  0.2249 -0.0088 -0.1096
   21MOL    H12 2852   3.333   0.881   2.174  0.6701 -0.3998  2.1413
   21MOL    H13 2853   3.402   0.832   2.023 -0.7924 -1.0887  0.0261
   21MOL    H14 2854   3.154   0.725   2.111  0.3108 -0.5502  0.2592
   21MOL    H15 2855   3.254   0.614   2.173  1.0775  0.1696 -0.6131
   21MOL    C16 2856   3.349   0.515   1.948  0.2656  0.1541 -0.6776
   21MOL    C17 2857   3.268   0.391   1.992 -0.5595 -0.3982 -0.3467
   21MOL    O18 2858   3.273   0.384   2.131 -0.2045  0.4550 -0.0895
   21MOL    H19 2859   3.380   0.506   1.844  0.7462 -0.5039 -0.4860
   21MOL    H20 2860   3.434   0.541   2.012  0.0874 -0.5438 -0.1473
   21MOL    H21 2861   3.330   0.309   1.958  0.7901 -0.5423  2.4022
   21MOL    H22 2862   3.167   0.387   1.950 -1.0062  1.2586  0.5240
   21MOL    C23 2863   3.279   0.247   2.178 -0.7177 -0.0921  0.1265
   21MOL    C24 2864   3.251   0.252   2.324  0.0030  0.1204  0.1168
   21MOL    O25 2865   3.371   0.258   2.397 -1.2418  0.0820 -0.3134
   21MOL    H26 2866   3.200   0.184   2.136 -0.7095 -0.3022  0.4199
   21MOL    H27 2867   3.378   0.209   2.154  0.0173  2.2204 -0.6668
   21MOL    H28 2868   3.199   0.159   2.347 -4.0579  2.7804  2.3291
   21MOL    H29 2869   3.189   0.338   2.351 -0.3342 -0.1042  0.0521
   21MOL    C30 2870   3.448   0.379   2.384 -0.2361  0.3609  0.4570
   21MOL    C31 2871   3.558   0.381   2.486 -0.1247 -0.9581 -0.2099
   21MOL    O32 2872   3.666   0.465   2.439  0.4000  0.2716  0.3148
   21MOL    H33 2873   3.484   0.376   2.281 -2.1238  0.3452 -0.2230
   21MOL    H34 2874   3.390   0.472   2.384  1.3409  1.4253 -2.7695
   21MOL    H35 2875   3.593   0.281   2.513 -1.0397 -0.8776  1.3654
   21MOL    H36 2876   3.514   0.429   2.574  2.2553  0.1949  0.3893
   21MOL    C37 2877   3.776   0.483   2.528  0.3105  0.9168  0.2050
   21MOL    C38 2878   3.898   0.385   2.502  0.6024  0.5508  0.1601
   21MOL    O39 2879   3.856   0.257   2.551 -0.1351 -0.2590  0.2815
   21MOL    H40 2880   3.812   0.582   2.504 -0.9440  1.1632 -0.7242
   21MOL    H41 2881   3.753   0.474   2.635  0.1763  2.9992  0.3732
   21MOL    H42 2882   3.998   0.414   2.535  0.2895 -1.3217  2.9946
   21MOL    H43 2883   3.896   0.358   2.397 -0.5400  0.3393  0.2366
   21MOL    C44 2884   3.959   0.155   2.548  0.0007 -0.7659 -0.1196
   21MOL    C45 2885   3.995   0.082   2.414  0.7726 -0.2137 -0.1611
   21MOL    O46 2886   4.072   0.182   2.347  1.0365  0.0312  0.0181
   21MOL    H47 2887   4.049   0.192   2.597 -0.2929 -1.5049  0.9825
   21MOL    H48 2888   3.925   0.073   2.611  1.1914  0.3121  1.9854
   21MOL    H49 2889   3.902   0.050   2.367  1.0624 -2.5918  0.7936
   21MOL    H50 2890   4.057   7.768   2.442 -0.3871  0.3062  4.5224
   21MOL    C51 2891   4.114   0.129   2.225  0.7557  0.2741  0.0420
   21MOL    C52 2892   4.172   0.248   2.146 -0.2392  0.4412 -0.3332
   21MOL    O53 2893   4.311   0.259   2.170 -0.3054  0.2171  0.4133
   21MOL    H54 2894   4.180   0.043   2.228 -1.1625 -1.3879 -2.6330
   21MOL    H55 2895   4.024   0.086   2.180  0.7680 -1.8053  1.9060
   21MOL    H56 2896   4.122   0.335   2.188 -3.2963 -1.2324 -0.3785
   21MOL    H57 2897   4.148   0.246   2.040 -0.0022 -0.3013 -0.3737
   21MOL    C58 2898   4.384   0.308   2.054  0.3838 -0.4735  0.2086
   21MOL    C59 2899   4.521   0.248   2.057 -0.0961 -0.6454  1.0176
   21MOL    O60 2900   4.503   0.106   2.063  0.0422 -0.2741  0.2757
   21MOL    H61 2901   4.347   0.286   1.953  1.9534 -0.8601 -0.2990
   21MOL    H62 2902   4.380   0.416   2.071 -0.2615 -0.5018  0.2698
   21MOL    H63 2903   4.570   0.286   2.147 -0.9293 -0.0058  1.2023
   21MOL    H64 2904   4.580   0.284   1.973 -1.2841 -0.2180  0.3474
   21MOL    C65 2905   4.622   0.030   2.081  0.1574 -0.0645  0.3436
   21MOL    C66 2906   4.711   0.026   1.949 -0.2000 -0.5350  0.1474
   21MOL    O67 2907   4.830   7.722   1.978 -0.2019  0.7148 -0.0334
   21MOL    H68 2908   4.681   0.081   2.157 -1.4683  0.4719  1.2644
   21MOL    H69 2909   4.602   7.705   2.128 -0.2496  0.6627  1.6724
   21MOL    H70 2910   4.746   0.127   1.928 -2.4416  0.3467  0.4972
   21MOL    H71 2911   4.648   7.764   1.866  1.2709 -2.5748 -0.1934
   21MOL    C72 2912   4.862   7.624   1.874  0.0870 -0.0580 -0.6005
   21MOL    C73 2913   4.913   7.688   1.745  0.1012  0.4217  0.1019
   21MOL    O74 2914   4.808   7.723   1.658  0.3202 -0.0736 -0.1857
   21MOL    H75 2915   4.946   7.572   1.920  1.1569  1.7563 -0.4347
   21MOL    H76 2916   4.792   7.541   1.861 -0.0087  0.2751 -2.3355
   21MOL    H77 2917   4.966   7.610   1.690 -2.1266 -1.2869  0.2936
   21MOL    H78 2918   4.990   7.763   1.763  1.4292 -1.2219  1.5456
   21MOL    C79 2919   4.828   0.082   1.604 -0.3569 -0.0859  0.6918
   21MOL    C80 2920   4.700   0.146   1.540  0.6662 -0.0330 -0.1240
   21MOL    O81 2921   4.657   0.079   1.425  0.0429  0.0713 -0.0843
   21MOL    H82 2922   4.847   0.152   1.685  1.0375  1.7605 -1.1891
   21MOL    H83 2923   4.917   0.090   1.542  0.2348 -3.1833  1.0649
   21MOL    H84 2924   4.722   0.253   1.537 -1.5881  0.5969  2.9760
   21MOL    H85 2925   4.625   0.144   1.620 -0.6559 -0.3564 -1.3579
   21MOL    C86 2926   4.555   0.144   1.341  0.2582 -0.3178 -0.2177
   21MOL    C87 2927   4.408   0.134   1.390  0.2053 -0.1274 -0.2190
   21MOL    O88 2928   4.327   0.224   1.316 -0.5309 -0.0044 -0.5127
   21MOL    H89 2929   4.590   0.245   1.323  0.5224 -0.5749 -1.1697
   21MOL    H90 2930   4.548   0.097   1.243 -2.6833  2.7229 -1.5684
   21MOL    H91 2931   4.400   0.165   1.495 -1.3083  2.8796 -1.1774
   21MOL    H92 2932   4.371   0.031   1.382  1.8038 -0.8409  1.1646
   21MOL    C93 2933   4.192   0.212   1.347  0.2563 -0.5090  0.1514
   21MOL    C94 2934   4.118   0.287   1.241 -0.5232 -0.0840  0.1009
   21MOL    O95 2935   4.136   0.427   1.260  0.1581 -0.1444 -0.3395
   21MOL    H96 2936   4.176   0.104   1.336 -0.0452 -0.4613  0.1184
   21MOL    H97 2937   4.174   0.235   1.452  1.7297  0.4161  0.2155
   21MOL    H98 2938   4.014   0.255   1.243 -0.6524  0.2815 -0.7825
   21MOL    H99 2939   4.159   0.265   1.143  1.9419  2.8278  0.3897
   21MOL   C100 2940   4.123   0.528   1.158  0.5439  0.1487 -0.7573
   21MOL   C101 2941   4.253   0.548   1.078  0.2433  0.4238 -0.6734
   21MOL   O102 2942   4.273   0.468   0.963  0.4326 -0.2030 -0.7622
   21MOL   H103 2943   4.036   0.516   1.094 -0.0380 -0.5268  0.1558
   21MOL   H104 2944   4.119   0.626   1.204 -0.1107  0.3325 -1.2041
   21MOL   H105 2945   4.343   0.531   1.137 -0.0187 -1.3992 -0.7737
   21MOL   H106 2946   4.259   0.655   1.058  0.3588  1.1829  2.9984
   21MOL   C107 2947   4.397   0.496   0.900  0.0624  0.7228  0.4293
   21MOL   C108 2948   4.390   0.444   0.757  0.2657 -0.3837  0.4606
   21MOL   O109 2949   4.339   0.549   0.676  0.2217 -0.4995  0.4857
   21MOL   H110 2950   4.408   0.604   0.904 -2.7391  0.9710  2.6400
   21MOL   H111 2951   4.492   0.465   0.944  0.2699 -1.1400 -1.2449
   21MOL   H112 2952   4.336   0.349   0.748 -0.7612  0.2881 -0.6725
   21MOL   H113 2953   4.493   0.425   0.727  0.2254  1.6044 -0.9841
   21MOL   C114 2954   4.239   0.511   0.577 -0.5236 -0.5814 -0.0168
   21MOL   C115 2955   4.305   0.418   0.467 -0.4352  0.3352  0.1727
   21MOL   O116 2956   4.308   0.283   0.513 -0.4098  0.2374 -0.2734
   21MOL   H117 2957   4.148   0.461   0.610  0.4810 -0.8745  2.4221
   21MOL   H118 2958   4.220   0.602   0.520 -0.8462  0.5538  1.8833
   21MOL   H119 2959   4.405   0.449   0.437 -0.4751  0.1194 -0.1849
   21MOL   H120 2960   4.238   0.416   0.381 -0.2437  0.1905  0.0261
   21MOL   C121 2961   4.424   0.216   0.465 -0.3480 -0.4040  0.4796
   21MOL   C122 2962   4.409   0.064   0.488 -0.1365  0.6724 -0.3028
   21MOL   O123 2963   4.428   0.023   0.619  0.0487 -0.1112  0.2187
   21MOL   H124 2964   4.424   0.229   0.357  0.0881 -2.4621  0.2124
   21MOL   H125 2965   4.519   0.255   0.503 -1.0476  0.2448  1.6106
   21MOL   H126 2966   4.476   0.015   0.417 -1.1046 -0.2289 -0.5952
   21MOL   H127 2967   4.309   0.041   0.452  0.0489 -0.4802 -0.0975
   21MOL   C128 2968   4.309   0.044   0.705 -0.5385 -0.0708 -0.1643
   21MOL   C129 2969   4.351   7.755   0.844 -0.5743 -0.3293 -0.2234
   21MOL   O130 2970   4.232   7.701   0.908  0.3725  0.1679  0.4404
   21MOL   H131 2971   4.267   0.144   0.715  2.0237  1.0705 -0.3679
   21MOL   H132 2972   4.226   7.756   0.665 -0.1098 -1.3780  0.8305
   21MOL   H133 2973   4.388   0.067   0.904 -0.6737 -0.0968 -0.4782
   21MOL   H134 2974   4.425   7.677   0.831  2.1126  1.8040  1.7025
   21MOL   C135 2975   4.250   7.672   1.044 -0.0716  0.1605  0.0995
   21MOL   C136 2976   4.117   7.627   1.103 -0.1197 -0.5812 -0.1271
   21MOL   O137 2977   4.054   7.747   1.151 -0.0007 -0.0742  0.0243
   21MOL   H138 2978   4.309   7.580   1.044 -1.3842 -0.7092 -1.3567
   21MOL   H139 2979   4.299   7.754   1.096 -0.1008  1.2044 -1.4921
   21MOL   H140 2980   4.149   7.569   1.189  1.2374  1.3668  0.7199
   21MOL   H141 2981   4.055   7.577   1.029  1.9791 -1.8914 -1.0416
   21MOL   H142 2982   4.045   0.041   1.084 -3.6430  1.2590  1.6698
   22MOL     C1 2983   5.127   7.681   4.184 -0.1513  0.1199 -0.0443
   22MOL     C2 2984   5.252   7.763   4.215 -0.2253 -0.2538  1.0227
   22MOL     O3 2985   5.209   0.124   4.224 -0.1138 -0.1191  0.6044
   22MOL     H4 2986   5.091   7.707   4.084  1.1968  0.9768 -0.3257
   22MOL     H5 2987   5.050   7.691   4.260 -0.1546  2.3904 -0.2935
   22MOL     H6 2988   5.321   0.004   4.131 -0.2038 -0.8957  0.9502
   22MOL     H7 2989   5.296   7.731   4.309  1.0795 -0.7782  0.2401
   22MOL     H8 2990   5.162   7.579   4.167  2.6570  1.0813 -0.3092
   22MOL     C9 2991   5.300   0.221   4.276 -0.3475  0.1144  0.0086
   22MOL    C10 2992   5.253   0.366   4.240  0.3239  0.5274  0.0418
   22MOL    O11 2993   5.291   0.471   4.321 -0.6741  0.9707 -0.1537
   22MOL    H12 2994   5.320   0.204   4.382  1.8213  1.3810 -0.1730
   22MOL    H13 2995   5.394   0.195   4.227 -1.8440 -1.7132 -2.0221
   22MOL    H14 2996   5.147   0.359   4.263  0.6289 -0.2276  1.2683
   22MOL    H15 2997   5.253   0.380   4.132  0.2404 -1.4178 -0.2337
   22MOL    C16 2998   5.434   0.493   4.341 -0.2928 -0.7321  0.2833
   22MOL    C17 2999   5.500   0.517   4.203 -0.2880 -0.0970 -0.5062
   22MOL    O18 3000   5.577   0.399   4.169  0.6747  0.0103 -0.5314
   22MOL    H19 3001   5.451   0.580   4.403 -1.6106 -0.5369  0.4010
   22MOL    H20 3002   5.483   0.412   4.394 -0.0732 -0.7675  0.0257
   22MOL    H21 3003   5.566   0.603   4.209  1.5100 -1.4405 -0.6436
   22MOL    H22 3004   5.423   0.538   4.129 -0.5225  0.6691 -0.0409
   22MOL    C23 3005   5.624   0.398   4.041 -0.1426 -0.3147  0.1507
   22MOL    C24 3006   5.660   0.246   4.020  0.6803 -0.5933 -0.0291
   22MOL    O25 3007   5.718   0.222   3.893 -0.1592  0.0884  0.1649
   22MOL    H26 3008   5.548   0.429   3.969  0.1667 -1.4389 -0.6753
   22MOL    H27 3009   5.715   0.458   4.039 -2.9534  4.2227  0.0694
   22MOL    H28 3010   5.565   0.192   4.031  0.6816 -0.5897 -0.0021
   22MOL    H29 3011   5.719   0.206   4.102 -0.2334  0.9995  1.4329
   22MOL    C30 3012   5.853   0.260   3.890  0.0608 -0.6692 -0.1263
   22MOL    C31 3013   5.904   0.254   3.743 -0.6036  0.1286 -0.0017
   22MOL    O32 3014   5.922   0.113   3.716  0.0424  0.0917  0.1674
   22MOL    H33 3015   5.866   0.360   3.933 -0.7764 -0.0276 -1.3082
   22MOL    H34 3016   5.915   0.197   3.954  1.0964  1.8960  1.4851
   22MOL    H35 3017   6.002   0.302   3.743 -0.2837 -0.5184 -1.1940
   22MOL    H36 3018   5.846   0.295   3.660  0.9447  1.2679 -0.5511
   22MOL    C37 3019   6.003   0.087   3.595  0.4525 -0.0698  0.1247
   22MOL    C38 3020   6.042   7.707   3.586 -0.3037 -1.0120  0.1967
   22MOL    O39 3021   6.156   7.680   3.669  0.9908  0.4334 -0.6979
   22MOL    H40 3022   5.931   0.099   3.514  2.2258 -1.9377 -1.7961
   22MOL    H41 3023   6.092   0.151   3.593 -0.3831  1.0457 -1.5632
   22MOL    H42 3024   6.055   7.678   3.482  1.0155 -0.4617  0.2011
   22MOL    H43 3025   5.952   7.650   3.609 -1.1153  0.9114  1.9817
   22MOL    C44 3026   6.231   7.561   3.633 -0.4396 -0.5735  0.2981
   22MOL    C45 3027   6.367   7.549   3.713  0.1697  0.9208 -0.1301
   22MOL    O46 3028   6.477   7.608   3.633  0.0982 -0.3868 -1.0455
   22MOL    H47 3029   6.165   7.478   3.658 -1.4057  0.3417  0.8098
   22MOL    H48 3030   6.260   7.560   3.528 -2.3115  0.0355 -0.2366
   22MOL    H49 3031   6.386   7.443   3.704  1.4996  1.1740 -0.3568
   22MOL    H50 3032   6.354   7.582   3.816 -2.4817 -1.3551  0.3102
   22MOL    C51 3033   6.474   7.748   3.647  0.4658 -0.2567 -0.3763
   22MOL    C52 3034   6.586   0.019   3.546  0.3839 -0.0157 -0.0519
   22MOL    O53 3035   6.538   7.747   3.420  0.1024  0.1730 -0.3833
   22MOL    H54 3036   6.381   0.021   3.613 -0.8060 -3.7726 -1.7177
   22MOL    H55 3037   6.504   7.771   3.749 -1.5770 -0.0297  0.1877
   22MOL    H56 3038   6.682   7.743   3.567  0.9342  1.6547  1.3068
   22MOL    H57 3039   6.612   0.125   3.540 -1.6878  0.4141 -2.2222
   22MOL    C58 3040   6.623   7.763   3.299 -0.2676  0.0683 -0.0778
   22MOL    C59 3041   6.669   0.139   3.282  0.3175  0.3160  0.2168
   22MOL    O60 3042   6.775   0.164   3.373 -0.8719  0.4643 -0.5614
   22MOL    H61 3043   6.713   7.703   3.309 -0.8584 -0.5991  1.3932
   22MOL    H62 3044   6.566   7.745   3.209 -0.3424  1.8702 -0.4095
   22MOL    H63 3045   6.578   0.197   3.298  1.1808  2.0466 -0.9353
   22MOL    H64 3046   6.712   0.142   3.181 -0.2109  0.6901  0.0017
   22MOL    C65 3047   6.817   0.303   3.370  0.2241  0.7088  0.1105
   22MOL    C66 3048   6.711   0.403   3.413 -0.4827 -0.2904  0.0949
   22MOL    O67 3049   6.653   0.456   3.299  0.4452 -0.4736 -0.3177
   22MOL    H68 3050   6.903   0.319   3.435 -0.2611 -0.0544  0.9578
   22MOL    H69 3051   6.846   0.324   3.267 -1.6392 -1.5865 -0.9252
   22MOL    H70 3052   6.775   0.478   3.461  0.5897 -1.5053  0.6083
   22MOL    H71 3053   6.632   0.361   3.474 -0.9258  0.4517  0.0433
   22MOL    C72 3054   6.591   0.591   3.314 -0.3750  0.5248 -0.5223
   22MOL    C73 3055   6.531   0.617   3.173  0.7150 -0.0183 -0.0999
   22MOL    O74 3056   6.481   0.749   3.176  0.5977 -0.1951 -0.2725
   22MOL    H75 3057   6.510   0.584   3.387 -1.1167 -1.4523 -1.5256
   22MOL    H76 3058   6.669   0.662   3.343 -0.5781 -0.4303  2.5669
   22MOL    H77 3059   6.454   0.546   3.141  0.8903  0.0274 -0.6165
   22MOL    H78 3060   6.607   0.616   3.095  1.2634  0.5194  0.4243
   22MOL    C79 3061   6.446   0.795   3.042  0.0473  0.1737  0.4798
   22MOL    C80 3062   6.399   0.941   3.049  0.2397 -0.1457 -0.3414
   22MOL    O81 3063   6.513   1.020   3.059 -0.2512  0.2725  0.3699
   22MOL    H82 3064   6.526   0.783   2.968  1.4424  2.8166  1.4700
   22MOL    H83 3065   6.363   0.730   3.016 -0.1075  0.8248 -0.6985
   22MOL    H84 3066   6.323   0.949   3.128 -0.0698  1.2191 -0.7594
   22MOL    H85 3067   6.353   0.952   2.951 -0.5064  1.9097  0.2098
   22MOL    C86 3068   6.485   1.160   3.069 -0.6067  0.1633 -0.0179
   22MOL    C87 3069   6.424   1.228   2.947  0.6652 -0.3083 -0.2240
   22MOL    O88 3070   6.285   1.225   2.944  0.0185 -0.0894 -0.2734
   22MOL    H89 3071   6.420   1.170   3.156 -1.1972  0.2079 -0.4591
   22MOL    H90 3072   6.582   1.207   3.085 -0.4096 -0.0730 -0.5047
   22MOL    H91 3073   6.457   1.186   2.851  1.0743 -1.1914  0.2912
   22MOL    H92 3074   6.458   1.331   2.956 -0.8150 -0.0595  3.2409
   22MOL    C93 3075   6.221   1.257   2.818 -0.0278  0.1546 -0.0169
   22MOL    C94 3076   6.070   1.226   2.838 -0.4302  0.6882 -0.2308
   22MOL    O95 3077   6.036   1.091   2.796  0.1540  0.1212 -0.0710
   22MOL    H96 3078   6.240   1.365   2.815 -0.7248  0.3298  1.3732
   22MOL    H97 3079   6.264   1.210   2.730  0.1174  0.0342  0.1195
   22MOL    H98 3080   6.020   1.303   2.779 -0.9453  2.4941  2.4482
   22MOL    H99 3081   6.040   1.243   2.942  5.4110  1.2116  1.6017
   22MOL   C100 3082   5.893   1.080   2.816  0.3053 -0.4695  0.3739
   22MOL   C101 3083   5.836   0.944   2.784  0.0098  0.5888  0.2570
   22MOL   O102 3084   5.704   0.937   2.827  0.4683 -0.3960  0.0877
   22MOL   H103 3085   5.869   1.103   2.919 -0.0719  2.2498 -0.2964
   22MOL   H104 3086   5.833   1.150   2.759 -1.1259 -0.2411  2.1401
   22MOL   H105 3087   5.894   0.864   2.831  0.4210 -0.2130 -1.5624
   22MOL   H106 3088   5.830   0.931   2.676 -0.7572 -1.4278  0.5046
   22MOL   C107 3089   5.642   0.813   2.807  0.6938 -0.5761 -0.0655
   22MOL   C108 3090   5.503   0.818   2.868  0.4352 -0.3267  0.3378
   22MOL   O109 3091   5.510   0.840   3.012 -0.3930  0.0586  0.1859
   22MOL   H110 3092   5.627   0.775   2.706  3.3375  2.2764 -1.6235
   22MOL   H111 3093   5.692   0.733   2.862  2.8597  1.1036  0.4895
   22MOL   H112 3094   5.444   0.728   2.851 -1.7139  0.9768  0.6975
   22MOL   H113 3095   5.456   0.906   2.824 -0.2808 -1.2486 -0.7458
   22MOL   C114 3096   5.387   0.880   3.067  0.4943 -1.1552  0.1336
   22MOL   C115 3097   5.389   0.904   3.213  0.0940  0.3417 -0.1673
   22MOL   O116 3098   5.428   1.039   3.242 -0.0238  0.0698 -0.2731
   22MOL   H117 3099   5.339   0.961   3.012 -0.5697 -1.0012  1.2524
   22MOL   H118 3100   5.319   0.795   3.060 -0.2532 -0.4795 -0.9220
   22MOL   H119 3101   5.463   0.837   3.257 -0.7692  0.1808  1.0636
   22MOL   H120 3102   5.299   0.880   3.269  1.4149 -0.7308  1.5825
   22MOL   C121 3103   5.451   1.069   3.376 -0.6281 -0.7496 -0.9404
   22MOL   C122 3104   5.458   1.220   3.383 -0.0640  0.0826 -0.0356
   22MOL   O123 3105   5.436   1.275   3.513  0.3667 -0.6625 -0.8027
   22MOL   H124 3106   5.365   1.038   3.435  0.5101 -1.7077  0.2573
   22MOL   H125 3107   5.540   1.034   3.429 -1.5783 -0.9276  0.5483
   22MOL   H126 3108   5.388   1.276   3.322 -2.8522 -1.9316  1.2348
   22MOL   H127 3109   5.559   1.248   3.353 -1.1728  0.4337 -3.6256
   22MOL   C128 3110   5.439   1.418   3.520  0.3764 -0.6747  0.4025
   22MOL   C129 3111   5.510   1.462   3.645  0.4123  0.4389 -0.0861
   22MOL   O130 3112   5.652   1.440   3.625 -0.1765  0.2746  0.0521
   22MOL   H131 3113   5.497   1.454   3.434 -1.6289  0.2378 -0.6274
   22MOL   H132 3114   5.337   1.454   3.505  0.2300 -0.8780  0.9038
   22MOL   H133 3115   5.472   1.401   3.727  0.3210 -0.2270 -0.6247
   22MOL   H134 3116   5.483   1.565   3.666  0.4441  0.9964 -2.6516
   22MOL   C135 3117   5.724   1.497   3.730 -0.5766  0.1141 -0.1558
   22MOL   C136 3118   5.843   1.407   3.746 -0.6867  0.1661 -0.4543
   22MOL   O137 3119   5.928   1.439   3.853 -0.5493 -0.8668  0.0179
   22MOL   H138 3120   5.757   1.598   3.706  2.1946 -0.5689  0.6045
   22MOL   H139 3121   5.665   1.498   3.822  0.0436  0.1241  0.2410
   22MOL   H140 3122   5.887   1.392   3.648  0.0346  1.5723 -0.3549
   22MOL   H141 3123   5.800   1.308   3.761 -0.5104  0.0112 -0.9826
   22MOL   H142 3124   5.880   1.426   3.933  0.5071  1.5984  1.1083
   23MOL     C1 3125   0.377   5.299   4.414  0.1604 -0.0566 -0.2638
   23MOL     C2 3126   0.331   5.256   4.276 -0.2668  0.7131  0.4939
   23MOL     O3 3127   0.450   5.232   4.200  0.1210 -0.6716  0.2912
   23MOL     H4 3128   0.439   5.389   4.413  2.8292 -1.8266 -2.0309
   23MOL     H5 3129   0.447   5.225   4.453 -1.2123 -2.2055 -1.7264
   23MOL     H6 3130   0.274   5.339   4.235  0.0703  0.7943  0.1858
   23MOL     H7 3131   0.276   5.163   4.286  1.0994 -0.0477  1.1237
   23MOL     H8 3132   0.299   5.308   4.489  1.5607  0.5507  1.1444
   23MOL     C9 3133   0.431   5.160   4.077 -0.4578  0.2224  0.9447
   23MOL    C10 3134   0.563   5.144   4.011  0.1971 -0.0854  0.8853
   23MOL    O11 3135   0.594   5.264   3.955 -0.6329  0.8679  0.6361
   23MOL    H12 3136   0.390   5.063   4.105 -0.2522 -0.0988  0.1178
   23MOL    H13 3137   0.369   5.217   4.008  2.5826  2.5420  0.0165
   23MOL    H14 3138   0.546   5.069   3.934  0.3536 -1.2760  1.9802
   23MOL    H15 3139   0.641   5.118   4.083  4.0597  0.5116 -2.9665
   23MOL    C16 3140   0.696   5.245   3.858 -0.3561 -0.2214 -0.1343
   23MOL    C17 3141   0.730   5.384   3.802 -0.1093 -0.0940  0.6060
   23MOL    O18 3142   0.640   5.419   3.700 -0.4013 -0.1621  0.0217
   23MOL    H19 3143   0.791   5.214   3.902 -0.6720 -1.2512 -0.1537
   23MOL    H20 3144   0.676   5.170   3.781 -0.6028 -1.0202  0.6877
   23MOL    H21 3145   0.834   5.383   3.770 -0.0780  0.5470  0.6808
   23MOL    H22 3146   0.719   5.458   3.882  0.1555 -0.5742  1.0937
   23MOL    C23 3147   0.525   5.487   3.744 -0.7302 -0.4686 -0.2810
   23MOL    C24 3148   0.445   5.531   3.625  0.7108  0.0135 -0.5606
   23MOL    O25 3149   0.353   5.426   3.576  0.2116 -0.3447  0.5817
   23MOL    H26 3150   0.473   5.434   3.824  1.3586 -1.2740  0.5633
   23MOL    H27 3151   0.554   5.579   3.796  1.5494 -2.2637  1.7100
   23MOL    H28 3152   0.509   5.567   3.545 -1.4847  3.4171 -0.9061
   23MOL    H29 3153   0.386   5.622   3.639  0.2679 -0.2542 -0.6860
   23MOL    C30 3154   0.230   5.420   3.660 -0.0523  0.1378  0.1086
   23MOL    C31 3155   0.117   5.392   3.576  0.3205  0.0790  0.3332
   23MOL    O32 3156   0.130   5.278   3.493 -0.4373 -0.1548  0.1361
   23MOL    H33 3157   0.250   5.346   3.738 -0.4825 -2.0765 -1.8032
   23MOL    H34 3158   0.207   5.515   3.708  1.0952  1.2646 -1.5217
   23MOL    H35 3159   0.102   5.483   3.519  0.1755  0.5851  1.1701
   23MOL    H36 3160   0.038   5.379   3.650 -0.7206  0.2661 -0.7371
   23MOL    C37 3161   0.001   5.223   3.461 -0.0895 -0.9812  0.0380
   23MOL    C38 3162   0.022   5.117   3.357  0.8499 -1.1371 -0.4371
   23MOL    O39 3163   0.077   5.011   3.439  0.3767 -0.1827 -0.0041
   23MOL    H40 3164   7.718   5.188   3.548  2.0063 -0.4642  1.5866
   23MOL    H41 3165   7.715   5.309   3.425  2.0697  0.4402 -0.0765
   23MOL    H42 3166   0.103   5.156   3.295  1.1443  0.7501  1.1026
   23MOL    H43 3167   7.697   5.089   3.313 -0.0213 -1.5047  1.6696
   23MOL    C44 3168   0.099   4.905   3.355  0.8132  0.2366  1.2301
   23MOL    C45 3169   0.133   4.781   3.442 -0.2052  0.5365 -0.0482
   23MOL    O46 3170   0.017   4.739   3.513 -0.2377  0.6191  0.1051
   23MOL    H47 3171   0.016   4.891   3.287  1.6203  0.3585  0.2032
   23MOL    H48 3172   0.188   4.927   3.296  0.5381 -1.5005  0.1230
   23MOL    H49 3173   0.218   4.794   3.508 -1.1032 -1.1272  1.4704
   23MOL    H50 3174   0.164   4.698   3.380  2.3156  0.4094  1.3554
   23MOL    C51 3175   0.043   4.607   3.571  0.4687  0.8186  0.1465
   23MOL    C52 3176   7.708   4.540   3.664 -0.4507 -0.4138 -0.6698
   23MOL    O53 3177   7.728   4.603   3.793 -0.1896 -0.2066 -0.5702
   23MOL    H54 3178   0.056   4.536   3.490  0.4778 -0.8703  1.6014
   23MOL    H55 3179   0.139   4.594   3.622  0.6960 -2.4542 -1.0079
   23MOL    H56 3180   7.733   4.438   3.692 -3.0512 -1.0427 -0.5349
   23MOL    H57 3181   7.606   4.555   3.630 -1.1739 -2.3665  0.5833
   23MOL    C58 3182   7.625   4.568   3.888 -0.5736 -0.3221 -0.0225
   23MOL    C59 3183   7.673   4.555   4.037  0.3598  0.3842  0.3849
   23MOL    O60 3184   7.726   4.425   4.058 -0.0120  0.1170  0.7112
   23MOL    H61 3185   7.555   4.651   3.882 -0.0915  0.1553  0.8681
   23MOL    H62 3186   7.567   4.481   3.858  1.0712 -1.9032  1.2301
   23MOL    H63 3187   7.584   4.581   4.095  0.9010  1.1989  0.8759
   23MOL    H64 3188   7.738   4.637   4.068 -1.4901  1.8041  0.6111
   23MOL    C65 3189   0.093   4.415   4.021 -0.0191 -0.4437  0.0076
   23MOL    C66 3190   0.154   4.275   4.009  0.4827 -0.5162  1.2897
   23MOL    O67 3191   0.140   4.230   3.873  0.0907  0.0420 -0.6769
   23MOL    H68 3192   0.104   4.475   3.930 -2.4014 -1.1807 -0.8168
   23MOL    H69 3193   0.148   4.481   4.088  1.2527  0.1643 -1.6119
   23MOL    H70 3194   0.097   4.218   4.082 -0.2366  1.5477  2.3765
   23MOL    H71 3195   0.261   4.271   4.032  0.5978  1.3493  1.2169
   23MOL    C72 3196   0.219   4.099   3.866 -0.2343 -0.2625 -0.8431
   23MOL    C73 3197   0.223   4.053   3.725 -0.1938  0.5983  0.1004
   23MOL    O74 3198   0.332   4.118   3.647 -0.0070  0.7695  0.0253
   23MOL    H75 3199   0.320   4.109   3.907 -0.4649  0.6559 -0.4957
   23MOL    H76 3200   0.180   4.027   3.938 -0.8763 -0.4994 -1.4233
   23MOL    H77 3201   0.130   4.059   3.669 -0.3814  0.2925  0.3819
   23MOL    H78 3202   0.244   3.946   3.717 -0.9262  0.0996  3.9147
   23MOL    C79 3203   0.312   4.249   3.622 -0.2067  0.4476  0.2445
   23MOL    C80 3204   0.423   4.294   3.528 -0.0465  0.1707 -0.2576
   23MOL    O81 3205   0.404   4.222   3.407  0.0907  0.5191 -0.3396
   23MOL    H82 3206   0.214   4.276   3.584 -0.4174 -0.7900 -0.1062
   23MOL    H83 3207   0.324   4.303   3.716 -0.2105  0.4150  0.2636
   23MOL    H84 3208   0.524   4.264   3.560 -0.2157 -0.1023  0.0256
   23MOL    H85 3209   0.418   4.402   3.517 -1.1148  0.0841 -0.5975
   23MOL    C86 3210   0.508   4.230   3.313  0.6133  0.6613 -0.0063
   23MOL    C87 3211   0.489   4.355   3.234 -0.0676  0.3959  0.1241
   23MOL    O88 3212   0.498   4.472   3.303 -0.4192 -0.0452  0.3365
   23MOL    H89 3213   0.606   4.221   3.359 -0.7399 -1.5838  2.6164
   23MOL    H90 3214   0.496   4.141   3.251  2.7957  1.1324 -1.1566
   23MOL    H91 3215   0.391   4.343   3.188  0.2897  0.7929 -0.7645
   23MOL    H92 3216   0.561   4.353   3.152  1.4676 -0.4244  1.4581
   23MOL    C93 3217   0.632   4.509   3.329 -0.4342  0.1133 -0.0558
   23MOL    C94 3218   0.630   4.661   3.367 -0.3364  0.4990 -0.1476
   23MOL    O95 3219   0.656   4.739   3.251 -0.4818  0.3049 -0.1667
   23MOL    H96 3220   0.652   4.440   3.411 -0.3438 -1.4005 -1.3208
   23MOL    H97 3221   0.705   4.497   3.249 -1.3798 -1.2616 -0.7534
   23MOL    H98 3222   0.707   4.678   3.442 -1.2518 -0.5196  1.0305
   23MOL    H99 3223   0.542   4.686   3.426 -0.1051 -0.5233  0.6443
   23MOL   C100 3224   0.658   4.878   3.273 -0.6900  0.0310  0.6629
   23MOL   C101 3225   0.526   4.956   3.299  0.5470  0.2059 -0.3772
   23MOL   O102 3226   0.514   4.992   3.435 -0.0274 -0.3841 -0.6006
   23MOL   H103 3227   0.740   4.899   3.342  0.1271 -0.8066 -0.0352
   23MOL   H104 3228   0.698   4.917   3.179 -0.3174  3.1296  2.0523
   23MOL   H105 3229   0.437   4.899   3.270  0.9848 -0.1784 -0.9766
   23MOL   H106 3230   0.528   5.052   3.247  0.2567  0.1300 -0.5284
   23MOL   C107 3231   0.403   5.075   3.472 -0.1985  0.1558  0.1427
   23MOL   C108 3232   0.423   5.112   3.617  0.9450  0.0914 -0.5135
   23MOL   O109 3233   0.402   4.991   3.694  0.6976  0.7110  0.2020
   23MOL   H110 3234   0.408   5.162   3.406  2.0445 -0.0594  0.0044
   23MOL   H111 3235   0.306   5.026   3.463 -0.0890 -0.2751  1.2557
   23MOL   H112 3236   0.345   5.184   3.642 -2.1558 -3.7925  1.6411
   23MOL   H113 3237   0.522   5.157   3.620  1.1283 -0.2787 -1.0938
   23MOL   C114 3238   0.269   4.984   3.756 -0.7569 -0.2464  0.2931
   23MOL   C115 3239   0.235   4.852   3.831  0.0642  0.5565  0.4078
   23MOL   O116 3240   0.310   4.851   3.952 -0.0173 -0.0254 -0.0471
   23MOL   H117 3241   0.262   5.069   3.823  0.0403  2.4897 -2.9667
   23MOL   H118 3242   0.200   5.009   3.675 -0.9672 -3.2885 -0.5248
   23MOL   H119 3243   0.246   4.768   3.762 -1.3722 -0.5143  1.4444
   23MOL   H120 3244   0.127   4.856   3.850 -0.3945 -1.2397 -1.6053
   23MOL   C121 3245   0.299   4.737   4.033  0.4924  0.0493  0.7999
   23MOL   C122 3246   0.403   4.733   4.148 -0.4332  0.3040 -0.3317
   23MOL   O123 3247   0.351   4.829   4.238 -0.5545  0.0901 -0.2412
   23MOL   H124 3248   0.193   4.736   4.061  0.7759  0.2466  1.9187
   23MOL   H125 3249   0.320   4.651   3.971  0.3694 -0.6936  1.7780
   23MOL   H126 3250   0.504   4.754   4.113 -0.5122 -0.3864 -0.9721
   23MOL   H127 3251   0.404   4.636   4.198 -1.4393  0.4701  0.0325
   23MOL   C128 3252   0.410   4.820   4.366 -0.1009  0.4347  0.2239
   23MOL   C129 3253   0.325   4.896   4.471 -0.2236  0.1180  0.3478
   23MOL   O130 3254   0.212   4.823   4.532 -0.2693  0.7395  0.3803
   23MOL   H131 3255   0.431   4.717   4.394 -0.6475  0.4340  0.6348
   23MOL   H132 3256   0.501   4.877   4.347 -0.0244 -0.3063 -1.8158
   23MOL   H133 3257   0.288   4.992   4.435 -1.6843 -0.0355  1.3546
   23MOL   H134 3258   0.393   4.922   4.553 -0.1499 -2.0689  1.0219
   23MOL   C135 3259   0.106   4.813   4.441  0.0700  0.3149 -0.0213
   23MOL   C136 3260   7.762   4.776   4.521 -0.2553  1.2466  0.2261
   23MOL   O137 3261   7.722   4.881   4.603 -0.1915 -0.7674  0.4647
   23MOL   H138 3262   0.079   4.900   4.382 -0.7308 -0.7906 -1.3100
   23MOL   H139 3263   0.134   4.743   4.362 -0.3281 -0.7038  0.7173
   23MOL   H140 3264   0.014   4.686   4.580  1.0192 -0.4850 -2.7995
   23MOL   H141 3265   7.685   4.738   4.454 -1.1504  0.6009  1.5954
   23MOL   H142 3266   0.030   4.918   4.640  1.0298 -0.7245 -2.0698
   24MOL     C1 3267   1.855   7.500   7.205 -0.2030  0.9887 -0.0182
   24MOL     C2 3268   1.923   7.367   7.229 -0.3812 -0.1877 -0.3615
   24MOL     O3 3269   2.065   7.376   7.213 -0.4471  0.8952  0.5265
   24MOL     H4 3270   1.868   7.530   7.101 -1.2281  0.3061 -0.3507
   24MOL     H5 3271   1.884   7.579   7.273 -1.5883  1.5513 -0.0606
   24MOL     H6 3272   1.897   7.282   7.165  2.5943 -1.2980 -0.1798
   24MOL     H7 3273   1.890   7.343   7.330 -0.8193  1.2112 -0.1619
   24MOL     H8 3274   1.747   7.494   7.222 -0.4696  0.3819 -1.8125
   24MOL     C9 3275   2.136   7.253   7.233 -0.0045 -0.1762 -1.6249
   24MOL    C10 3276   2.131   7.158   7.113 -0.0634 -0.0403 -0.3485
   24MOL    O11 3277   2.014   7.088   7.105  1.0909 -0.1623 -0.4955
   24MOL    H12 3278   2.242   7.275   7.250 -0.4874 -0.3994  1.9524
   24MOL    H13 3279   2.112   7.199   7.325  2.5493 -1.0181 -1.4076
   24MOL    H14 3280   2.216   7.092   7.127  0.8155  1.7511  3.3788
   24MOL    H15 3281   2.158   7.206   7.019  0.0103 -0.0594 -0.3368
   24MOL    C16 3282   1.998   7.033   6.974  0.0937  0.3779  0.6761
   24MOL    C17 3283   1.871   6.951   6.972  1.0016 -0.0485 -0.4354
   24MOL    O18 3284   1.808   6.983   6.848  0.3856  0.5138 -0.8061
   24MOL    H19 3285   1.995   7.112   6.898 -0.9315 -0.3160 -0.0249
   24MOL    H20 3286   2.090   6.976   6.963  0.0534 -0.1291  2.7376
   24MOL    H21 3287   1.806   6.992   7.050 -0.7543 -1.7489 -0.9539
   24MOL    H22 3288   1.885   6.846   6.994 -1.6079 -0.5284 -0.8884
   24MOL    C23 3289   1.716   6.880   6.811 -0.4087 -0.2324 -0.1858
   24MOL    C24 3290   1.575   6.927   6.798 -0.6448 -0.2545 -0.1015
   24MOL    O25 3291   1.523   6.933   6.928 -0.0583  0.0038 -0.2771
   24MOL    H26 3292   1.740   6.851   6.708  1.0366 -1.8321  0.5921
   24MOL    H27 3293   1.725   6.789   6.870  1.3327  1.1012  1.6582
   24MOL    H28 3294   1.524   6.855   6.733 -0.5455 -1.3810  1.0508
   24MOL    H29 3295   1.568   7.022   6.744  1.6232 -1.4756 -2.6846
   24MOL    C30 3296   1.383   6.958   6.939 -0.2187 -0.1357  0.2126
   24MOL    C31 3297   1.362   7.047   7.051 -0.1798 -0.3526 -0.7318
   24MOL    O32 3298   1.423   7.170   7.032  0.2455  0.0390  0.0090
   24MOL    H33 3299   1.349   7.012   6.850  1.5229  0.0014 -0.3856
   24MOL    H34 3300   1.323   6.867   6.944  1.8622 -1.5851 -0.6625
   24MOL    H35 3301   1.384   6.989   7.141 -0.1857 -2.0215 -1.7892
   24MOL    H36 3302   1.254   7.060   7.061 -0.2142  1.5895 -3.2808
   24MOL    C37 3303   1.434   7.249   7.154  0.5411 -0.1666  0.7532
   24MOL    C38 3304   1.568   7.208   7.219 -0.2080 -0.0495  0.4211
   24MOL    O39 3305   1.539   7.122   7.328 -0.1253 -0.4861  0.0323
   24MOL    H40 3306   1.434   7.356   7.132  0.0559 -0.2635  0.2564
   24MOL    H41 3307   1.352   7.245   7.227  1.0830 -1.9662  1.2765
   24MOL    H42 3308   1.620   7.297   7.255 -0.6220  0.7442 -0.9180
   24MOL    H43 3309   1.643   7.165   7.152  0.9735  0.2429  1.5408
   24MOL    C44 3310   1.646   7.117   7.427  0.2562 -0.0775  0.9550
   24MOL    C45 3311   1.579   7.078   7.558 -0.1634 -0.8994  0.0383
   24MOL    O46 3312   1.503   7.176   7.628  0.1781  0.1761  0.5816
   24MOL    H47 3313   1.717   7.042   7.395  1.5910  1.4992  0.1271
   24MOL    H48 3314   1.706   7.208   7.434  0.7016 -0.4000  1.3920
   24MOL    H49 3315   1.647   7.027   7.626  2.5044  1.1276 -0.9910
   24MOL    H50 3316   1.509   6.998   7.537 -1.0573 -1.1084  3.5644
   24MOL    C51 3317   1.407   7.115   7.713 -1.0503 -0.1917  0.0144
   24MOL    C52 3318   1.315   7.217   0.019 -0.0081  0.1574 -0.0699
   24MOL    O53 3319   1.231   7.256   7.685 -0.0712  0.2248  0.8991
   24MOL    H54 3320   1.342   7.053   7.652  0.3882 -0.9512 -0.7766
   24MOL    H55 3321   1.463   7.043   0.002 -1.8068 -1.2637 -0.5704
   24MOL    H56 3322   1.371   7.292   0.075 -1.3824 -0.1253  1.7381
   24MOL    H57 3323   1.256   7.162   0.092  2.0069  0.9589  2.2550
   24MOL    C58 3324   1.108   7.301   7.720  0.0548 -0.0636 -0.0967
   24MOL    C59 3325   1.000   7.188   7.719  0.7540  0.4407  0.4100
   24MOL    O60 3326   0.973   7.156   0.083 -0.5030 -0.9201 -0.1770
   24MOL    H61 3327   1.101   7.360   0.041 -0.9718  1.0227 -0.8610
   24MOL    H62 3328   1.074   7.370   7.644  0.5672  1.7872  1.3236
   24MOL    H63 3329   1.039   7.095   7.677 -1.1854  0.0574 -0.5962
   24MOL    H64 3330   0.914   7.226   7.663  0.2932 -0.1537  0.7083
   24MOL    C65 3331   0.861   7.070   0.096  0.2533  0.2641  0.0568
   24MOL    C66 3332   0.816   7.077   0.241  0.3831  0.5694 -0.8583
   24MOL    O67 3333   0.712   7.176   0.258 -0.5584  0.4542 -0.4440
   24MOL    H68 3334   0.783   7.111   0.030 -0.0052 -1.9903 -1.0945
   24MOL    H69 3335   0.888   6.973   0.053 -1.2395  0.4957 -1.4926
   24MOL    H70 3336   0.910   7.099   0.291 -0.8093 -1.3911  2.4169
   24MOL    H71 3337   0.801   6.975   0.278  1.4807  1.7399  3.0066
   24MOL    C72 3338   0.666   7.177   0.390  0.2189  0.0317  0.5361
   24MOL    C73 3339   0.598   7.315   0.417 -0.2281 -0.1036 -0.4506
   24MOL    O74 3340   0.460   7.301   0.431  0.6681  0.5059 -0.0155
   24MOL    H75 3341   0.605   7.089   0.413  0.0954 -0.1488 -0.4716
   24MOL    H76 3342   0.746   7.171   0.464  1.3877 -0.9654 -0.7884
   24MOL    H77 3343   0.611   7.377   0.328 -0.0392  1.5234  0.6911
   24MOL    H78 3344   0.640   7.360   0.507  1.8309 -3.5969  0.3968
   24MOL    C79 3345   0.388   7.429   0.416  0.1088 -0.4230 -0.0760
   24MOL    C80 3346   0.246   7.424   0.455 -0.8243 -0.3218 -0.5010
   24MOL    O81 3347   0.156   7.393   0.355 -0.3533  0.1755 -0.0176
   24MOL    H82 3348   0.437   7.514   0.463 -0.8189 -0.4922  1.0443
   24MOL    H83 3349   0.383   7.465   0.313 -2.8934  1.0307  0.4840
   24MOL    H84 3350   0.208   7.520   0.491  3.4107 -0.0507  3.6922
   24MOL    H85 3351   0.237   7.360   0.543 -2.4970 -1.0819 -1.2105
   24MOL    C86 3352   0.019   7.428   0.377 -0.1107 -0.3129  0.3581
   24MOL    C87 3353   7.700   7.347   0.277  0.3307 -0.5990 -0.6509
   24MOL    O88 3354   7.581   7.320   0.347  0.4837 -0.0612 -0.1366
   24MOL    H89 3355   0.002   7.393   0.479  1.6450  0.1428  0.8286
   24MOL    H90 3356   0.012   7.536   0.368  0.3332 -0.2721  0.4675
   24MOL    H91 3357   7.742   7.252   0.245 -1.0137 -2.4149  2.6745
   24MOL    H92 3358   7.663   7.400   0.189 -1.8386  0.9671  1.1210
   24MOL    C93 3359   7.496   7.440   0.358  0.0847  0.7243 -0.0093
   24MOL    C94 3360   7.385   7.424   0.466 -0.0639 -0.0122 -0.8992
   24MOL    O95 3361   7.305   7.541   0.471  0.7386  0.1602  0.1143
   24MOL    H96 3362   7.545   7.536   0.370  2.7481 -0.9357  3.6377
   24MOL    H97 3363   7.439   7.447   0.266 -1.7274  0.6215  1.0929
   24MOL    H98 3364   7.428   7.409   0.565 -3.2081  0.8497  0.6768
   24MOL    H99 3365   7.324   7.341   0.428 -1.1702  0.4957 -0.2670
   24MOL   C100 3366   7.169   7.518   0.521  0.2239  0.3195 -0.1503
   24MOL   C101 3367   7.075   7.633   0.489  0.4579 -0.3388  0.3118
   24MOL   O102 3368   7.112   7.737   0.576 -0.0238 -0.3728  0.4321
   24MOL   H103 3369   7.128   7.432   0.469 -0.9453  0.9182 -0.2305
   24MOL   H104 3370   7.168   7.499   0.628 -0.5893 -1.9817 -0.5506
   24MOL   H105 3371   6.970   7.615   0.512  0.5067 -2.6223 -1.0880
   24MOL   H106 3372   7.065   7.664   0.385 -0.0954 -0.7441  0.2416
   24MOL   C107 3373   7.011   0.064   0.605  0.8567  0.3460 -0.5295
   24MOL   C108 3374   6.982   0.157   0.488 -0.3760  0.2177 -0.3818
   24MOL   O109 3375   7.081   0.262   0.465  0.1194  0.4298 -0.9117
   24MOL   H110 3376   6.919   0.013   0.633  1.1693  1.5336  2.9017
   24MOL   H111 3377   7.035   0.119   0.696  3.1865  1.2246 -1.6378
   24MOL   H112 3378   6.889   0.206   0.519 -0.2263 -0.3518  1.0169
   24MOL   H113 3379   6.967   0.099   0.397  2.7259  1.1835 -1.5585
   24MOL   C114 3380   7.208   0.218   0.434 -0.1999  0.0138 -0.3463
   24MOL   C115 3381   7.277   0.333   0.354  0.2068 -0.4547 -0.2086
   24MOL   O116 3382   7.249   0.316   0.216  0.0940 -0.3099  0.1403
   24MOL   H117 3383   7.257   0.198   0.529 -2.4981  2.7221  1.5232
   24MOL   H118 3384   7.218   0.127   0.376  0.6691 -0.8194  1.0870
   24MOL   H119 3385   7.385   0.335   0.370  0.0890  3.4089  0.7192
   24MOL   H120 3386   7.242   0.434   0.378 -1.2807 -0.6336 -1.5740
   24MOL   C121 3387   7.112   0.347   0.173  0.1898  0.4571 -0.1120
   24MOL   C122 3388   7.119   0.385   0.020  0.4035 -0.1135 -0.6435
   24MOL   O123 3389   7.132   0.528   0.017 -0.5586  0.1758  0.5424
   24MOL   H124 3390   7.046   0.261   0.185  0.7656 -0.2919 -2.0485
   24MOL   H125 3391   7.051   0.419   0.227  0.1909  0.4824 -0.1444
   24MOL   H126 3392   7.020   0.364   7.751  0.3021 -1.1766  0.1284
   24MOL   H127 3393   7.189   0.331   7.727  0.0491 -0.1684 -0.9864
   24MOL   C128 3394   7.266   0.582   0.016  0.4921 -0.1519  0.4761
   24MOL   C129 3395   7.240   0.729   7.755  0.1242 -0.1815 -0.2246
   24MOL   O130 3396   7.231   0.740   7.613  0.3297  0.1040 -0.0407
   24MOL   H131 3397   7.311   0.572   0.114  0.8814  2.7869  0.6446
   24MOL   H132 3398   7.327   0.547   7.703 -1.1949 -2.4262  0.1718
   24MOL   H133 3399   7.317   0.786   0.036 -0.6281 -2.3608  3.5053
   24MOL   H134 3400   7.142   0.751   0.028 -0.3078 -0.0193 -1.2442
   24MOL   C135 3401   7.275   0.870   7.575 -0.1981  0.1267  0.4526
   24MOL   C136 3402   7.239   0.884   7.426 -0.4402  0.0079 -0.3159
   24MOL   O137 3403   7.105   0.873   7.402 -0.0632  0.4056  0.0989
   24MOL   H138 3404   7.224   0.953   7.623  0.2248  0.3044  0.6026
   24MOL   H139 3405   7.384   0.866   7.588  0.0380  1.3689 -0.9814
   24MOL   H140 3406   7.292   0.809   7.368 -1.1898 -0.3716 -0.5278
   24MOL   H141 3407   7.270   0.986   7.404  0.4001  0.3035  2.1185
   24MOL   H142 3408   7.085   0.794   7.450  0.9624 -0.0737 -0.2451
   25MOL     C1 3409   3.576   0.782   1.791 -0.2944  0.0175  0.2879
   25MOL     C2 3410   3.466   0.862   1.718 -0.2061 -0.1772 -0.0118
   25MOL     O3 3411   3.432   0.781   1.601 -0.0599 -0.3383  0.4290
   25MOL     H4 3412   3.662   0.750   1.731 -0.0648  1.2522 -0.0520
   25MOL     H5 3413   3.529   0.692   1.830  1.2730 -1.1782 -0.5249
   25MOL     H6 3414   3.511   0.955   1.683 -0.7029  0.4830  1.0892
   25MOL     H7 3415   3.393   0.884   1.796  0.3686  1.2722  0.1267
   25MOL     H8 3416   3.617   0.831   1.879 -1.3179 -1.3407  1.5359
   25MOL     C9 3417   3.299   0.810   1.550 -0.1223  0.1228 -0.1944
   25MOL    C10 3418   3.283   0.767   1.402 -0.0582 -0.2859  0.2810
   25MOL    O11 3419   3.258   0.627   1.402  0.1716  0.0841  0.4471
   25MOL    H12 3420   3.225   0.761   1.613  0.3711 -1.3975 -0.7514
   25MOL    H13 3421   3.282   0.916   1.564 -0.6827 -0.2782  2.4195
   25MOL    H14 3422   3.364   0.796   1.336 -0.3399 -0.7038 -0.2543
   25MOL    H15 3423   3.188   0.810   1.370 -0.2646 -1.3209 -0.4881
   25MOL    C16 3424   3.380   0.556   1.390 -0.1252  0.1103 -0.0684
   25MOL    C17 3425   3.349   0.403   1.387 -0.2715  0.9705 -0.4084
   25MOL    O18 3426   3.288   0.372   1.509 -0.2584 -0.4558  0.0927
   25MOL    H19 3427   3.442   0.579   1.303  1.7265  1.3288  1.5269
   25MOL    H20 3428   3.444   0.570   1.477  1.9809 -0.2505 -1.5182
   25MOL    H21 3429   3.437   0.338   1.384 -0.5480  0.5297  0.6073
   25MOL    H22 3430   3.283   0.382   1.303 -0.5844  1.6485 -0.3280
   25MOL    C23 3431   3.265   0.236   1.545 -0.2686 -0.2462  0.2125
   25MOL    C24 3432   3.211   0.211   1.684  0.3751 -0.5618  0.3840
   25MOL    O25 3433   3.260   0.103   1.763 -0.2407  0.1280  0.7136
   25MOL    H26 3434   3.201   0.189   1.471  1.7718 -1.2456 -0.9463
   25MOL    H27 3435   3.359   0.182   1.540  0.0313  0.4860 -2.6688
   25MOL    H28 3436   3.103   0.213   1.665  0.7715  0.7850 -1.8991
   25MOL    H29 3437   3.239   0.299   1.742 -0.2407  0.1300 -0.3632
   25MOL    C30 3438   3.207   7.752   1.725 -0.0562 -0.1209 -0.2871
   25MOL    C31 3439   3.266   7.641   1.821  0.3442 -0.4797 -0.1223
   25MOL    O32 3440   3.180   7.644   1.937 -0.1992  0.4874  0.0907
   25MOL    H33 3441   3.101   7.748   1.748  0.1010 -0.6262  0.3909
   25MOL    H34 3442   3.228   7.728   1.621 -1.6470 -1.3411 -0.3425
   25MOL    H35 3443   3.371   7.660   1.842 -0.0166  1.0358  0.4290
   25MOL    H36 3444   3.259   7.537   1.790  1.0231 -1.2118  2.0887
   25MOL    C37 3445   3.252   7.609   2.055 -0.0510 -0.1283 -0.2283
   25MOL    C38 3446   3.158   7.566   2.173  0.3472  0.0761  0.0149
   25MOL    O39 3447   3.200   7.618   2.295  0.1758  0.5523  0.0458
   25MOL    H40 3448   3.333   7.539   2.033  0.4079  1.2295 -3.0870
   25MOL    H41 3449   3.301   7.703   2.081  2.9405 -1.1859 -1.8294
   25MOL    H42 3450   3.161   7.457   2.177 -0.0674  0.0657  0.1507
   25MOL    H43 3451   3.059   7.607   2.151  0.9100  2.6443  2.0619
   25MOL    C44 3452   3.106   7.596   2.401 -0.0909  0.2499 -0.7494
   25MOL    C45 3453   3.175   7.641   2.530  0.1488  0.0645  0.3832
   25MOL    O46 3454   3.138   7.564   2.634 -0.1000 -0.1496  0.2313
   25MOL    H47 3455   3.009   7.642   2.379 -0.1573  1.0225  1.1080
   25MOL    H48 3456   3.093   7.488   2.408  2.8548 -0.1081 -0.1236
   25MOL    H49 3457   3.157   7.743   2.561  1.3926  0.2485  0.5395
   25MOL    H50 3458   3.281   7.615   2.533  0.2161 -0.4115 -3.1883
   25MOL    C51 3459   3.213   7.601   2.752 -0.5714 -0.5092  0.5318
   25MOL    C52 3460   3.154   7.537   2.878 -0.2114 -0.5264 -0.7958
   25MOL    O53 3461   3.247   7.555   2.986 -0.2809 -0.0487  0.1419
   25MOL    H54 3462   3.319   7.580   2.740 -0.3738 -0.0956  1.5107
   25MOL    H55 3463   3.190   7.707   2.759 -1.5857 -0.6456 -0.5143
   25MOL    H56 3464   3.135   7.432   2.857  2.9217 -0.9020 -2.0662
   25MOL    H57 3465   3.053   7.566   2.906 -0.1003 -2.0845  1.3946
   25MOL    C58 3466   3.194   7.516   3.107  0.8807  0.2357  0.3326
   25MOL    C59 3467   3.280   7.563   3.226  0.6015  0.4081  0.1604
   25MOL    O60 3468   3.398   7.482   3.227  0.4987 -0.4243  0.0030
   25MOL    H61 3469   3.096   7.564   3.104  0.1885 -1.1914  0.0754
   25MOL    H62 3470   3.177   7.409   3.103  1.3617  0.1265  1.0931
   25MOL    H63 3471   3.220   7.541   3.314  0.0788  3.0805  0.5061
   25MOL    H64 3472   3.298   7.671   3.224 -0.4468  0.5756 -0.3036
   25MOL    C65 3473   3.498   7.527   3.312  0.1563 -0.2701  0.6201
   25MOL    C66 3474   3.620   7.429   3.298 -0.5969 -0.5366 -0.9428
   25MOL    O67 3475   3.710   7.452   3.403  0.0803  0.2447  0.2758
   25MOL    H68 3476   3.537   7.622   3.275 -0.7397  0.0262  0.4273
   25MOL    H69 3477   3.472   7.537   3.417 -0.0470 -1.0423  0.6429
   25MOL    H70 3478   3.678   7.453   3.210  0.6403  2.9448  0.7068
   25MOL    H71 3479   3.599   7.323   3.283 -1.0978 -0.6113  0.1862
   25MOL    C72 3480   3.685   7.373   3.514 -0.8024 -0.8766 -0.1664
   25MOL    C73 3481   3.815   7.376   3.607 -0.3470 -0.4393  0.0964
   25MOL    O74 3482   3.815   7.498   3.680  0.2351 -0.5773 -0.3261
   25MOL    H75 3483   3.601   7.410   3.572 -0.2842 -2.2279  1.4959
   25MOL    H76 3484   3.670   7.271   3.480 -1.7475 -0.9898  0.5832
   25MOL    H77 3485   3.906   7.358   3.550  0.9100 -1.7168  2.4533
   25MOL    H78 3486   3.809   7.303   3.687  0.6984  0.9076  1.4319
   25MOL    C79 3487   3.890   7.594   3.602  0.3549  0.1144  0.4570
   25MOL    C80 3488   3.840   7.743   3.629  0.0685  0.4115 -0.1662
   25MOL    O81 3489   3.707   7.755   3.603 -0.0177  0.0531  0.3169
   25MOL    H82 3490   3.995   7.584   3.628  0.6304 -0.1623 -0.7546
   25MOL    H83 3491   3.874   7.576   3.496 -0.3870 -0.8913  0.7377
   25MOL    H84 3492   3.883   0.042   3.558  0.0705  2.0860  1.4548
   25MOL    H85 3493   3.877   0.006   3.726  1.2197 -0.0434 -0.4367
   25MOL    C86 3494   3.626   7.765   3.719  0.0461  0.4670 -0.4814
   25MOL    C87 3495   3.485   7.749   3.674 -0.3151  0.9138  0.0476
   25MOL    O88 3496   3.433   0.100   3.610  0.9484 -0.1661 -0.3660
   25MOL    H89 3497   3.655   7.695   3.798 -1.4389  1.1021  0.6474
   25MOL    H90 3498   3.648   0.090   3.765 -0.9177  0.9930 -1.1300
   25MOL    H91 3499   3.430   7.739   3.768 -1.1226  0.4326 -0.4721
   25MOL    H92 3500   3.472   7.655   3.620  0.6456  1.3259 -0.8944
   25MOL    C93 3501   3.426   0.096   3.469  1.1378  0.7585  0.1593
   25MOL    C94 3502   3.348   0.227   3.430  0.1223 -0.0774 -0.1437
   25MOL    O95 3503   3.217   0.243   3.490 -0.1761 -0.4287 -0.2962
   25MOL    H96 3504   3.524   0.095   3.421  0.6540  1.7722 -0.8722
   25MOL    H97 3505   3.381   0.002   3.438  0.4810  0.8609  0.7760
   25MOL    H98 3506   3.346   0.229   3.321  1.4990  0.4417 -0.1712
   25MOL    H99 3507   3.417   0.309   3.450  1.0407 -0.4453 -1.7306
   25MOL   C100 3508   3.130   0.337   3.435 -0.1414  0.7203 -0.1550
   25MOL   C101 3509   3.034   0.390   3.546  0.0780  0.4005  0.2217
   25MOL   O102 3510   3.091   0.504   3.604 -0.6117 -0.3822 -0.2359
   25MOL   H103 3511   3.181   0.409   3.372 -0.5852  0.2914 -1.0147
   25MOL   H104 3512   3.080   0.264   3.371 -0.1244  0.3319  0.2704
   25MOL   H105 3513   3.025   0.317   3.627 -0.3783 -0.3000 -0.4581
   25MOL   H106 3514   2.936   0.419   3.509  0.0038  2.6080  2.0231
   25MOL   C107 3515   3.045   0.534   3.724 -0.2433 -0.0504  0.3253
   25MOL   C108 3516   3.101   0.658   3.789 -0.8619  0.0487 -0.4998
   25MOL   O109 3517   3.033   0.691   3.910 -0.5630  0.0987 -0.6180
   25MOL   H110 3518   2.936   0.541   3.723 -0.3163 -1.0774  0.3690
   25MOL   H111 3519   3.066   0.448   3.787 -0.6434 -1.6611 -1.6941
   25MOL   H112 3520   3.100   0.736   3.714  0.4271 -0.6545 -1.2746
   25MOL   H113 3521   3.209   0.647   3.802 -0.7855  2.3918  1.0793
   25MOL   C114 3522   3.089   0.625   4.024  0.4194 -0.8446  0.2151
   25MOL   C115 3523   3.216   0.693   4.084 -0.4304 -0.0169 -0.1663
   25MOL   O116 3524   3.337   0.622   4.045  0.2046 -0.4149 -0.0422
   25MOL   H117 3525   3.017   0.626   4.105 -1.2801 -1.2511 -1.2753
   25MOL   H118 3526   3.108   0.519   4.005  0.8141 -1.0767  1.8172
   25MOL   H119 3527   3.208   0.674   4.191  0.8685 -3.5674 -0.6338
   25MOL   H120 3528   3.222   0.799   4.060 -0.3105  0.4211  1.7399
   25MOL   C121 3529   3.443   0.664   4.126 -0.2365 -0.0139 -0.6238
   25MOL   C122 3530   3.576   0.619   4.066  0.1639  0.1979 -0.0825
   25MOL   O123 3531   3.624   0.705   3.965 -0.1295 -0.2981 -0.1197
   25MOL   H124 3532   3.434   0.771   4.145  0.0265  0.1624 -1.4932
   25MOL   H125 3533   3.425   0.612   4.221  0.6131 -0.7064 -0.8246
   25MOL   H126 3534   3.586   0.517   4.030  0.7906  0.2346 -0.0174
   25MOL   H127 3535   3.643   0.625   4.153 -0.8038 -1.2664  0.7896
   25MOL   C128 3536   3.560   0.705   3.837  0.2476  0.0910  0.4481
   25MOL   C129 3537   3.571   0.581   3.751  0.1584 -0.9241 -0.7160
   25MOL   O130 3538   3.456   0.505   3.783  0.2433  0.2235  0.3326
   25MOL   H131 3539   3.454   0.730   3.842 -0.0658 -0.8078 -1.1443
   25MOL   H132 3540   3.595   0.791   3.780 -1.2477  1.3972  1.4931
   25MOL   H133 3541   3.662   0.528   3.779  0.6716 -0.7927 -2.0996
   25MOL   H134 3542   3.580   0.610   3.647  2.6520 -2.6877 -1.0432
   25MOL   C135 3543   3.473   0.364   3.764 -0.6842  0.4645 -0.1646
   25MOL   C136 3544   3.378   0.299   3.863  0.3021 -0.2875  0.1501
   25MOL   O137 3545   3.414   0.352   3.991  0.8478 -0.0356  0.0097
   25MOL   H138 3546   3.445   0.334   3.663  0.1758 -1.8788  0.2820
   25MOL   H139 3547   3.573   0.328   3.784 -0.4597 -0.3205 -2.5671
   25MOL   H140 3548   3.384   0.190   3.855 -2.5507 -0.4866  0.2635
   25MOL   H141 3549   3.272   0.313   3.843 -0.3731 -0.7798  3.1116
   25MOL   H142 3550   3.384   0.442   3.987  0.0180 -0.2078  1.8614
   26MOL     C1 3551   4.847   1.361   2.128  0.0217 -0.3235 -0.1772
   26MOL     C2 3552   4.849   1.396   2.275  0.0365 -0.4479 -0.1619
   26MOL     O3 3553   4.874   1.531   2.288  0.5922  0.1584  0.2166
   26MOL     H4 3554   4.812   1.259   2.112  1.9087 -0.5101 -3.6174
   26MOL     H5 3555   4.946   1.365   2.083  0.7561 -0.1402  1.4222
   26MOL     H6 3556   4.909   1.327   2.335 -1.2337 -0.3334  1.2666
   26MOL     H7 3557   4.744   1.392   2.306  0.5744  0.3639  1.9018
   26MOL     H8 3558   4.779   1.424   2.069 -1.0164 -1.0424  0.2260
   26MOL     C9 3559   4.894   1.586   2.416  0.1481 -0.0899 -0.5373
   26MOL    C10 3560   4.866   1.739   2.408 -0.4695  0.2052  0.0525
   26MOL    O11 3561   4.932   1.807   2.516 -0.2103  0.7144 -0.2124
   26MOL    H12 3562   4.841   1.542   2.500 -0.8529 -0.0714 -1.1540
   26MOL    H13 3563   5.002   1.574   2.426  0.2468  0.0046 -1.4735
   26MOL    H14 3564   4.760   1.766   2.402  0.2620  2.8261 -1.8216
   26MOL    H15 3565   4.914   1.787   2.323 -1.8983  1.4853 -0.0441
   26MOL    C16 3566   4.876   1.934   2.549 -0.3375  0.8555  0.6993
   26MOL    C17 3567   4.944   1.979   2.672  0.4940 -0.0867 -0.1693
   26MOL    O18 3568   5.061   2.049   2.652 -0.3637 -0.4066 -0.8316
   26MOL    H19 3569   4.891   2.006   2.468 -2.5028  0.4738 -0.0774
   26MOL    H20 3570   4.771   1.924   2.577  0.0921 -3.0792  1.1569
   26MOL    H21 3571   4.959   1.894   2.739  1.3751 -0.7174 -1.1504
   26MOL    H22 3572   4.869   2.047   2.713  0.4612  0.7129 -1.5304
   26MOL    C23 3573   5.109   2.112   2.771  0.7479 -0.0847 -0.2078
   26MOL    C24 3574   5.240   2.177   2.736 -0.0253  0.1496 -0.4615
   26MOL    O25 3575   5.221   2.320   2.726  0.1768 -0.7514 -0.1902
   26MOL    H26 3576   5.034   2.184   2.803  0.8843 -0.3882  0.8086
   26MOL    H27 3577   5.127   2.034   2.844 -0.4001 -0.8949 -0.7707
   26MOL    H28 3578   5.292   2.142   2.646 -0.1293 -0.7801 -0.1692
   26MOL    H29 3579   5.309   2.167   2.819 -1.7511 -1.6497  0.8166
   26MOL    C30 3580   5.331   2.393   2.703  0.5098 -0.3271  0.2553
   26MOL    C31 3581   5.286   2.546   2.706  0.1440 -0.0467 -0.5855
   26MOL    O32 3582   5.278   2.602   2.834 -0.5934  0.4000  0.4775
   26MOL    H33 3583   5.424   2.381   2.759 -0.3450 -0.5095  1.6378
   26MOL    H34 3584   5.362   2.362   2.603 -1.6394 -0.9839 -0.2354
   26MOL    H35 3585   5.192   2.557   2.652 -0.5879 -0.3202  0.6069
   26MOL    H36 3586   5.364   2.595   2.648 -0.8231  2.5541  0.2280
   26MOL    C37 3587   5.240   2.740   2.832 -0.0214 -0.7124  0.4793
   26MOL    C38 3588   5.115   2.793   2.755 -0.3206 -0.2526  0.3421
   26MOL    O39 3589   5.158   2.802   2.625  0.0062  0.2409  1.0973
   26MOL    H40 3590   5.203   2.760   2.932 -1.0317  2.2303 -0.4259
   26MOL    H41 3591   5.326   2.804   2.810 -0.9507 -0.1583 -1.6648
   26MOL    H42 3592   5.089   2.892   2.791 -1.2413  0.0932 -1.2559
   26MOL    H43 3593   5.029   2.727   2.755 -1.0779  0.6760 -1.9300
   26MOL    C44 3594   5.053   2.825   2.527 -0.2216  0.6950  0.2850
   26MOL    C45 3595   5.115   2.839   2.385  0.4392 -0.6753  0.0131
   26MOL    O46 3596   5.155   2.718   2.331 -0.5393 -0.1815  0.3293
   26MOL    H47 3597   4.983   2.742   2.531  1.9466 -1.2139  0.1019
   26MOL    H48 3598   5.004   2.918   2.555 -0.2916  0.5547  0.6325
   26MOL    H49 3599   5.190   2.918   2.389 -0.7771  0.5672 -1.1351
   26MOL    H50 3600   5.041   2.873   2.311  0.4098 -2.1964 -0.6756
   26MOL    C51 3601   5.295   2.697   2.351 -0.0888  0.8617 -0.1383
   26MOL    C52 3602   5.377   2.758   2.242  0.0907  0.0054  0.3791
   26MOL    O53 3603   5.329   2.697   2.116  0.7635  0.1783 -0.3105
   26MOL    H54 3604   5.327   2.738   2.447  0.4786  1.6537 -0.6594
   26MOL    H55 3605   5.311   2.590   2.362 -0.5827  1.0418  2.8058
   26MOL    H56 3606   5.484   2.743   2.252  0.1463  1.3926  2.0877
   26MOL    H57 3607   5.367   2.866   2.238  2.5226  0.2435 -0.1237
   26MOL    C58 3608   5.376   2.561   2.080 -0.4056  0.2309  0.5615
   26MOL    C59 3609   5.516   2.563   2.018  0.3825 -0.0142 -0.6946
   26MOL    O60 3610   5.614   2.606   2.113  0.0052 -0.3541  0.3515
   26MOL    H61 3611   5.376   2.487   2.160 -0.3796 -0.9848 -0.5433
   26MOL    H62 3612   5.305   2.524   2.006  0.4994 -0.9481  0.2618
   26MOL    H63 3613   5.523   2.620   1.926  0.5293 -0.0681 -0.7167
   26MOL    H64 3614   5.532   2.459   1.992  1.9561 -0.6375  2.4345
   26MOL    C65 3615   5.742   2.591   2.060 -0.1990 -0.2386  0.5291
   26MOL    C66 3616   5.832   2.655   2.171 -0.0050  0.7221 -0.1332
   26MOL    O67 3617   5.906   2.558   2.247  0.0321 -0.3440 -0.1240
   26MOL    H68 3618   5.755   2.487   2.029  0.0543 -0.0756  0.0947
   26MOL    H69 3619   5.750   2.653   1.971  1.5752  1.6320  1.9636
   26MOL    H70 3620   5.773   2.720   2.236  0.2122  0.5743  0.2176
   26MOL    H71 3621   5.907   2.722   2.128  1.9102 -0.2208  1.6192
   26MOL    C72 3622   6.002   2.603   2.329  0.1661 -0.6547 -0.5140
   26MOL    C73 3623   6.084   2.483   2.374  0.1017  0.0616  0.2233
   26MOL    O74 3624   6.105   2.477   2.511 -0.4353  0.0755  0.0950
   26MOL    H75 3625   6.062   2.683   2.285 -2.3082  1.8047  0.4284
   26MOL    H76 3626   5.952   2.648   2.414  1.1366 -1.8484  0.7214
   26MOL    H77 3627   6.178   2.483   2.319  0.9038 -0.1990  1.5621
   26MOL    H78 3628   6.032   2.394   2.341  0.8789 -0.9940  1.7914
   26MOL    C79 3629   6.174   2.363   2.560 -0.8020  0.9382  0.3900
   26MOL    C80 3630   6.168   2.350   2.711 -0.4095 -0.3342 -0.3740
   26MOL    O81 3631   6.231   2.461   2.782  0.3526 -0.2333  0.0818
   26MOL    H82 3632   6.133   2.274   2.511 -0.4126  1.1484 -0.3313
   26MOL    H83 3633   6.277   2.345   2.527 -0.3710 -0.1621  2.2777
   26MOL    H84 3634   6.204   2.250   2.735 -0.9950 -0.4091  0.1992
   26MOL    H85 3635   6.064   2.364   2.740 -0.1835  0.5228  0.0550
   26MOL    C86 3636   6.238   2.436   2.918  0.1871  0.1716 -0.1763
   26MOL    C87 3637   6.344   2.328   2.950 -0.0646 -0.0901 -0.1194
   26MOL    O88 3638   6.290   2.221   3.030 -0.3547 -0.4009  0.3243
   26MOL    H89 3639   6.250   2.528   2.975  1.3828  0.6833 -1.2328
   26MOL    H90 3640   6.143   2.395   2.951  0.5801  0.3017  1.1480
   26MOL    H91 3641   6.434   2.368   2.996  0.2139  0.4808 -1.1494
   26MOL    H92 3642   6.375   2.281   2.856  1.0631 -0.7598  0.5780
   26MOL    C93 3643   6.392   2.147   3.098  0.0170 -0.2547 -0.5254
   26MOL    C94 3644   6.333   2.015   3.149 -0.1454 -0.0885 -0.3496
   26MOL    O95 3645   6.252   2.039   3.267 -0.4371 -0.0676 -0.3198
   26MOL    H96 3646   6.476   2.119   3.034  0.9533  2.6470 -0.6518
   26MOL    H97 3647   6.444   2.208   3.171 -0.5626 -1.9817  1.3655
   26MOL    H98 3648   6.414   1.951   3.182  0.4955  0.6204 -0.5562
   26MOL    H99 3649   6.278   1.982   3.060  2.0412  3.4673 -3.1466
   26MOL   C100 3650   6.177   1.941   3.318  0.2630  0.4356 -0.3168
   26MOL   C101 3651   6.253   1.844   3.411  0.2758  0.4116 -0.7465
   26MOL   O102 3652   6.285   1.914   3.532 -0.1244  0.6368  0.1323
   26MOL   H103 3653   6.100   1.982   3.383  0.9243 -1.0405  1.4762
   26MOL   H104 3654   6.133   1.889   3.232  2.0262 -2.7604  0.6128
   26MOL   H105 3655   6.344   1.805   3.365 -1.1169 -2.2409 -1.3498
   26MOL   H106 3656   6.187   1.759   3.430 -0.6474  1.0313 -1.1702
   26MOL   C107 3657   6.335   1.828   3.636  0.5640 -0.5907 -0.1551
   26MOL   C108 3658   6.377   1.909   3.760 -0.2494 -0.3247  0.0541
   26MOL   O109 3659   6.274   1.998   3.819 -0.5856 -0.1813 -0.3656
   26MOL   H110 3660   6.270   1.742   3.654  0.0276 -0.4328 -1.3044
   26MOL   H111 3661   6.423   1.776   3.600  1.7483  0.4609  1.1503
   26MOL   H112 3662   6.444   1.989   3.729  0.9263 -1.2317  0.1894
   26MOL   H113 3663   6.426   1.846   3.835  1.7303 -0.8376 -1.6289
   26MOL   C114 3664   6.322   2.083   3.923  0.2188 -0.2321  0.3841
   26MOL   C115 3665   6.195   2.129   3.991 -0.2087  0.3585  0.3012
   26MOL   O116 3666   6.209   2.259   4.059 -0.0872  0.4800 -0.3525
   26MOL   H117 3667   6.378   2.026   3.998 -0.0193 -0.1035  0.6607
   26MOL   H118 3668   6.375   2.167   3.879  0.0851 -0.9467 -1.1596
   26MOL   H119 3669   6.157   2.056   4.062 -0.4636  0.7554  0.5744
   26MOL   H120 3670   6.138   2.146   3.900  4.7581 -1.1471 -3.3140
   26MOL   C121 3671   6.092   2.322   4.103  0.6648 -0.1226 -0.2143
   26MOL   C122 3672   6.050   2.425   4.003 -0.1290 -0.1427 -0.2437
   26MOL   O123 3673   6.003   2.356   3.885 -0.4852  0.8493 -0.0846
   26MOL   H124 3674   6.015   2.245   4.114  0.0266  0.5635  0.1882
   26MOL   H125 3675   6.111   2.366   4.201 -4.1157 -1.7184  1.5642
   26MOL   H126 3676   6.123   2.503   3.985  0.2368 -0.0565  1.4730
   26MOL   H127 3677   5.968   2.486   4.042  0.6873 -0.0642  1.4007
   26MOL   C128 3678   5.950   2.450   3.791 -0.6558 -0.3753 -0.5628
   26MOL   C129 3679   6.060   2.521   3.708  0.2740 -0.6238  0.0144
   26MOL   O130 3680   6.108   2.435   3.600 -0.0621  0.4213 -0.4419
   26MOL   H131 3681   5.888   2.402   3.716 -1.1573  1.1644 -1.1525
   26MOL   H132 3682   5.884   2.519   3.843 -0.1208 -1.6141  1.8987
   26MOL   H133 3683   6.136   2.570   3.769 -0.4376  1.5902 -0.8351
   26MOL   H134 3684   6.009   2.605   3.662  0.8608  0.0361  0.5716
   26MOL   C135 3685   6.227   2.359   3.628 -0.3868 -0.5387 -0.7137
   26MOL   C136 3686   6.226   2.239   3.535 -0.1833  0.4004 -0.0619
   26MOL   O137 3687   6.356   2.180   3.524  0.1131  0.9321 -0.8592
   26MOL   H138 3688   6.311   2.424   3.606  2.1052 -2.8972  1.4707
   26MOL   H139 3689   6.232   2.339   3.735 -1.8288 -2.0867 -0.9014
   26MOL   H140 3690   6.196   2.267   3.434  3.4432  1.3931 -0.9335
   26MOL   H141 3691   6.151   2.169   3.572 -0.9553  2.2687  2.0152
   26MOL   H142 3692   6.333   2.093   3.495  0.2801  0.7758 -0.5295
   27MOL     C1 3693   1.473   3.236   6.353  0.0148 -0.2933  0.0799
   27MOL     C2 3694   1.434   3.180   6.492 -0.1357 -0.4028 -0.9078
   27MOL     O3 3695   1.298   3.209   6.523 -0.5488  0.5030 -0.6786
   27MOL     H4 3696   1.399   3.203   6.281 -1.6530  1.3741  0.9750
   27MOL     H5 3697   1.571   3.199   6.323 -0.6276 -0.1041 -2.3525
   27MOL     H6 3698   1.503   3.222   6.565 -1.2891  0.6042 -0.3772
   27MOL     H7 3699   1.445   3.074   6.514 -2.1540 -0.1629  1.4841
   27MOL     H8 3700   1.485   3.345   6.360 -0.4327 -0.2395  0.0485
   27MOL     C9 3701   1.262   3.193   6.653 -0.3701  0.2582 -1.1492
   27MOL    C10 3702   1.122   3.252   6.675 -0.7320 -0.1332 -0.2128
   27MOL    O11 3703   1.013   3.176   6.611  0.4101 -0.3465 -0.1686
   27MOL    H12 3704   1.268   3.091   6.692 -0.8502  0.6182 -0.1292
   27MOL    H13 3705   1.333   3.250   6.714  1.7088 -0.6886 -2.5942
   27MOL    H14 3706   1.111   3.351   6.630 -0.7626 -0.3358 -0.6509
   27MOL    H15 3707   1.097   3.263   6.781 -2.1949 -1.3183 -0.4225
   27MOL    C16 3708   0.894   3.250   6.571 -0.6208 -0.2641 -0.7285
   27MOL    C17 3709   0.770   3.166   6.559  0.1280 -0.1036 -0.4098
   27MOL    O18 3710   0.714   3.141   6.691 -0.5510 -0.5299  0.6205
   27MOL    H19 3711   0.867   3.319   6.651 -2.1209  0.1199 -1.5413
   27MOL    H20 3712   0.912   3.316   6.486 -0.2409 -1.8072 -1.8706
   27MOL    H21 3713   0.794   3.074   6.506 -1.5235  0.1504 -1.6583
   27MOL    H22 3714   0.704   3.239   6.511  1.6782  3.5305  2.6918
   27MOL    C23 3715   0.606   3.045   6.692 -0.2762  0.0617  0.3554
   27MOL    C24 3716   0.493   3.086   6.593 -0.1968  0.4197  0.2150
   27MOL    O25 3717   0.423   3.205   6.611 -0.8098  0.4009 -0.3158
   27MOL    H26 3718   0.643   2.945   6.671  1.1442  0.4792  0.8239
   27MOL    H27 3719   0.569   3.050   6.795  1.1569 -1.0098  0.9279
   27MOL    H28 3720   0.420   3.005   6.588 -1.4143  1.5038  0.1088
   27MOL    H29 3721   0.539   3.094   6.495  0.9683 -1.4239  0.5647
   27MOL    C30 3722   0.317   3.198   6.705 -0.2754 -0.6844 -0.1485
   27MOL    C31 3723   0.213   3.097   6.680  0.2148 -0.0685  0.4542
   27MOL    O32 3724   0.160   3.115   6.551 -0.1642  0.5154  0.0329
   27MOL    H33 3725   0.352   3.180   6.807  1.0170  2.8349  0.1083
   27MOL    H34 3726   0.265   3.292   6.724 -1.3042 -1.3275  0.2408
   27MOL    H35 3727   0.133   3.104   6.753 -0.3410  0.2193 -0.1803
   27MOL    H36 3728   0.258   2.999   6.695 -3.5493 -1.8031  0.9054
   27MOL    C37 3729   0.119   2.996   6.488  0.3945 -0.0558  0.3035
   27MOL    C38 3730   0.076   3.013   6.342 -0.2686 -0.5338 -0.1018
   27MOL    O39 3731   0.195   3.006   6.273 -0.0866 -1.1623  0.1436
   27MOL    H40 3732   0.197   2.920   6.499  1.8622  1.1006 -1.7857
   27MOL    H41 3733   0.027   2.965   6.537 -2.1372  1.3477 -3.3733
   27MOL    H42 3734   0.024   3.109   6.329  2.3295  1.1447  1.4010
   27MOL    H43 3735   7.770   2.946   6.304 -1.3375  0.6768 -0.1271
   27MOL    C44 3736   0.193   2.993   6.128  0.8381 -0.9153  0.0792
   27MOL    C45 3737   0.122   2.863   6.090 -0.1218 -0.1543 -0.3846
   27MOL    O46 3738   0.212   2.761   6.125  0.0279  0.3607 -0.2534
   27MOL    H47 3739   0.133   3.069   6.077 -1.8947 -3.3114 -0.3791
   27MOL    H48 3740   0.296   2.989   6.093  2.1503 -1.0805  3.7186
   27MOL    H49 3741   0.108   2.853   5.982  0.8662 -0.0658 -0.5272
   27MOL    H50 3742   0.024   2.848   6.135 -0.7778  2.2568 -0.9607
   27MOL    C51 3743   0.153   2.629   6.098  0.3928 -0.3712  0.2391
   27MOL    C52 3744   0.246   2.521   6.163 -0.6430  0.4169 -0.5929
   27MOL    O53 3745   0.362   2.493   6.078  0.0145 -0.4356  0.2493
   27MOL    H54 3746   0.063   2.620   6.159  0.6784  0.7036  0.8251
   27MOL    H55 3747   0.127   2.609   5.993  1.7873 -1.0222  0.0146
   27MOL    H56 3748   0.191   2.428   6.175  0.5114 -0.3625 -1.3204
   27MOL    H57 3749   0.284   2.547   6.262 -0.8464 -0.6675 -0.2302
   27MOL    C58 3750   0.459   2.418   6.149 -0.7942  1.0427  0.7168
   27MOL    C59 3751   0.570   2.380   6.059 -0.7751 -0.0209 -0.5115
   27MOL    O60 3752   0.545   2.259   5.987 -0.4891 -0.7621  0.0651
   27MOL    H61 3753   0.496   2.480   6.231  1.8360 -0.0593  0.4314
   27MOL    H62 3754   0.417   2.332   6.200  0.9276  2.7122  5.2448
   27MOL    H63 3755   0.670   2.367   6.102 -0.4590 -2.5560 -1.9283
   27MOL    H64 3756   0.579   2.461   5.987 -2.7553 -0.0898 -0.8468
   27MOL    C65 3757   0.655   2.211   5.909  0.3140 -0.0081  0.4362
   27MOL    C66 3758   0.597   2.092   5.825  0.2098 -0.1918  0.1748
   27MOL    O67 3759   0.519   2.156   5.719 -0.1397 -0.2152 -0.3347
   27MOL    H68 3760   0.695   2.290   5.846  1.7077 -0.9226  0.1384
   27MOL    H69 3761   0.736   2.181   5.975 -0.3688  0.9064  1.7148
   27MOL    H70 3762   0.531   2.032   5.887  0.5466  1.4069  2.1436
   27MOL    H71 3763   0.672   2.023   5.786  1.3001  1.4950 -0.7672
   27MOL    C72 3764   0.490   2.072   5.611 -0.7765 -0.2811  0.7521
   27MOL    C73 3765   0.396   2.136   5.510 -0.1204  0.0251  0.2553
   27MOL    O74 3766   0.456   2.200   5.396 -0.5729  0.6452 -0.2752
   27MOL    H75 3767   0.580   2.049   5.553 -2.2277 -0.3912 -1.5030
   27MOL    H76 3768   0.476   1.968   5.640  0.5801 -0.0499  2.3106
   27MOL    H77 3769   0.314   2.189   5.558 -0.8754 -0.9979  0.1206
   27MOL    H78 3770   0.335   2.059   5.463  0.0792  0.7455 -1.2179
   27MOL    C79 3771   0.537   2.316   5.446  0.0865  0.1647  0.2008
   27MOL    C80 3772   0.593   2.389   5.328 -0.4871 -0.2771 -0.5991
   27MOL    O81 3773   0.474   2.439   5.259 -0.6652  0.2043 -0.0347
   27MOL    H82 3774   0.474   2.390   5.495  0.7627  1.0336 -0.2322
   27MOL    H83 3775   0.620   2.287   5.510  2.1487  0.8586 -2.1215
   27MOL    H84 3776   0.648   2.317   5.268  0.4287  0.3070 -0.4572
   27MOL    H85 3777   0.648   2.479   5.357 -0.5516 -0.1620 -0.8355
   27MOL    C86 3778   0.483   2.457   5.123 -0.6425 -0.2228 -0.9757
   27MOL    C87 3779   0.338   2.461   5.081  0.5044 -0.0968 -0.0292
   27MOL    O88 3780   0.343   2.456   4.943  0.2243 -0.9157  0.1500
   27MOL    H89 3781   0.546   2.539   5.089 -0.0118 -1.3573 -2.6457
   27MOL    H90 3782   0.537   2.372   5.080 -0.5418 -0.6557 -0.0009
   27MOL    H91 3783   0.290   2.555   5.107  0.0917 -0.1318 -0.6627
   27MOL    H92 3784   0.276   2.387   5.133 -2.4602  0.1385 -3.0377
   27MOL    C93 3785   0.222   2.505   4.884 -0.3041  0.4757  0.5697
   27MOL    C94 3786   0.239   2.640   4.817 -0.1959  0.0445  0.6873
   27MOL    O95 3787   0.259   2.745   4.914 -0.0812  0.0168 -0.4354
   27MOL    H96 3788   0.187   2.428   4.815 -1.5550  1.7895 -0.2807
   27MOL    H97 3789   0.140   2.515   4.956 -0.5935 -2.8866  0.7869
   27MOL    H98 3790   0.153   2.661   4.753  0.5780 -2.8778 -1.3839
   27MOL    H99 3791   0.316   2.625   4.742 -0.1010  1.1341  0.5552
   27MOL   C100 3792   0.291   2.859   4.832  0.1557 -0.3566 -0.2432
   27MOL   C101 3793   0.323   2.981   4.915  0.2561  0.0044 -0.0236
   27MOL   O102 3794   0.460   2.976   4.936  1.0049  0.3144  0.3119
   27MOL   H103 3795   0.370   2.838   4.761  0.1801 -1.4676  0.0996
   27MOL   H104 3796   0.203   2.881   4.770 -0.0529  0.3485  0.2968
   27MOL   H105 3797   0.265   2.976   5.008 -1.2241 -0.0362 -0.9391
   27MOL   H106 3798   0.306   3.072   4.858 -0.5947 -0.5380 -0.6497
   27MOL   C107 3799   0.505   3.069   5.031 -0.6593  0.1438 -0.8542
   27MOL   C108 3800   0.645   3.038   5.084 -0.7765 -0.0280 -0.1015
   27MOL   O109 3801   0.747   3.080   4.986 -0.4141 -0.2956  0.2065
   27MOL   H110 3802   0.508   3.168   4.985 -0.9827 -0.8261 -2.9733
   27MOL   H111 3803   0.437   3.057   5.116 -1.0257 -0.3215 -1.2127
   27MOL   H112 3804   0.651   2.934   5.114 -1.9326 -0.2085 -0.4987
   27MOL   H113 3805   0.655   3.090   5.179  1.9295 -2.3986  0.9671
   27MOL   C114 3806   0.873   3.020   5.014  0.0526 -0.0496  0.3455
   27MOL   C115 3807   0.988   3.113   4.967 -0.0297 -0.4887  0.2290
   27MOL   O116 3808   1.017   3.209   5.065 -0.3734 -0.4206  0.0179
   27MOL   H117 3809   0.890   2.986   5.116 -0.1616 -0.6311  0.1900
   27MOL   H118 3810   0.885   2.932   4.951 -0.4379 -0.9589  1.5007
   27MOL   H119 3811   0.956   3.170   4.880 -0.4998 -0.9312  0.1104
   27MOL   H120 3812   1.075   3.052   4.943 -0.0626 -0.4600  0.0416
   27MOL   C121 3813   1.125   3.302   5.039  0.1291  0.4955 -0.1878
   27MOL   C122 3814   1.142   3.399   5.153 -0.4705 -0.1634 -0.5002
   27MOL   O123 3815   1.069   3.523   5.133  0.3506 -0.2263 -0.0171
   27MOL   H124 3816   1.219   3.249   5.021 -0.7416 -1.2758  0.3838
   27MOL   H125 3817   1.097   3.360   4.950 -2.0105 -0.4808 -0.1869
   27MOL   H126 3818   1.249   3.421   5.156 -0.4842  0.1018 -1.6088
   27MOL   H127 3819   1.112   3.348   5.245  0.9660  1.3187  0.8192
   27MOL   C128 3820   0.945   3.516   5.201  0.4649 -0.2044 -0.5212
   27MOL   C129 3821   0.888   3.658   5.219 -0.6498  0.5922  0.0440
   27MOL   O130 3822   0.923   3.711   5.339 -0.7083 -0.4284  0.5256
   27MOL   H131 3823   0.868   3.466   5.142  0.6321  0.1811 -1.0761
   27MOL   H132 3824   0.952   3.462   5.295  0.9487  0.6993 -0.0383
   27MOL   H133 3825   0.780   3.669   5.204 -0.7988 -3.3170 -2.7463
   27MOL   H134 3826   0.927   3.713   5.134 -1.3526  1.7510  0.4629
   27MOL   C135 3827   0.886   3.849   5.344 -0.2298 -0.7836 -0.4044
   27MOL   C136 3828   0.990   3.900   5.445  0.1548  0.3444 -0.2349
   27MOL   O137 3829   0.940   3.881   5.571  0.2127  0.0896 -0.5317
   27MOL   H138 3830   0.889   3.906   5.251  0.8149  0.9446  0.6455
   27MOL   H139 3831   0.782   3.854   5.377 -0.5534  1.3961 -1.6307
   27MOL   H140 3832   0.990   4.008   5.434  0.6324  0.4718  1.0204
   27MOL   H141 3833   1.093   3.868   5.431  0.2039  0.4537 -0.1123
   27MOL   H142 3834   0.848   3.900   5.564  0.2492  1.0394  1.3341
   28MOL     C1 3835   5.704   4.102   6.661  0.1675 -0.2132 -0.1642
   28MOL     C2 3836   5.717   3.986   6.561  0.3593  0.3765  0.8368
   28MOL     O3 3837   5.702   4.038   6.432  0.0064 -0.2030  0.4930
   28MOL     H4 3838   5.697   4.065   6.763 -1.6010  0.3118 -0.0836
   28MOL     H5 3839   5.627   4.177   6.645  0.6840  0.4225  0.2908
   28MOL     H6 3840   5.631   3.922   6.579  1.2752 -0.6499  1.6610
   28MOL     H7 3841   5.801   3.920   6.584  0.2562  0.2197  0.7713
   28MOL     H8 3842   5.792   4.166   6.668 -0.3296  0.1967  2.7327
   28MOL     C9 3843   5.718   3.933   6.327 -0.2976  0.0192 -0.3049
   28MOL    C10 3844   5.719   3.983   6.186  0.1516 -0.1237 -0.1003
   28MOL    O11 3845   5.589   4.030   6.155  0.2820 -0.0195 -0.4417
   28MOL    H12 3846   5.818   3.891   6.336  0.2799  1.7127  1.5489
   28MOL    H13 3847   5.642   3.856   6.341  0.2547 -0.9666 -2.5527
   28MOL    H14 3848   5.738   3.906   6.110  0.5865  0.0503 -0.1684
   28MOL    H15 3849   5.789   4.066   6.175  0.6701 -0.5404 -0.0129
   28MOL    C16 3850   5.582   4.085   6.029 -0.1105 -0.1714  1.2038
   28MOL    C17 3851   5.439   4.094   5.983  0.7464  0.2631  0.6679
   28MOL    O18 3852   5.396   3.977   5.915 -0.4811 -0.0551 -0.5102
   28MOL    H19 3853   5.632   4.182   6.037 -2.3571  1.0593  0.5735
   28MOL    H20 3854   5.647   4.041   5.953  1.1646  1.5955  1.2507
   28MOL    H21 3855   5.427   4.171   5.906  0.2372 -1.2485 -0.7822
   28MOL    H22 3856   5.374   4.117   6.067 -2.0584 -1.2661 -1.0257
   28MOL    C23 3857   5.257   3.959   5.910  0.1490  0.1883 -0.1817
   28MOL    C24 3858   5.200   4.003   5.775 -0.0468 -0.2393  0.4721
   28MOL    O25 3859   5.179   4.145   5.794 -0.4547  0.1689 -0.7986
   28MOL    H26 3860   5.238   3.852   5.921  0.8167  0.0760 -0.1047
   28MOL    H27 3861   5.196   4.006   5.987 -1.8823 -0.5410 -1.3039
   28MOL    H28 3862   5.098   3.969   5.761  0.3873  0.0949 -4.0509
   28MOL    H29 3863   5.261   3.988   5.686  0.6604  2.7583  0.3789
   28MOL    C30 3864   5.082   4.200   5.703  0.7044 -0.0157  0.1266
   28MOL    C31 3865   5.064   4.347   5.733  0.0199  0.1346 -0.3673
   28MOL    O32 3866   5.153   4.410   5.639 -0.2276 -0.3579 -1.0898
   28MOL    H33 3867   5.125   4.186   5.604 -0.8666  0.4215 -0.6341
   28MOL    H34 3868   4.986   4.150   5.708  1.0942 -0.6825  1.0463
   28MOL    H35 3869   5.099   4.373   5.833  2.6384 -2.7628 -0.4530
   28MOL    H36 3870   4.961   4.376   5.712 -0.1981 -0.1471  0.2851
   28MOL    C37 3871   5.186   4.549   5.654  0.0635 -0.4217 -0.3549
   28MOL    C38 3872   5.092   4.639   5.572 -0.1317 -0.6199  0.4943
   28MOL    O39 3873   4.955   4.629   5.624  0.3413  0.3875 -0.2336
   28MOL    H40 3874   5.180   4.586   5.756  0.5462  0.9372 -0.8013
   28MOL    H41 3875   5.290   4.564   5.625  0.6144 -0.1886  1.7040
   28MOL    H42 3876   5.073   4.606   5.470 -0.0010  0.4795  0.1078
   28MOL    H43 3877   5.131   4.741   5.564 -0.7705 -0.5122 -1.4842
   28MOL    C44 3878   4.875   4.725   5.557 -0.4119 -0.1476  0.3802
   28MOL    C45 3879   4.733   4.737   5.608  0.7845 -0.2665  0.6491
   28MOL    O46 3880   4.663   4.625   5.553 -0.3849 -0.4882  0.1636
   28MOL    H47 3881   4.918   4.824   5.548  0.9944 -0.6411  1.3658
   28MOL    H48 3882   4.872   4.700   5.451 -2.3251 -1.5594  0.7219
   28MOL    H49 3883   4.696   4.831   5.568  2.5943  0.6202  0.9944
   28MOL    H50 3884   4.723   4.748   5.716 -2.6373  3.7047  0.0272
   28MOL    C51 3885   4.524   4.637   5.580  0.3261 -0.2905 -0.1878
   28MOL    C52 3886   4.439   4.524   5.511  0.1774 -0.2866 -0.2329
   28MOL    O53 3887   4.318   4.504   5.578 -0.4659 -0.8099  0.3657
   28MOL    H54 3888   4.501   4.622   5.685  1.5366 -2.7603 -0.2516
   28MOL    H55 3889   4.489   4.732   5.538 -0.2017 -0.7498 -0.8077
   28MOL    H56 3890   4.489   4.427   5.518 -0.8206 -0.8744 -1.1762
   28MOL    H57 3891   4.434   4.555   5.407 -0.9291  0.2504 -0.0194
   28MOL    C58 3892   4.216   4.452   5.488 -0.5933  0.0892 -0.7924
   28MOL    C59 3893   4.108   4.380   5.567 -0.3793 -0.2455  0.4500
   28MOL    O60 3894   4.081   4.452   5.688  0.0379 -0.1377  0.1960
   28MOL    H61 3895   4.176   4.536   5.431 -1.7615  0.3336  0.3739
   28MOL    H62 3896   4.260   4.385   5.413  0.4371  0.9137 -0.9436
   28MOL    H63 3897   4.145   4.281   5.593 -0.1906 -0.0509  0.9299
   28MOL    H64 3898   4.015   4.365   5.513  0.6938 -0.5666 -1.3472
   28MOL    C65 3899   4.011   4.378   5.785 -0.1753  0.3771 -0.3306
   28MOL    C66 3900   3.940   4.476   5.875 -0.1548 -0.0668  0.5714
   28MOL    O67 3901   3.832   4.537   5.806 -0.6592 -0.6171 -0.3496
   28MOL    H68 3902   3.937   4.309   5.746 -0.6066  1.2954 -1.1468
   28MOL    H69 3903   4.082   4.311   5.834 -2.6001 -1.1792  1.1402
   28MOL    H70 3904   4.016   4.539   5.921  0.5475  0.1996 -0.9418
   28MOL    H71 3905   3.898   4.417   5.957  1.1437 -3.0123 -0.8205
   28MOL    C72 3906   3.756   4.637   5.883 -0.1335 -0.2411  0.6482
   28MOL    C73 3907   3.680   4.573   6.000  0.7799 -0.3899 -0.2471
   28MOL    O74 3908   3.750   4.578   6.127 -0.5047 -0.9188  0.2806
   28MOL    H75 3909   3.826   4.710   5.926  0.6582  0.4914 -1.7709
   28MOL    H76 3910   3.696   4.685   5.806  2.2836 -0.3740 -1.3835
   28MOL    H77 3911   3.658   4.468   5.978 -1.1979  0.1669 -1.0180
   28MOL    H78 3912   3.583   4.621   6.016  0.8656 -0.6006  1.0244
   28MOL    C79 3913   3.729   4.478   6.229 -0.1115  0.1888  0.1171
   28MOL    C80 3914   3.586   4.490   6.286 -0.2333 -0.6008  0.1841
   28MOL    O81 3915   3.483   4.469   6.187 -0.0983 -0.0264  0.3032
   28MOL    H82 3916   3.743   4.379   6.188  1.0013  0.9115 -1.2879
   28MOL    H83 3917   3.802   4.486   6.310  0.8258 -0.0769 -0.6969
   28MOL    H84 3918   3.576   4.591   6.324  0.0228 -0.0314 -1.2167
   28MOL    H85 3919   3.572   4.429   6.375 -0.6076  0.0084  0.5385
   28MOL    C86 3920   3.348   4.459   6.242  0.5171  0.0062 -0.7567
   28MOL    C87 3921   3.249   4.476   6.118 -0.2907  0.1634 -1.0968
   28MOL    O88 3922   3.203   4.610   6.110  0.4250 -0.2657 -0.2775
   28MOL    H89 3923   3.331   4.360   6.284  0.8913 -0.1685 -1.0153
   28MOL    H90 3924   3.333   4.537   6.317  1.4926  0.2921 -0.8399
   28MOL    H91 3925   3.167   4.409   6.144  1.0582 -0.8981  0.4523
   28MOL    H92 3926   3.297   4.445   6.025  1.7751  1.9967 -0.6943
   28MOL    C93 3927   3.079   4.623   6.038  0.0014 -0.3733 -0.1286
   28MOL    C94 3928   3.009   4.762   6.043 -0.3014 -1.0209 -0.0457
   28MOL    O95 3929   3.068   4.846   5.941  0.8027 -0.9577 -0.1935
   28MOL    H96 3930   3.092   4.592   5.934 -0.4964 -1.4410  0.1177
   28MOL    H97 3931   3.017   4.555   6.097  1.5101 -0.5691  1.2862
   28MOL    H98 3932   3.016   4.811   6.140  1.8320 -3.6616  1.2112
   28MOL    H99 3933   2.902   4.747   6.027 -0.2438 -2.6861  1.0058
   28MOL   C100 3934   2.985   4.960   5.925  1.2586 -0.3279  1.0488
   28MOL   C101 3935   3.030   5.026   5.796  0.6152  0.0942  0.6155
   28MOL   O102 3936   3.004   4.926   5.696 -0.0364  0.3884  0.0629
   28MOL   H103 3937   2.881   4.934   5.906  1.4320 -1.5727  1.7965
   28MOL   H104 3938   2.982   5.024   6.013 -4.2779 -1.1552  1.6254
   28MOL   H105 3939   3.130   5.067   5.786 -0.2174  1.9736 -0.5106
   28MOL   H106 3940   2.958   5.107   5.779  0.2473 -0.3942 -0.1884
   28MOL   C107 3941   3.045   4.973   5.569 -0.4292  0.0298 -0.3364
   28MOL   C108 3942   2.987   4.865   5.479 -0.0379  0.0032 -0.3431
   28MOL   O109 3943   3.017   4.731   5.493 -0.4785  0.2199 -0.2296
   28MOL   H110 3944   3.000   5.069   5.542 -0.0020  0.0242 -1.0956
   28MOL   H111 3945   3.153   4.988   5.572 -0.7616  2.8635 -1.4557
   28MOL   H112 3946   3.023   4.896   5.381  0.7556 -0.8670 -0.3384
   28MOL   H113 3947   2.878   4.871   5.482 -0.0335 -0.2411  1.0048
   28MOL   C114 3948   2.976   4.652   5.386  0.2435 -0.2080 -0.0433
   28MOL   C115 3949   3.035   4.512   5.391 -0.3346 -0.2390  0.1901
   28MOL   O116 3950   3.177   4.520   5.372  0.4350  0.0325  0.1005
   28MOL   H117 3951   2.867   4.655   5.385  0.2965  2.4402 -1.8402
   28MOL   H118 3952   3.009   4.698   5.293 -1.0726  0.4221 -0.2205
   28MOL   H119 3953   2.999   4.453   5.306  1.6547 -0.4401 -0.5438
   28MOL   H120 3954   3.007   4.456   5.479 -0.1105 -0.8753 -0.1390
   28MOL   C121 3955   3.239   4.394   5.393 -0.5249 -0.6473  0.6925
   28MOL   C122 3956   3.382   4.386   5.347 -0.2166 -0.6689  0.1792
   28MOL   O123 3957   3.370   4.405   5.201 -0.0661 -0.7959  0.0721
   28MOL   H124 3958   3.224   4.356   5.494 -1.1528  3.5815  2.2880
   28MOL   H125 3959   3.177   4.321   5.339 -1.4691  0.2768  0.5185
   28MOL   H126 3960   3.421   4.295   5.392  1.3692  0.3934  1.0339
   28MOL   H127 3961   3.448   4.466   5.382 -0.0336  0.5057 -2.6538
   28MOL   C128 3962   3.498   4.413   5.133 -0.1338  0.5207  0.0637
   28MOL   C129 3963   3.471   4.434   4.983 -0.3634  1.0129  0.3637
   28MOL   O130 3964   3.446   4.575   4.968 -0.0740  0.1918  0.1983
   28MOL   H131 3965   3.571   4.483   5.175 -0.9013  1.6264 -0.4235
   28MOL   H132 3966   3.543   4.314   5.145 -1.6753 -0.4938 -2.2382
   28MOL   H133 3967   3.387   4.380   4.941  0.3361  0.4568 -0.3409
   28MOL   H134 3968   3.558   4.399   4.926 -0.9954 -0.3098  0.1879
   28MOL   C135 3969   3.410   4.625   4.834  0.0948 -0.5047 -0.1307
   28MOL   C136 3970   3.352   4.763   4.851 -0.2089 -0.0338  0.3411
   28MOL   O137 3971   3.234   4.755   4.919  0.6167  0.1779  0.6399
   28MOL   H138 3972   3.498   4.615   4.771  1.0308  1.2660  0.8547
   28MOL   H139 3973   3.335   4.568   4.779  0.1236 -0.1987 -0.4816
   28MOL   H140 3974   3.328   4.805   4.754 -0.1928 -1.6356 -0.3732
   28MOL   H141 3975   3.425   4.819   4.910 -1.7153 -2.1082  4.3385
   28MOL   H142 3976   3.263   4.724   5.004  1.7036  1.5898  0.8199
   29MOL     C1 3977   2.826   0.551   4.456  0.1524  0.4015 -0.4765
   29MOL     C2 3978   2.903   0.434   4.519 -0.3575 -0.4713 -0.3618
   29MOL     O3 3979   2.894   0.457   4.661 -0.1193 -0.1547 -0.2481
   29MOL     H4 3980   2.717   0.542   4.462  0.4136 -1.9075  1.5601
   29MOL     H5 3981   2.861   0.569   4.354  2.1245  1.9124  0.4324
   29MOL     H6 3982   3.007   0.445   4.487 -0.8597  0.8504 -1.5607
   29MOL     H7 3983   2.864   0.336   4.491  0.4138 -1.3466  1.5344
   29MOL     H8 3984   2.854   0.642   4.509  2.9485 -0.0978 -1.0523
   29MOL     C9 3985   2.796   0.374   4.726 -0.5296  0.8319 -0.0882
   29MOL    C10 3986   2.780   0.431   4.875 -0.2422  0.8877  0.2473
   29MOL    O11 3987   2.683   0.355   4.950  0.1013 -0.4488 -0.1273
   29MOL    H12 3988   2.699   0.380   4.675 -0.3618  2.8052 -0.2266
   29MOL    H13 3989   2.825   0.270   4.730 -0.3713  0.9276  1.6581
   29MOL    H14 3990   2.765   0.539   4.881 -0.5794  0.8542  0.0502
   29MOL    H15 3991   2.876   0.420   4.925  0.2178  1.9069 -0.3884
   29MOL    C16 3992   2.616   0.416   5.069 -0.3834 -0.2279 -0.1106
   29MOL    C17 3993   2.712   0.401   5.189  0.1782 -0.0363 -0.6287
   29MOL    O18 3994   2.822   0.488   5.158  0.9399  0.2321  0.4285
   29MOL    H19 3995   2.589   0.521   5.056  0.2330  0.0152  0.5054
   29MOL    H20 3996   2.520   0.367   5.085 -1.2362  1.4134 -0.1322
   29MOL    H21 3997   2.749   0.298   5.190  0.8384  0.1950  1.2329
   29MOL    H22 3998   2.678   0.440   5.285  2.8431  0.9799 -0.0534
   29MOL    C23 3999   2.929   0.490   5.244 -0.0484  0.5663  0.7411
   29MOL    C24 4000   3.037   0.565   5.170  0.1225  0.4637  0.9206
   29MOL    O25 4001   3.144   0.574   5.264 -0.5810  0.3112 -0.2907
   29MOL    H26 4002   2.901   0.539   5.338 -0.9922  0.8282  0.3252
   29MOL    H27 4003   2.966   0.390   5.268  1.2133  0.6700 -0.7257
   29MOL    H28 4004   3.014   0.665   5.132  2.9272  1.0738  0.7106
   29MOL    H29 4005   3.071   0.515   5.080 -1.9480  0.9683 -0.1809
   29MOL    C30 4006   3.263   0.643   5.220  0.7391  0.4839  0.0968
   29MOL    C31 4007   3.373   0.651   5.325  0.6183 -0.3218 -0.1445
   29MOL    O32 4008   3.449   0.529   5.336  0.0338 -0.1888  0.5635
   29MOL    H33 4009   3.299   0.587   5.134  0.2771 -2.7074  1.8751
   29MOL    H34 4010   3.235   0.745   5.197  2.0108  0.6784 -0.6247
   29MOL    H35 4011   3.325   0.682   5.418 -0.8495 -0.5386 -0.8039
   29MOL    H36 4012   3.440   0.733   5.301  1.1450  0.0050  2.3011
   29MOL    C37 4013   3.536   0.550   5.442 -0.9745 -0.2378  0.5464
   29MOL    C38 4014   3.611   0.418   5.470 -0.3234  0.5839 -0.3890
   29MOL    O39 4015   3.714   0.387   5.374  0.5846  0.0894  0.0634
   29MOL    H40 4016   3.608   0.632   5.432 -0.9582 -0.3830 -0.5800
   29MOL    H41 4017   3.478   0.576   5.531 -0.3278 -1.2058  1.2708
   29MOL    H42 4018   3.537   0.338   5.479  0.7587 -0.1380  2.4296
   29MOL    H43 4019   3.665   0.408   5.563  0.4879 -0.0233 -0.9140
   29MOL    C44 4020   3.804   0.280   5.410 -0.3697 -0.7061  0.5334
   29MOL    C45 4021   3.922   0.295   5.317  0.2366 -0.0341 -0.0876
   29MOL    O46 4022   4.027   0.387   5.365 -0.1272 -0.1255 -0.4834
   29MOL    H47 4023   3.839   0.282   5.513  1.3273  0.7332 -0.0433
   29MOL    H48 4024   3.740   0.192   5.408 -1.0613 -0.2269  1.4143
   29MOL    H49 4025   3.868   0.335   5.232 -1.9599 -0.6127  1.0018
   29MOL    H50 4026   3.963   0.202   5.276 -1.0421 -0.3129 -0.7660
   29MOL    C51 4027   3.986   0.524   5.368 -0.2721  0.4221 -0.5909
   29MOL    C52 4028   4.098   0.617   5.417  0.0146 -0.2381 -0.3112
   29MOL    O53 4029   4.104   0.640   5.558 -0.2095 -0.5859 -0.3447
   29MOL    H54 4030   3.968   0.549   5.264 -1.1589 -0.4756 -0.6593
   29MOL    H55 4031   3.890   0.534   5.418  0.1107  0.6268  0.1092
   29MOL    H56 4032   4.081   0.719   5.382  0.4085  0.3183  1.0995
   29MOL    H57 4033   4.200   0.595   5.385 -0.0529 -0.4938 -0.3521
   29MOL    C58 4034   4.121   0.520   5.641 -0.4153  0.1834  0.1105
   29MOL    C59 4035   4.096   0.545   5.800  1.0749 -0.4395 -0.7317
   29MOL    O60 4036   3.958   0.586   5.812  0.1968 -0.8741 -0.5305
   29MOL    H61 4037   4.055   0.444   5.600  0.2719 -1.1225  1.3708
   29MOL    H62 4038   4.222   0.486   5.616  0.2251  1.9252  0.2633
   29MOL    H63 4039   4.168   0.612   5.849  0.8355 -1.0554  0.4912
   29MOL    H64 4040   4.113   0.453   5.855 -1.5005 -0.1854  0.5572
   29MOL    C65 4041   3.924   0.651   5.936 -0.0876  0.6930 -0.4425
   29MOL    C66 4042   3.808   0.750   5.911 -0.3870  0.0117  0.1870
   29MOL    O67 4043   3.691   0.672   5.917  0.1001 -0.1053 -0.1360
   29MOL    H68 4044   3.893   0.570   6.003  0.0222  1.4566  0.5504
   29MOL    H69 4045   4.016   0.692   5.977  0.3561 -0.3049 -0.4234
   29MOL    H70 4046   3.811   0.811   5.820 -1.6547  1.9812  1.4106
   29MOL    H71 4047   3.806   0.812   6.001 -1.2494  2.3429 -1.3656
   29MOL    C72 4048   3.638   0.604   5.799 -0.0750  0.0093  0.1616
   29MOL    C73 4049   3.544   0.497   5.853  0.1604  0.3725  0.4235
   29MOL    O74 4050   3.413   0.555   5.847  0.1825  0.0677 -0.5947
   29MOL    H75 4051   3.580   0.675   5.738 -0.2250 -1.1610 -1.0789
   29MOL    H76 4052   3.724   0.560   5.749 -0.6041  0.1231 -0.8542
   29MOL    H77 4053   3.575   0.470   5.954  3.7748 -0.3333 -0.7795
   29MOL    H78 4054   3.547   0.411   5.786  1.2201 -2.6572  4.1613
   29MOL    C79 4055   3.317   0.451   5.867  0.3839  0.1034 -0.1305
   29MOL    C80 4056   3.222   0.444   5.746 -0.0248  0.6633 -0.5531
   29MOL    O81 4057   3.271   0.368   5.639  0.0452 -0.5140 -0.0460
   29MOL    H82 4058   3.354   0.354   5.903 -3.3973 -0.4941  2.4375
   29MOL    H83 4059   3.265   0.496   5.951 -0.2404  0.3469 -0.6441
   29MOL    H84 4060   3.202   0.544   5.707  1.2931  1.2343  0.2032
   29MOL    H85 4061   3.131   0.399   5.786  0.3429 -0.4101 -0.9262
   29MOL    C86 4062   3.191   0.375   5.518  0.9371  0.7504  0.3511
   29MOL    C87 4063   3.087   0.259   5.518  0.8137  0.0513  0.5177
   29MOL    O88 4064   2.984   0.282   5.614 -0.0219  0.5920  0.4065
   29MOL    H89 4065   3.141   0.472   5.509 -0.3308  0.0335 -0.5174
   29MOL    H90 4066   3.262   0.363   5.437  0.2240 -2.1218  0.0826
   29MOL    H91 4067   3.138   0.174   5.563  1.2388  0.8758  1.6259
   29MOL    H92 4068   3.050   0.224   5.421  0.7739 -1.0774  0.9255
   29MOL    C93 4069   2.861   0.207   5.613 -0.2048 -0.2729  0.1785
   29MOL    C94 4070   2.752   0.276   5.685  0.2823 -0.7380 -0.6256
   29MOL    O95 4071   2.696   0.376   5.596 -0.0277  0.3915 -1.0114
   29MOL    H96 4072   2.829   0.191   5.510  2.1477  1.9814 -0.9545
   29MOL    H97 4073   2.868   0.106   5.652 -1.3908  0.0954  1.3815
   29MOL    H98 4074   2.777   0.304   5.787  1.8725  0.2979 -1.2714
   29MOL    H99 4075   2.675   0.200   5.703 -0.3223 -0.5440 -2.3089
   29MOL   C100 4076   2.603   0.454   5.672  0.1196  0.9858  0.4867
   29MOL   C101 4077   2.549   0.545   5.569 -0.3274 -0.0534 -0.1145
   29MOL   O102 4078   2.429   0.495   5.503 -0.0406  0.1941  0.2461
   29MOL   H103 4079   2.533   0.382   5.715 -0.6091  1.4565  0.1067
   29MOL   H104 4080   2.647   0.509   5.755  1.9898 -1.7993  1.3987
   29MOL   H105 4081   2.622   0.576   5.494 -1.1927  0.7430 -0.6414
   29MOL   H106 4082   2.520   0.636   5.620  0.3197  1.0975 -1.7466
   29MOL   C107 4083   2.399   0.564   5.382 -0.0434 -0.2035 -0.4364
   29MOL   C108 4084   2.269   0.521   5.312  0.0711 -0.1300 -0.1124
   29MOL   O109 4085   2.289   0.414   5.231 -0.4071  0.3228  0.1733
   29MOL   H110 4086   2.405   0.672   5.400  0.3783 -0.0423 -1.5020
   29MOL   H111 4087   2.482   0.543   5.314  1.3575 -2.2551  1.8392
   29MOL   H112 4088   2.238   0.608   5.254  0.1570  0.1641  0.2786
   29MOL   H113 4089   2.182   0.503   5.376  0.7213 -1.2135  0.4690
   29MOL   C114 4090   2.175   0.391   5.154  0.1785 -0.2758  0.0194
   29MOL   C115 4091   2.181   0.249   5.093  0.8430 -0.2709 -0.8658
   29MOL   O116 4092   2.256   0.254   4.972  0.1077 -0.2431 -0.0797
   29MOL   H117 4093   2.080   0.395   5.208 -0.1321  1.1713 -0.5989
   29MOL   H118 4094   2.172   0.466   5.075  1.5488  1.4620  1.5953
   29MOL   H119 4095   2.080   0.213   5.075 -0.3361  2.2038  0.5855
   29MOL   H120 4096   2.233   0.176   5.155  0.4778 -1.3067 -1.7736
   29MOL   C121 4097   2.269   0.131   4.906 -0.0463 -0.0861  0.6334
   29MOL   C122 4098   2.140   0.050   4.858 -0.1696  0.2482 -0.1810
   29MOL   O123 4099   2.084   7.747   4.958 -0.1341 -0.0599 -0.3573
   29MOL   H124 4100   2.317   0.167   4.815 -0.5192  1.0146  0.8138
   29MOL   H125 4101   2.338   0.063   4.956  0.5433  0.9814  1.2898
   29MOL   H126 4102   2.173   7.752   4.779 -0.8443 -1.4898  1.0333
   29MOL   H127 4103   2.075   0.124   4.811 -0.6019 -0.0914 -0.1139
   29MOL   C128 4104   1.942   7.731   4.934  0.1498 -0.3692  0.3082
   29MOL   C129 4105   1.870   7.718   5.068  0.0176 -0.3244 -0.5008
   29MOL   O130 4106   1.809   0.068   5.105 -0.7354  0.0878  0.3094
   29MOL   H131 4107   1.903   0.043   4.875 -0.6393 -1.6998 -1.0859
   29MOL   H132 4108   1.936   7.641   4.872  0.4366 -0.8595  0.9846
   29MOL   H133 4109   1.945   7.697   5.144 -0.5902  1.2852  0.5776
   29MOL   H134 4110   1.799   7.636   5.058 -1.0422  0.3438  1.4793
   29MOL   C135 4111   1.770   0.078   5.239 -0.1937  0.1998  0.0715
   29MOL   C136 4112   1.698   0.210   5.246  0.1495  0.1587  0.8506
   29MOL   O137 4113   1.790   0.307   5.203  0.3005  0.8503 -0.4910
   29MOL   H138 4114   1.695   0.005   5.269  1.3619 -0.0276  3.6682
   29MOL   H139 4115   1.845   0.071   5.319 -0.5684  0.6631  0.4628
   29MOL   H140 4116   1.651   0.234   5.341 -1.7246  3.9333 -0.9178
   29MOL   H141 4117   1.619   0.216   5.170  0.7471  1.7342  0.3440
   29MOL   H142 4118   1.838   0.270   5.131  0.5712  0.1148  0.0596
   30MOL     C1 4119   3.041   0.957   4.874  0.0647 -0.7430  0.4556
   30MOL     C2 4120   2.892   0.940   4.866 -0.0447  0.3759 -0.7069
   30MOL     O3 4121   2.856   0.895   4.993  0.4771 -0.0055 -0.2542
   30MOL     H4 4122   3.079   0.858   4.898  1.1466 -0.5577 -0.4648
   30MOL     H5 4123   3.070   1.032   4.948  0.0105 -1.2194  0.9631
   30MOL     H6 4124   2.865   0.870   4.786 -0.0947 -0.3392 -0.0639
   30MOL     H7 4125   2.857   1.040   4.840  0.2533  0.4498 -0.8238
   30MOL     H8 4126   3.084   0.989   4.779  0.1538 -1.9993  0.0615
   30MOL     C9 4127   2.730   0.843   5.009 -0.2733  0.1508  0.2140
   30MOL    C10 4128   2.714   0.798   5.157  0.3878 -0.1193  0.3912
   30MOL    O11 4129   2.695   0.910   5.244 -0.5580 -0.0154 -0.3516
   30MOL    H12 4130   2.651   0.907   4.969 -0.5408 -0.7834 -0.7470
   30MOL    H13 4131   2.723   0.760   4.940 -1.1485 -0.3003  0.8325
   30MOL    H14 4132   2.802   0.741   5.188 -0.2679 -0.5968  1.4121
   30MOL    H15 4133   2.631   0.727   5.159 -0.2996  0.6865  1.1344
   30MOL    C16 4134   2.658   0.866   5.370  0.5621 -0.0817  0.1566
   30MOL    C17 4135   2.631   0.998   5.447  0.7578 -0.5384 -0.5131
   30MOL    O18 4136   2.505   1.045   5.399  0.2142 -0.2551 -0.0897
   30MOL    H19 4137   2.567   0.807   5.369  0.5020  0.0182 -0.3108
   30MOL    H20 4138   2.736   0.812   5.424 -0.4072 -1.2654  0.3879
   30MOL    H21 4139   2.708   1.069   5.418  1.2231 -0.9427 -0.2714
   30MOL    H22 4140   2.616   0.975   5.553  2.1633  2.4004  0.3623
   30MOL    C23 4141   2.481   1.178   5.441 -0.6674  0.6026 -0.1335
   30MOL    C24 4142   2.336   1.213   5.413 -0.4001  0.1384  0.2023
   30MOL    O25 4143   2.335   1.303   5.303  0.4474  0.1729  0.1687
   30MOL    H26 4144   2.511   1.187   5.546 -1.1632 -0.0256  0.0636
   30MOL    H27 4145   2.551   1.242   5.388 -0.3764 -0.5191 -1.1112
   30MOL    H28 4146   2.278   1.254   5.496 -3.8840 -0.0018 -2.0160
   30MOL    H29 4147   2.284   1.118   5.393  0.2994 -0.2676  0.3080
   30MOL    C30 4148   2.204   1.352   5.272 -0.4822  0.3424  0.1184
   30MOL    C31 4149   2.192   1.416   5.136 -0.5155  0.1134  0.7757
   30MOL    O32 4150   2.265   1.541   5.141  0.2803 -0.2454  0.0088
   30MOL    H33 4151   2.133   1.269   5.280  0.4443 -0.6470 -1.6690
   30MOL    H34 4152   2.174   1.416   5.355  1.9798  0.0786  1.2455
   30MOL    H35 4153   2.086   1.432   5.114  0.2527 -0.2036 -3.6477
   30MOL    H36 4154   2.231   1.354   5.056 -0.6649  1.9545 -0.7780
   30MOL    C37 4155   2.286   1.610   5.018  0.7432  0.2609  0.7297
   30MOL    C38 4156   2.160   1.639   4.936 -0.2617 -0.4979  0.1177
   30MOL    O39 4157   2.116   1.515   4.877 -0.6130 -0.2321  0.6379
   30MOL    H40 4158   2.335   1.705   5.040  0.8027  0.3887  0.0688
   30MOL    H41 4159   2.352   1.554   4.952 -1.6116 -0.6881 -0.8649
   30MOL    H42 4160   2.178   1.710   4.856 -1.9370  2.0544  1.9335
   30MOL    H43 4161   2.084   1.687   4.999  1.9281  0.5613  2.0326
   30MOL    C44 4162   1.991   1.515   4.806 -0.3170  0.6864  0.9520
   30MOL    C45 4163   1.946   1.373   4.761  0.2681 -0.9690  0.2519
   30MOL    O46 4164   1.892   1.379   4.628  0.0603 -0.2412  0.0779
   30MOL    H47 4165   1.906   1.547   4.867  0.3316  1.6906  1.3379
   30MOL    H48 4166   1.996   1.587   4.725 -0.7727  1.3305  1.4900
   30MOL    H49 4167   1.872   1.332   4.830 -2.4615 -0.1802 -2.1141
   30MOL    H50 4168   2.034   1.311   4.775  0.4381 -1.0003 -0.8896
   30MOL    C51 4169   1.769   1.447   4.624  0.2533  0.0983 -0.1004
   30MOL    C52 4170   1.696   1.423   4.489  0.2943 -0.4270  0.0607
   30MOL    O53 4171   1.766   1.483   4.372 -0.4749  0.8142  0.3762
   30MOL    H54 4172   1.711   1.423   4.712  1.9753 -0.8815  0.7958
   30MOL    H55 4173   1.780   1.556   4.626  2.3287 -0.0721 -0.8011
   30MOL    H56 4174   1.594   1.462   4.494 -0.1791 -1.6609  0.1012
   30MOL    H57 4175   1.676   1.317   4.474  0.3082 -0.5525  0.9438
   30MOL    C58 4176   1.701   1.466   4.250  0.1389 -0.3028  0.5449
   30MOL    C59 4177   1.767   1.528   4.130 -0.4748 -0.5262  0.0602
   30MOL    O60 4178   1.736   1.670   4.122  0.0055  0.6620 -0.1347
   30MOL    H61 4179   1.696   1.359   4.228  0.5453  0.1771 -2.0690
   30MOL    H62 4180   1.602   1.510   4.260  0.1638 -0.3521  1.0411
   30MOL    H63 4181   1.736   1.476   4.040  2.1283 -0.4966 -0.8842
   30MOL    H64 4182   1.876   1.524   4.132 -0.3636  1.6628 -0.4612
   30MOL    C65 4183   1.798   1.722   4.003 -0.2867 -0.1114  0.6389
   30MOL    C66 4184   1.759   1.867   3.984  0.1771  0.4672  0.4924
   30MOL    O67 4185   1.814   1.953   4.083  0.1845  0.0076 -0.2955
   30MOL    H68 4186   1.906   1.716   3.990 -0.1327  0.1562  1.7072
   30MOL    H69 4187   1.747   1.675   3.919  0.4623  0.4320 -0.1347
   30MOL    H70 4188   1.651   1.877   3.983  0.1496  0.7204 -3.1859
   30MOL    H71 4189   1.798   1.895   3.886  0.9802 -0.7243  0.4574
   30MOL    C72 4190   1.742   2.069   4.104  0.1266  0.2210  0.3536
   30MOL    C73 4191   1.815   2.168   4.205 -0.0896 -0.4403 -0.0124
   30MOL    O74 4192   1.706   2.247   4.262 -0.4628  0.2750 -0.0974
   30MOL    H75 4193   1.728   2.122   4.010  1.2256  2.4242  1.3893
   30MOL    H76 4194   1.642   2.043   4.138  0.5382 -2.8959 -0.5917
   30MOL    H77 4195   1.902   2.211   4.154 -0.5319 -1.2090 -1.4426
   30MOL    H78 4196   1.850   2.103   4.284  0.0388 -1.0880 -0.5969
   30MOL    C79 4197   1.739   2.299   4.384  0.5729 -0.2533 -0.3483
   30MOL    C80 4198   1.864   2.390   4.381  0.9053 -0.2331  0.4463
   30MOL    O81 4199   1.988   2.316   4.363 -0.3808  0.3370 -0.8476
   30MOL    H82 4200   1.652   2.351   4.423  1.3055  0.2453  0.6709
   30MOL    H83 4201   1.769   2.227   4.461  0.3509  1.2084  1.1468
   30MOL    H84 4202   1.875   2.443   4.475  0.0168 -0.2366  0.5566
   30MOL    H85 4203   1.855   2.473   4.310 -0.1861  0.0663  0.9317
   30MOL    C86 4204   2.111   2.388   4.325 -0.4550  0.0430  0.1784
   30MOL    C87 4205   2.246   2.315   4.323 -0.7862  0.1252  0.5818
   30MOL    O88 4206   2.290   2.311   4.457  0.1782  0.3677  0.7541
   30MOL    H89 4207   2.102   2.434   4.226  0.3414 -0.2810 -0.0488
   30MOL    H90 4208   2.119   2.483   4.378  0.3529  0.2677 -0.3456
   30MOL    H91 4209   2.320   2.370   4.266 -1.6693  1.1932  0.4429
   30MOL    H92 4210   2.228   2.214   4.287  2.5425  0.3317 -1.8334
   30MOL    C93 4211   2.422   2.250   4.464 -0.0846 -0.6650  0.3860
   30MOL    C94 4212   2.476   2.257   4.609 -0.5436  0.0175 -0.4944
   30MOL    O95 4213   2.493   2.392   4.668 -0.1144  0.3699 -0.2142
   30MOL    H96 4214   2.423   2.148   4.427  0.6511 -0.3933 -0.3620
   30MOL    H97 4215   2.487   2.311   4.402 -0.6245 -0.6889 -0.2039
   30MOL    H98 4216   2.580   2.227   4.599 -0.8077 -1.0663 -0.0073
   30MOL    H99 4217   2.427   2.189   4.678 -2.7473 -0.8759 -2.8578
   30MOL   C100 4218   2.557   2.388   4.801  0.4571 -0.0133 -0.3824
   30MOL   C101 4219   2.573   2.531   4.866  0.1172  0.5995  0.0022
   30MOL   O102 4220   2.676   2.603   4.801 -0.1053 -0.3993 -0.3469
   30MOL   H103 4221   2.503   2.316   4.863 -1.3622  0.7904 -0.9867
   30MOL   H104 4222   2.656   2.347   4.783  0.6508 -0.8262  2.3441
   30MOL   H105 4223   2.602   2.506   4.968 -1.6305 -1.4865  0.0224
   30MOL   H106 4224   2.473   2.573   4.873  0.0862  0.5180  0.0546
   30MOL   C107 4225   2.621   2.688   4.700 -0.3397 -0.1019  0.1014
   30MOL   C108 4226   2.730   2.778   4.643  0.4364 -0.0408  0.0506
   30MOL   O109 4227   2.732   2.903   4.705  0.3379 -0.2817  0.3361
   30MOL   H110 4228   2.595   2.622   4.618 -0.4466 -0.0747  0.1135
   30MOL   H111 4229   2.538   2.748   4.739 -0.2274  0.9568 -1.2658
   30MOL   H112 4230   2.702   2.794   4.539  2.8723  0.6259 -0.5404
   30MOL   H113 4231   2.826   2.727   4.639  0.2145 -0.3347 -1.8500
   30MOL   C114 4232   2.806   2.900   4.829  0.3008  0.7158 -0.0702
   30MOL   C115 4233   2.812   3.042   4.887  0.3205 -0.3661 -0.2737
   30MOL   O116 4234   2.917   3.114   4.823  0.1123 -0.0460  0.1092
   30MOL   H117 4235   2.745   2.843   4.900  0.1623  0.8208 -0.1048
   30MOL   H118 4236   2.899   2.843   4.826 -0.7792 -1.0753 -0.3192
   30MOL   H119 4237   2.812   3.037   4.996 -1.1679 -1.0866 -0.3090
   30MOL   H120 4238   2.715   3.085   4.864  0.5763  0.7822  0.7424
   30MOL   C121 4239   2.964   3.225   4.907  0.6538  0.4876  0.2371
   30MOL   C122 4240   3.051   3.182   5.029 -0.0772 -0.5779  0.4003
   30MOL   O123 4241   3.185   3.161   4.999 -0.0662 -0.5598 -0.2701
   30MOL   H124 4242   3.020   3.286   4.835 -0.8704 -0.4973 -1.8299
   30MOL   H125 4243   2.884   3.282   4.952  0.1037  0.1835 -0.3516
   30MOL   H126 4244   2.999   3.104   5.083  3.0850 -2.6213  0.5887
   30MOL   H127 4245   3.053   3.264   5.101 -0.0443 -0.9920  0.8679
   30MOL   C128 4246   3.206   3.041   4.931  0.0797  1.1497 -0.1876
   30MOL   C129 4247   3.350   2.997   4.929 -1.3178  0.1631  0.4890
   30MOL   O130 4248   3.347   2.882   5.015  0.4027  0.8100 -0.0837
   30MOL   H131 4249   3.141   2.960   4.964 -0.0812  2.4426  2.8242
   30MOL   H132 4250   3.174   3.053   4.827  1.1458  1.8314 -0.4435
   30MOL   H133 4251   3.409   3.081   4.966 -1.0924  0.3735 -0.3365
   30MOL   H134 4252   3.402   2.973   4.836 -0.3808 -0.4934  1.1802
   30MOL   C135 4253   3.474   2.828   5.039  0.2418 -0.2085 -0.1178
   30MOL   C136 4254   3.504   2.720   4.944 -0.5917 -0.4046  0.8965
   30MOL   O137 4255   3.570   2.779   4.827  0.0798 -0.1064  0.7984
   30MOL   H138 4256   3.547   2.903   5.070  2.0281 -2.4469  1.2854
   30MOL   H139 4257   3.460   2.774   5.133  1.7790 -3.2852 -1.5905
   30MOL   H140 4258   3.405   2.678   4.925 -0.4847 -0.5174  0.5821
   30MOL   H141 4259   3.569   2.639   4.978  1.8685  1.2358  0.2028
   30MOL   H142 4260   3.663   2.764   4.833  0.0955 -0.4467 -0.2533
   31MOL     C1 4261   5.623   6.216   5.352 -0.1590  0.4877 -0.1728
   31MOL     C2 4262   5.511   6.154   5.262  0.5589  0.8061  0.3744
   31MOL     O3 4263   5.405   6.225   5.316  0.0325  0.8718 -0.0055
   31MOL     H4 4264   5.604   6.202   5.458 -1.2580  0.1792 -0.4111
   31MOL     H5 4265   5.634   6.322   5.332  0.6159  0.5596  0.5718
   31MOL     H6 4266   5.495   6.048   5.281  1.3452  0.2467 -1.8516
   31MOL     H7 4267   5.509   6.170   5.154  0.0784 -1.8302 -0.0278
   31MOL     H8 4268   5.723   6.181   5.324  0.2868  0.6724  1.1413
   31MOL     C9 4269   5.288   6.217   5.235 -0.0856  0.0957 -0.1434
   31MOL    C10 4270   5.180   6.308   5.295  0.7601  0.0514 -0.1560
   31MOL    O11 4271   5.201   6.444   5.265 -0.1001  0.5850  0.0394
   31MOL    H12 4272   5.303   6.249   5.131  1.7346 -1.3935 -0.3579
   31MOL    H13 4273   5.255   6.114   5.226 -1.1563  0.4079  0.0354
   31MOL    H14 4274   5.186   6.299   5.404  0.3651 -1.6161 -0.2615
   31MOL    H15 4275   5.083   6.265   5.271  0.6461 -0.2149  0.7448
   31MOL    C16 4276   5.313   6.515   5.321  0.4342 -0.1052  0.3456
   31MOL    C17 4277   5.288   6.672   5.316  0.5203  0.5039  0.5165
   31MOL    O18 4278   5.203   6.723   5.419  0.1296 -0.0994 -0.5520
   31MOL    H19 4279   5.336   6.487   5.424 -0.4534 -1.9993  0.0453
   31MOL    H20 4280   5.399   6.480   5.265 -1.8885 -0.4135 -3.2055
   31MOL    H21 4281   5.239   6.713   5.228 -0.4811 -0.7464  0.4847
   31MOL    H22 4282   5.383   6.724   5.329 -0.5320  2.4407  0.5089
   31MOL    C23 4283   5.273   6.790   5.521  0.0686 -0.7390  0.6944
   31MOL    C24 4284   5.245   6.944   5.510 -0.6785 -0.3743 -0.5906
   31MOL    O25 4285   5.324   6.981   5.401 -0.4119 -0.3347 -0.5772
   31MOL    H26 4286   5.226   6.766   5.616 -1.3151  0.8463  0.4421
   31MOL    H27 4287   5.379   6.767   5.528  0.4387  1.0222  1.1437
   31MOL    H28 4288   5.289   6.974   5.606  0.9328 -2.1810 -0.7268
   31MOL    H29 4289   5.139   6.968   5.503 -0.9625 -0.5781  2.1978
   31MOL    C30 4290   5.313   7.118   5.363  0.1392  0.0687  0.1236
   31MOL    C31 4291   5.359   7.145   5.215  0.6944  0.4659 -0.1157
   31MOL    O32 4292   5.236   7.146   5.140  0.0707 -0.6173 -0.1735
   31MOL    H33 4293   5.217   7.165   5.383 -0.6087 -0.9577 -0.9662
   31MOL    H34 4294   5.376   7.164   5.439 -0.9018  0.5045  0.7380
   31MOL    H35 4295   5.414   7.058   5.181 -0.0865  0.2763 -0.9232
   31MOL    H36 4296   5.412   7.239   5.204 -1.9092  1.8475 -1.4440
   31MOL    C37 4297   5.260   7.173   4.998 -0.3087 -0.7069  0.3122
   31MOL    C38 4298   5.129   7.149   4.923 -0.2044  0.2593  0.1573
   31MOL    O39 4299   5.036   7.255   4.937 -1.1928  0.3839  0.0893
   31MOL    H40 4300   5.282   7.278   4.981 -0.1254 -0.7191  0.4709
   31MOL    H41 4301   5.340   7.106   4.968  0.1999  0.0971 -0.1352
   31MOL    H42 4302   5.085   7.066   4.979  3.8734 -1.3665  1.1342
   31MOL    H43 4303   5.147   7.123   4.819  0.4143  0.5384  0.1957
   31MOL    C44 4304   4.919   7.244   4.855 -0.4701 -0.0370 -0.5665
   31MOL    C45 4305   4.856   7.384   4.847  0.1857  0.1457 -0.0929
   31MOL    O46 4306   4.777   7.401   4.965 -0.0515  0.3909  0.7057
   31MOL    H47 4307   4.945   7.205   4.756  0.5311  0.2001 -0.4068
   31MOL    H48 4308   4.849   7.175   4.901  0.3053 -1.4484 -1.4484
   31MOL    H49 4309   4.794   7.398   4.758  0.8962  0.6864 -0.5055
   31MOL    H50 4310   4.943   7.449   4.839 -0.8052  1.4489 -0.4423
   31MOL    C51 4311   4.702   7.522   4.957 -0.0393  0.3163  0.0213
   31MOL    C52 4312   4.638   7.540   5.092  0.7520  0.0828 -0.3631
   31MOL    O53 4313   4.740   7.558   5.182  1.0150 -0.4405 -0.1596
   31MOL    H54 4314   4.750   7.615   4.927  0.8119  0.3313  1.3917
   31MOL    H55 4315   4.621   7.509   4.885 -0.9272  2.0099  0.6898
   31MOL    H56 4316   4.577   7.453   5.115  1.3346 -0.1432  0.3523
   31MOL    H57 4317   4.580   7.632   5.094  0.3317 -0.2199  2.0345
   31MOL    C58 4318   4.702   7.545   5.319 -0.1651 -0.4459  0.1190
   31MOL    C59 4319   4.821   7.600   5.394  0.3486 -0.3902  0.3321
   31MOL    O60 4320   4.790   7.661   5.523  0.2460  0.4282 -0.3213
   31MOL    H61 4321   4.610   7.601   5.335  0.8987  1.5020 -0.4165
   31MOL    H62 4322   4.684   7.439   5.337  0.7150 -0.9345 -1.7261
   31MOL    H63 4323   4.864   7.674   5.326  0.5486 -0.7726  0.0426
   31MOL    H64 4324   4.898   7.524   5.410  0.0963 -0.4076  1.5323
   31MOL    C65 4325   4.884   7.757   5.571  0.8404  0.6729  0.2484
   31MOL    C66 4326   4.817   0.090   5.671  0.4488 -0.1261  0.1370
   31MOL    O67 4327   4.836   0.045   5.801 -0.4041 -0.0667  0.0943
   31MOL    H68 4328   4.972   7.714   5.619 -1.6960 -3.4762  1.4560
   31MOL    H69 4329   4.907   0.040   5.479 -0.2494 -1.2572 -1.2088
   31MOL    H70 4330   4.709   0.104   5.664  0.3024 -0.8033  0.9433
   31MOL    H71 4331   4.857   0.190   5.655 -0.8041  0.1132 -1.6791
   31MOL    C72 4332   4.784   0.139   5.895 -0.7398  0.5822  0.1325
   31MOL    C73 4333   4.751   0.070   6.030  0.3836  0.1099  0.5461
   31MOL    O74 4334   4.873   0.063   6.100 -0.2693  0.4198 -0.4855
   31MOL    H75 4335   4.840   0.228   5.920  0.8106 -0.5855  0.9127
   31MOL    H76 4336   4.683   0.166   5.866 -0.1856 -0.1426 -2.6325
   31MOL    H77 4337   4.715   7.741   6.008 -0.2546  0.8016 -1.6391
   31MOL    H78 4338   4.685   0.135   6.086  1.9535  1.6494  0.6613
   31MOL    C79 4339   4.874   0.043   6.238 -0.1464 -0.0518 -0.6827
   31MOL    C80 4340   5.013   7.750   6.265 -0.4501  0.0272 -0.0899
   31MOL    O81 4341   5.001   7.612   6.239 -0.7908  0.3640  0.6624
   31MOL    H82 4342   4.855   0.139   6.286 -0.9167  0.8648 -2.7559
   31MOL    H83 4343   4.801   7.750   6.287  1.2726 -0.1886  1.2999
   31MOL    H84 4344   5.033   7.748   6.372 -0.7818  0.2978 -0.0236
   31MOL    H85 4345   5.093   0.038   6.220 -0.5539  1.6126  1.7633
   31MOL    C86 4346   5.129   7.550   6.207 -0.6783  0.6563 -0.0437
   31MOL    C87 4347   5.094   7.400   6.170 -0.2231 -0.4870 -0.5385
   31MOL    O88 4348   5.062   7.311   6.275 -0.7281 -0.0672 -0.0476
   31MOL    H89 4349   5.172   7.593   6.116  2.7808  1.1260  1.7157
   31MOL    H90 4350   5.203   7.551   6.287 -1.4561  2.0911  0.6643
   31MOL    H91 4351   5.175   7.356   6.112  1.9982  1.2654  1.1382
   31MOL    H92 4352   5.006   7.391   6.106 -0.4574 -3.0090  0.0885
   31MOL    C93 4353   5.067   7.174   6.237  0.2201  0.6609 -0.3359
   31MOL    C94 4354   5.027   7.082   6.357 -0.7159  0.1053 -0.0144
   31MOL    O95 4355   5.126   7.058   6.460 -0.1156 -0.1504 -0.2117
   31MOL    H96 4356   5.010   7.156   6.146  1.9412  0.3533 -1.3836
   31MOL    H97 4357   5.172   7.152   6.217  0.7470 -0.0548  2.9234
   31MOL    H98 4358   5.014   6.986   6.306  0.4097 -0.5607  0.9093
   31MOL    H99 4359   4.935   7.117   6.402 -0.0097  2.6697 -0.4579
   31MOL   C100 4360   5.081   6.967   6.557 -0.7743 -0.1613  0.1501
   31MOL   C101 4361   5.029   6.829   6.504  0.7425  0.6168  0.4752
   31MOL   O102 4362   5.138   6.761   6.448  0.4616 -0.2713  0.0964
   31MOL   H103 4363   5.157   6.969   6.636  1.1012 -2.0398 -1.5672
   31MOL   H104 4364   4.998   7.008   6.615  0.5480 -0.8644  2.6300
   31MOL   H105 4365   4.944   6.837   6.436  1.7214 -1.4401 -1.0518
   31MOL   H106 4366   4.976   6.775   6.583 -0.9364  0.3984 -0.7710
   31MOL   C107 4367   5.106   6.640   6.388  0.0232 -1.0293 -0.3741
   31MOL   C108 4368   5.228   6.548   6.375 -0.0601 -0.0234 -0.9731
   31MOL   O109 4369   5.292   6.577   6.251  0.2073 -0.3821 -0.2838
   31MOL   H110 4370   5.033   6.591   6.453 -1.3765  0.2682 -0.9328
   31MOL   H111 4371   5.055   6.650   6.292  0.1919  1.6418 -0.2136
   31MOL   H112 4372   5.197   6.443   6.376 -0.8616  0.2109 -0.7185
   31MOL   H113 4373   5.295   6.566   6.459  1.2880 -0.2211 -1.9874
   31MOL   C114 4374   5.411   6.502   6.234 -1.1316 -0.0547  0.3129
   31MOL   C115 4375   5.477   6.536   6.103 -0.0921 -0.2761 -0.0577
   31MOL   O116 4376   5.420   6.459   6.003  0.0485 -0.4667  0.0642
   31MOL   H117 4377   5.480   6.525   6.315 -0.4019  0.1692 -0.3696
   31MOL   H118 4378   5.378   6.398   6.231 -0.4652 -0.2308 -1.1991
   31MOL   H119 4379   5.585   6.529   6.114 -0.1945 -0.6152  0.7365
   31MOL   H120 4380   5.460   6.643   6.089 -1.5305 -0.2742  1.5016
   31MOL   C121 4381   5.463   6.499   5.875 -0.0709 -0.5607 -0.4559
   31MOL   C122 4382   5.391   6.415   5.769  0.4124 -0.4643 -0.0495
   31MOL   O123 4383   5.408   6.277   5.792 -0.2669 -0.1146 -0.3496
   31MOL   H124 4384   5.437   6.603   5.857 -0.3772 -0.6293 -0.4109
   31MOL   H125 4385   5.571   6.507   5.862  0.0276  2.4470  1.5692
   31MOL   H126 4386   5.427   6.448   5.672  1.6981 -1.7860 -0.0415
   31MOL   H127 4387   5.286   6.441   5.781  0.3037 -0.6201 -0.6135
   31MOL   C128 4388   5.402   6.205   5.668 -0.1830 -0.2284 -0.3895
   31MOL   C129 4389   5.435   6.058   5.684  0.2223  0.0379  0.8544
   31MOL   O130 4390   5.573   6.044   5.700  0.1928  0.2256  0.4925
   31MOL   H131 4391   5.302   6.221   5.627  0.4536  0.3868 -1.7591
   31MOL   H132 4392   5.465   6.257   5.596  0.1365 -0.9747 -0.6546
   31MOL   H133 4393   5.404   5.996   5.600 -0.2416 -0.6318  1.5137
   31MOL   H134 4394   5.389   6.010   5.770 -0.8268 -0.3645  0.0785
   31MOL   C135 4395   5.618   5.909   5.710  0.6785 -0.1621 -0.0054
   31MOL   C136 4396   5.767   5.928   5.743  0.0181 -0.3863  0.3483
   31MOL   O137 4397   5.749   5.979   5.870 -0.4401  0.5092 -0.2393
   31MOL   H138 4398   5.558   5.850   5.778  0.7596  0.2696  0.4399
   31MOL   H139 4399   5.618   5.863   5.611 -0.0781 -0.0305 -0.0668
   31MOL   H140 4400   5.821   6.000   5.681 -2.8837  1.6087  0.0306
   31MOL   H141 4401   5.816   5.831   5.741 -1.0066 -0.9045 -3.2758
   31MOL   H142 4402   5.679   6.042   5.878  0.2696  0.9675  2.9094
   32MOL     C1 4403   1.614   6.815   7.246 -0.1390 -0.1374 -0.6712
   32MOL     C2 4404   1.574   6.691   7.166 -0.4107  0.1030 -0.0630
   32MOL     O3 4405   1.563   6.583   7.258  0.0298  0.4445 -0.4814
   32MOL     H4 4406   1.702   6.804   7.310  0.3282  1.6656 -0.9823
   32MOL     H5 4407   1.527   6.848   7.303  0.6379 -1.5386  1.3990
   32MOL     H6 4408   1.647   6.678   7.087  1.4068  1.1041  1.4054
   32MOL     H7 4409   1.475   6.690   7.120  0.1570 -0.9972 -1.2834
   32MOL     H8 4410   1.641   6.883   7.165 -0.1956 -1.1074 -1.5097
   32MOL     C9 4411   1.500   6.464   7.206 -0.5383  0.0670 -0.0973
   32MOL    C10 4412   1.493   6.362   7.318 -0.1090 -0.2364 -0.3657
   32MOL    O11 4413   1.366   6.381   7.387  0.2842 -0.3902 -0.1865
   32MOL    H12 4414   1.407   6.494   7.158 -0.4690 -1.6493 -1.3559
   32MOL    H13 4415   1.575   6.427   7.136  2.0378 -0.2280  2.6954
   32MOL    H14 4416   1.587   6.359   7.374 -0.3921  1.3808  0.2246
   32MOL    H15 4417   1.498   6.267   7.265  0.6426  0.7119 -2.0449
   32MOL    C16 4418   1.342   6.300   7.502 -0.2140 -0.0348 -0.3251
   32MOL    C17 4419   1.267   6.171   7.454 -0.2811 -0.2662  0.3490
   32MOL    O18 4420   1.364   6.086   7.398 -0.2367  0.1548  0.1221
   32MOL    H19 4421   1.437   6.274   7.547  1.2620  0.7711 -2.8948
   32MOL    H20 4422   1.286   6.354   7.579  0.6148 -3.3110  2.6896
   32MOL    H21 4423   1.189   6.196   7.382 -0.1649 -1.6839 -0.2934
   32MOL    H22 4424   1.229   6.104   7.531  0.1818  1.4380  2.0942
   32MOL    C23 4425   1.319   5.951   7.364  0.4126 -0.4947  0.1070
   32MOL    C24 4426   1.396   5.850   7.449 -0.0306  0.2195 -0.3072
   32MOL    O25 4427   1.325   5.859   7.572 -0.8188 -0.0034  0.3998
   32MOL    H26 4428   1.212   5.949   7.383  0.1961  0.3503 -0.9542
   32MOL    H27 4429   1.326   5.922   7.259 -3.8396 -1.8897  0.1289
   32MOL    H28 4430   1.502   5.876   7.446 -0.3599  1.6266  0.0621
   32MOL    H29 4431   1.382   5.747   7.414  2.5583 -0.6919  1.2111
   32MOL    C30 4432   1.415   5.847   7.683  0.3209  0.0802  0.2450
   32MOL    C31 4433   1.342   5.912   0.028 -0.2682 -0.1293  0.6748
   32MOL    O32 4434   1.390   6.043   0.063  0.2760  0.2397 -0.1352
   32MOL    H33 4435   1.435   5.742   7.707  1.1484  0.3361  0.6925
   32MOL    H34 4436   1.503   5.910   7.669  1.9088 -2.1752 -0.1402
   32MOL    H35 4437   1.332   5.860   0.124 -0.2432 -1.5105 -0.0653
   32MOL    H36 4438   1.236   5.913   0.005 -0.3552  0.4399  1.0824
   32MOL    C37 4439   1.289   6.137   0.101 -0.1091 -0.1892  0.3354
   32MOL    C38 4440   1.352   6.281   0.081  0.1330 -0.3554  0.5047
   32MOL    O39 4441   1.408   6.319   0.201 -0.1142 -0.3601 -0.1375
   32MOL    H40 4442   1.222   6.119   0.017  1.0506 -0.8078 -0.4683
   32MOL    H41 4443   1.244   6.138   0.200  0.1392 -1.2928  0.4675
   32MOL    H42 4444   1.282   6.357   0.045  2.5862  0.6435 -2.3662
   32MOL    H43 4445   1.425   6.276   7.771  0.3879 -0.3490  0.7328
   32MOL    C44 4446   1.466   6.446   0.194 -0.2286 -0.3805 -0.0508
   32MOL    C45 4447   1.486   6.501   0.338  0.5526  0.0840  0.1279
   32MOL    O46 4448   1.608   6.457   0.382  0.7083  0.2912 -0.3871
   32MOL    H47 4449   1.557   6.447   0.134 -0.4183 -0.7204 -0.3402
   32MOL    H48 4450   1.391   6.514   0.154  0.2401  0.8313  1.0693
   32MOL    H49 4451   1.402   6.486   0.405 -1.4676 -0.9068 -2.5111
   32MOL    H50 4452   1.498   6.608   0.319  0.6748  0.0225 -0.1484
   32MOL    C51 4453   1.592   6.341   0.466 -0.4723  0.2516 -0.4597
   32MOL    C52 4454   1.721   6.265   0.494 -0.3604 -0.2863  0.1637
   32MOL    O53 4455   1.774   6.311   0.611 -0.1608  0.5060 -0.3194
   32MOL    H54 4456   1.533   6.361   0.555  0.7458 -1.9756  0.8851
   32MOL    H55 4457   1.536   6.273   0.402 -0.2736 -0.2702 -0.0827
   32MOL    H56 4458   1.786   6.267   0.406 -1.8408 -1.5528 -1.0020
   32MOL    H57 4459   1.699   6.158   0.505 -1.0870 -0.0922  0.5897
   32MOL    C58 4460   1.840   6.434   0.604 -0.2569 -0.4422  0.1572
   32MOL    C59 4461   1.839   6.504   0.740  0.1893  0.1818  0.2092
   32MOL    O60 4462   1.958   6.455   0.820  0.2020 -0.1743 -0.2200
   32MOL    H61 4463   1.947   6.425   0.583 -0.1771  1.4206 -0.2760
   32MOL    H62 4464   1.801   6.500   0.528 -1.4291  0.7463  1.7690
   32MOL    H63 4465   1.743   6.494   0.791 -0.4294 -0.2759 -1.0103
   32MOL    H64 4466   1.854   6.608   0.711 -0.4649  0.3499  0.4646
   32MOL    C65 4467   1.954   6.499   0.955  0.3092  0.5414  0.0165
   32MOL    C66 4468   1.862   6.428   1.049  0.3817  0.2064  0.2315
   32MOL    O67 4469   1.883   6.445   1.185 -0.2210 -0.2096 -0.1152
   32MOL    H68 4470   2.057   6.497   0.992  1.0669  0.6717 -2.0061
   32MOL    H69 4471   1.926   6.604   0.957  0.3861  0.5435  0.9533
   32MOL    H70 4472   1.862   6.321   1.030 -0.0839  0.0335  1.2001
   32MOL    H71 4473   1.761   6.457   1.020 -0.5233 -2.9535  0.0506
   32MOL    C72 4474   2.001   6.393   1.235  0.2726 -0.0442  0.7463
   32MOL    C73 4475   2.068   6.506   1.314 -0.2836  0.5148  0.0122
   32MOL    O74 4476   2.157   6.569   1.225  1.0533 -0.1570  0.3336
   32MOL    H75 4477   1.962   6.307   1.291  0.0464  0.2953  1.1131
   32MOL    H76 4478   2.066   6.352   1.158  0.3287 -0.1023  0.8246
   32MOL    H77 4479   2.115   6.462   1.403  1.2170 -0.6822 -1.3474
   32MOL    H78 4480   1.997   6.570   1.367 -0.9584 -0.7596  0.6912
   32MOL    C79 4481   2.212   6.687   1.271 -0.7970  0.1943  0.2250
   32MOL    C80 4482   2.336   6.665   1.356 -0.4682 -0.4211 -0.5069
   32MOL    O81 4483   2.297   6.630   1.491  0.1323  0.1565  0.1042
   32MOL    H82 4484   2.247   6.737   1.181 -0.2855  0.7065  0.6983
   32MOL    H83 4485   2.136   6.748   1.320 -0.9307 -1.0365  1.6048
   32MOL    H84 4486   2.412   6.742   1.349  1.2477 -2.0187  0.1759
   32MOL    H85 4487   2.397   6.585   1.315  0.7575  0.1795  0.1257
   32MOL    C86 4488   2.402   6.613   1.582 -0.2559 -0.0922  0.4637
   32MOL    C87 4489   2.348   6.625   1.720  0.0838  0.3522  0.5735
   32MOL    O88 4490   2.298   6.755   1.731  0.1564  0.1921  0.0725
   32MOL    H89 4491   2.447   6.516   1.559 -0.5281  0.0078 -0.5517
   32MOL    H90 4492   2.483   6.685   1.569 -0.5096  0.8154  3.6281
   32MOL    H91 4493   2.434   6.600   1.782  1.0383 -1.3842 -1.3990
   32MOL    H92 4494   2.270   6.553   1.745  1.4421 -2.3510 -2.5535
   32MOL    C93 4495   2.245   6.780   1.861 -0.1623  0.6746  0.2215
   32MOL    C94 4496   2.190   6.918   1.879 -0.5035  0.1444  0.0619
   32MOL    O95 4497   2.298   7.013   1.875  0.5814  0.2227  0.0166
   32MOL    H96 4498   2.172   6.703   1.887  0.3209  0.2880  0.4225
   32MOL    H97 4499   2.328   6.774   1.931  1.5734 -0.7324 -1.8926
   32MOL    H98 4500   2.141   6.928   1.976 -2.2525  1.4310 -0.9356
   32MOL    H99 4501   2.115   6.937   1.803  1.4116  0.3191 -1.8293
   32MOL   C100 4502   2.248   7.138   1.915 -0.2207 -0.0068  0.5769
   32MOL   C101 4503   2.366   7.237   1.907 -0.1390  0.2451 -0.2348
   32MOL   O102 4504   2.392   7.279   1.776  0.5088 -0.1049 -0.3823
   32MOL   H103 4505   2.162   7.159   1.852  0.6914 -0.8750 -0.9950
   32MOL   H104 4506   2.201   7.139   2.013 -0.4254 -3.0984  0.5390
   32MOL   H105 4507   2.448   7.187   1.959 -0.1794  0.7751  0.3457
   32MOL   H106 4508   2.343   7.330   1.958  2.1773  1.5219 -1.4373
   32MOL   C107 4509   2.504   7.367   1.776  0.1560 -0.1265  0.2871
   32MOL   C108 4510   2.513   7.433   1.633 -0.0964  0.9836 -0.4647
   32MOL   O109 4511   2.425   7.542   1.626 -0.5495 -0.1713  0.2065
   32MOL   H110 4512   2.505   7.448   1.848 -2.1378  0.4892 -0.3203
   32MOL   H111 4513   2.590   7.301   1.790 -0.9257 -1.8416 -0.8476
   32MOL   H112 4514   2.501   7.369   1.546  1.4428  1.5214 -1.0773
   32MOL   H113 4515   2.617   7.466   1.628  0.1531  0.4609  0.9644
   32MOL   C114 4516   2.451   7.631   1.514 -0.3327 -1.1749  0.2207
   32MOL   C115 4517   2.506   7.766   1.558  0.6035 -0.3599 -0.2588
   32MOL   O116 4518   2.632   7.735   1.597  0.3287  0.3135  0.4375
   32MOL   H117 4519   2.508   7.601   1.426 -0.6358  0.9495 -0.7265
   32MOL   H118 4520   2.351   7.642   1.471 -0.5860  0.1635  1.1435
   32MOL   H119 4521   2.446   0.017   1.646 -0.1138  0.6627 -1.0022
   32MOL   H120 4522   2.501   0.079   1.489 -0.6165 -0.6550 -0.5488
   32MOL   C121 4523   2.698   0.077   1.641 -0.6425  0.1687 -0.3372
   32MOL   C122 4524   2.840   0.047   1.687 -0.2693 -0.1669 -0.7121
   32MOL   O123 4525   2.923   0.040   1.563  0.8547  0.3535  0.2820
   32MOL   H124 4526   2.710   0.151   1.562 -1.8547  1.1819  0.4302
   32MOL   H125 4527   2.643   0.135   1.714 -0.0051 -0.2610  0.4842
   32MOL   H126 4528   2.864   7.724   1.737  1.5288  0.1867 -0.8666
   32MOL   H127 4529   2.875   0.126   1.753 -0.2033 -0.6383 -0.1755
   32MOL   C128 4530   2.900   7.681   1.502  0.0902  0.7591  0.4119
   32MOL   C129 4531   2.983   7.667   1.372  0.1240 -0.0258 -0.9286
   32MOL   O130 4532   3.127   7.691   1.391 -0.1313 -0.1690  0.0826
   32MOL   H131 4533   2.906   7.596   1.571  2.3664  0.3765 -0.2072
   32MOL   H132 4534   2.803   7.675   1.454  1.0167  3.4077 -1.8880
   32MOL   H133 4535   2.948   7.749   1.310 -1.9620 -1.2886 -1.4611
   32MOL   H134 4536   2.961   7.572   1.324 -0.5481  0.5573 -1.7942
   32MOL   C135 4537   3.204   7.651   1.270 -0.4275  0.0966 -0.3838
   32MOL   C136 4538   3.338   7.718   1.289 -0.2754 -0.5916  0.0316
   32MOL   O137 4539   3.402   7.648   1.384 -0.5064  0.3796 -0.8429
   32MOL   H138 4540   3.206   7.543   1.265 -0.3909 -0.0279  1.6235
   32MOL   H139 4541   3.156   7.683   1.178  1.6056 -1.4046 -1.9888
   32MOL   H140 4542   3.333   0.055   1.306  1.7798 -0.5606  0.5387
   32MOL   H141 4543   3.394   7.713   1.195 -1.7502  0.7088 -0.9520
   32MOL   H142 4544   3.490   7.675   1.406 -0.2220 -0.5913 -0.7578
   33MOL     C1 4545   2.962   5.453   3.973  0.0696  0.3029 -0.4745
   33MOL     C2 4546   2.830   5.391   3.922 -0.1898 -0.3346 -0.0634
   33MOL     O3 4547   2.737   5.495   3.923 -0.0524  0.5693 -0.1925
   33MOL     H4 4548   2.939   5.483   4.075  3.9747 -0.9555  0.8646
   33MOL     H5 4549   3.004   5.532   3.910  1.4221  0.2228  0.2977
   33MOL     H6 4550   2.799   5.311   3.990  0.4987 -1.7506 -1.3626
   33MOL     H7 4551   2.839   5.354   3.820 -2.0316 -1.5201  0.1802
   33MOL     H8 4552   3.036   5.373   3.970 -1.1494 -0.7854 -3.2415
   33MOL     C9 4553   2.604   5.471   3.877 -0.2604  0.4192 -0.0684
   33MOL    C10 4554   2.532   5.604   3.887  0.4462  0.0682  0.8418
   33MOL    O11 4555   2.534   5.653   4.022 -0.2112 -0.0521 -0.2558
   33MOL    H12 4556   2.582   5.417   3.786  0.6751 -1.3920  0.7475
   33MOL    H13 4557   2.559   5.403   3.949 -1.5939  2.3700  0.9781
   33MOL    H14 4558   2.431   5.601   3.847  0.5621  1.9439  0.3332
   33MOL    H15 4559   2.583   5.674   3.820 -0.6763  1.2546  1.2012
   33MOL    C16 4560   2.511   5.792   4.037  0.3383  0.2924 -0.1037
   33MOL    C17 4561   2.569   5.851   4.168 -0.2854  0.2978  0.5535
   33MOL    O18 4562   2.703   5.892   4.145  0.0417 -0.0873 -0.3094
   33MOL    H19 4563   2.553   5.854   3.958 -2.5639 -0.0963 -2.0336
   33MOL    H20 4564   2.403   5.812   4.034  0.3565  0.5632  0.9680
   33MOL    H21 4565   2.556   5.774   4.244 -1.4636 -0.1614 -0.1021
   33MOL    H22 4566   2.510   5.939   4.194  1.0595  1.1242  0.8749
   33MOL    C23 4567   2.795   5.790   4.121 -0.2179  0.5700  0.0527
   33MOL    C24 4568   2.940   5.833   4.115 -0.1672  0.2237 -0.3674
   33MOL    O25 4569   3.023   5.723   4.146 -0.1371  0.6322 -0.0653
   33MOL    H26 4570   2.802   5.717   4.202 -2.2041  0.6138  0.3008
   33MOL    H27 4571   2.761   5.729   4.037  1.2820  0.5433 -0.5420
   33MOL    H28 4572   2.966   5.912   4.185 -1.2628  0.7932 -0.5928
   33MOL    H29 4573   2.962   5.862   4.012 -1.5390  2.1713 -0.1334
   33MOL    C30 4574   3.161   5.731   4.120 -0.4228 -0.1541  0.3892
   33MOL    C31 4575   3.237   5.764   4.244 -0.6918  0.0973  0.3392
   33MOL    O32 4576   3.255   5.896   4.288  0.5441 -0.0208 -0.6427
   33MOL    H33 4577   3.190   5.637   4.074  4.0098  1.8954 -1.2849
   33MOL    H34 4578   3.179   5.794   4.034 -0.0199  3.5024  3.0295
   33MOL    H35 4579   3.340   5.730   4.235 -1.9131 -3.5777 -0.6631
   33MOL    H36 4580   3.203   5.701   4.327  0.7461 -0.4123  0.5543
   33MOL    C37 4581   3.313   5.923   4.414 -0.0934 -0.1150 -0.6006
   33MOL    C38 4582   3.461   5.878   4.422  0.3930 -0.0767  0.7708
   33MOL    O39 4583   3.464   5.751   4.475  0.0186 -0.3792  0.2264
   33MOL    H40 4584   3.324   6.031   4.409  1.4550 -0.2688 -0.9587
   33MOL    H41 4585   3.247   5.898   4.496  1.0243 -2.5494 -0.3862
   33MOL    H42 4586   3.504   5.954   4.487 -1.7427  1.1277  0.8266
   33MOL    H43 4587   3.513   5.903   4.330 -0.3755 -1.2739 -0.0064
   33MOL    C44 4588   3.582   5.686   4.436  0.2998  0.0647  0.3492
   33MOL    C45 4589   3.571   5.544   4.479 -0.5439 -1.0145 -0.4786
   33MOL    O46 4590   3.662   5.466   4.412 -0.0668  0.6888  0.0734
   33MOL    H47 4591   3.596   5.691   4.328 -0.3499  0.2944  0.2775
   33MOL    H48 4592   3.666   5.730   4.491 -2.1748  1.1628  3.3769
   33MOL    H49 4593   3.467   5.519   4.458 -0.2652 -4.9235  2.2250
   33MOL    H50 4594   3.595   5.550   4.585  0.8093  2.1310 -0.9232
   33MOL    C51 4595   3.658   5.328   4.450  0.4044  0.0353  0.1282
   33MOL    C52 4596   3.774   5.265   4.362  0.0676  0.6737  0.2070
   33MOL    O53 4597   3.887   5.302   4.431 -0.5068  0.0647 -0.0427
   33MOL    H54 4598   3.687   5.322   4.555 -0.5923 -3.6881  0.2559
   33MOL    H55 4599   3.559   5.285   4.439 -0.5653  2.2449  0.0507
   33MOL    H56 4600   3.771   5.310   4.263 -0.0896  1.7023  0.6730
   33MOL    H57 4601   3.782   5.156   4.365  1.3629  0.6515 -2.1765
   33MOL    C58 4602   4.006   5.285   4.358 -0.2911 -0.1323  0.1685
   33MOL    C59 4603   4.129   5.310   4.440 -0.5663  0.6805 -0.6944
   33MOL    O60 4604   4.185   5.440   4.429 -0.2150 -0.4339 -0.3016
   33MOL    H61 4605   4.004   5.177   4.348 -0.3164 -0.1326  0.1778
   33MOL    H62 4606   4.002   5.326   4.257  0.6925 -0.5826 -0.0616
   33MOL    H63 4607   4.211   5.241   4.417  1.2444  2.2939  0.6658
   33MOL    H64 4608   4.104   5.282   4.542  0.3193 -0.0896 -0.6801
   33MOL    C65 4609   4.105   5.543   4.472  0.6270 -0.2430  0.1259
   33MOL    C66 4610   4.188   5.677   4.458 -0.7544  0.2656  0.3407
   33MOL    O67 4611   4.139   5.791   4.531  0.5731 -0.2151 -0.4648
   33MOL    H68 4612   4.018   5.545   4.405  0.9694 -2.9249 -0.4458
   33MOL    H69 4613   4.081   5.520   4.576  0.3998 -1.5306 -0.2038
   33MOL    H70 4614   4.212   5.713   4.358  0.1144  1.2038  0.8862
   33MOL    H71 4615   4.287   5.667   4.503 -1.7064 -0.0268  2.3976
   33MOL    C72 4616   4.001   5.833   4.498  0.0102  0.4542  0.1200
   33MOL    C73 4617   3.979   5.900   4.372 -0.1272  0.8706 -0.4868
   33MOL    O74 4618   3.847   5.936   4.340  1.0149 -0.0585 -0.3901
   33MOL    H75 4619   3.932   5.750   4.515 -0.5156  1.2462  1.9979
   33MOL    H76 4620   3.975   5.897   4.582  0.4268 -0.3489  0.8684
   33MOL    H77 4621   4.009   5.836   4.289 -1.4498  0.1691 -0.4375
   33MOL    H78 4622   4.050   5.983   4.381  1.7973 -0.8084  0.4035
   33MOL    C79 4623   3.839   6.051   4.260  0.2115 -0.5300 -1.2122
   33MOL    C80 4624   3.870   6.036   4.108 -0.0275 -0.6459  0.1499
   33MOL    O81 4625   4.011   6.033   4.089  0.3034 -0.1507  0.3012
   33MOL    H82 4626   3.736   6.085   4.271  0.8555  0.7167  1.1906
   33MOL    H83 4627   3.894   6.135   4.302  0.1454 -1.8112  1.5485
   33MOL    H84 4628   3.818   6.117   4.057  2.5799  0.4179 -0.9309
   33MOL    H85 4629   3.810   5.951   4.074 -3.4006  0.2423  3.5602
   33MOL    C86 4630   4.060   6.043   3.954 -0.8874  0.3463 -0.2111
   33MOL    C87 4631   4.018   5.921   3.870 -0.8148 -0.1986  0.8171
   33MOL    O88 4632   4.094   5.804   3.892 -0.4914 -0.4746 -0.1973
   33MOL    H89 4633   4.042   6.145   3.919 -1.1844 -1.0004 -4.2359
   33MOL    H90 4634   4.168   6.034   3.964 -1.1688 -1.2808  1.6411
   33MOL    H91 4635   4.049   5.940   3.767 -1.9946 -1.7597  0.1471
   33MOL    H92 4636   3.912   5.897   3.871 -0.8962 -0.1573 -2.5485
   33MOL    C93 4637   4.076   5.746   4.020 -0.3231 -0.7806 -0.1893
   33MOL    C94 4638   4.164   5.617   4.028  0.5338  0.5547 -0.0794
   33MOL    O95 4639   4.092   5.511   3.970  0.2649  0.2196  0.0255
   33MOL    H96 4640   4.113   5.803   4.106 -0.7425 -1.2183  0.2887
   33MOL    H97 4641   3.971   5.728   4.044 -0.3336  1.1527  1.3636
   33MOL    H98 4642   4.187   5.579   4.127  0.7487  0.0009 -0.3402
   33MOL    H99 4643   4.257   5.634   3.972  0.5560 -0.0645 -0.2330
   33MOL   C100 4644   4.191   5.409   3.942 -0.7672  0.5351 -0.0833
   33MOL   C101 4645   4.129   5.279   3.885  0.1256  0.0858  0.2425
   33MOL   O102 4646   4.017   5.243   3.952  0.0265  0.2899 -0.0101
   33MOL   H103 4647   4.260   5.452   3.869 -0.4533  0.7394  0.3308
   33MOL   H104 4648   4.237   5.390   4.039  3.2232  2.6574 -1.4746
   33MOL   H105 4649   4.196   5.194   3.901 -1.3573 -0.8689  1.5448
   33MOL   H106 4650   4.109   5.293   3.779  2.7888 -1.0003 -0.4444
   33MOL   C107 4651   3.902   5.238   3.876  0.8002  0.1070  0.0066
   33MOL   C108 4652   3.782   5.224   3.964  1.0898  0.0337 -0.4397
   33MOL   O109 4653   3.768   5.088   4.003 -0.1602  0.7850 -0.2223
   33MOL   H110 4654   3.886   5.339   3.836  0.2688  0.4337  1.0125
   33MOL   H111 4655   3.906   5.170   3.791  0.9680  1.0249 -0.7328
   33MOL   H112 4656   3.694   5.264   3.912  0.6424  0.4893  0.6482
   33MOL   H113 4657   3.799   5.287   4.051  2.5853 -1.2908  0.2512
   33MOL   C114 4658   3.630   5.050   4.041 -0.3336 -0.5308  0.0761
   33MOL   C115 4659   3.624   4.905   4.084 -0.2732  0.1400 -0.2700
   33MOL   O116 4660   3.494   4.849   4.081  1.0763  0.2167  0.2192
   33MOL   H117 4661   3.590   5.117   4.118  0.4453 -2.2689  2.0469
   33MOL   H118 4662   3.567   5.074   3.956 -1.6983 -2.2458  0.5827
   33MOL   H119 4663   3.669   4.885   4.181 -1.3498  1.5152  0.5209
   33MOL   H120 4664   3.681   4.857   4.004 -1.3765  0.4593 -1.2691
   33MOL   C121 4665   3.493   4.707   4.059 -0.3907  0.6066  0.5968
   33MOL   C122 4666   3.353   4.655   4.023  0.6057 -0.0600  0.2102
   33MOL   O123 4667   3.318   4.685   3.889 -0.0068 -0.1363 -0.3350
   33MOL   H124 4668   3.554   4.655   3.985  0.5222 -0.0520  1.7844
   33MOL   H125 4669   3.525   4.650   4.147  0.3937 -0.8479 -0.6234
   33MOL   H126 4670   3.282   4.709   4.086 -0.1080  0.0381 -0.6643
   33MOL   H127 4671   3.354   4.547   4.036  1.7979 -0.2145 -0.9989
   33MOL   C128 4672   3.353   4.592   3.790 -0.3904 -0.1457 -0.4191
   33MOL   C129 4673   3.294   4.638   3.662 -0.3633 -0.1433  0.2687
   33MOL   O130 4674   3.350   4.561   3.557 -0.4169  0.3985 -0.2800
   33MOL   H131 4675   3.460   4.589   3.770 -0.2914 -0.0903  0.1108
   33MOL   H132 4676   3.330   4.490   3.820 -0.5104 -0.0091 -0.0410
   33MOL   H133 4677   3.329   4.739   3.639  2.0735 -1.1450 -0.5415
   33MOL   H134 4678   3.187   4.616   3.654  0.1035 -1.6922 -1.8711
   33MOL   C135 4679   3.299   4.590   3.431 -0.3040  0.9623  0.1495
   33MOL   C136 4680   3.364   4.500   3.319  0.0570  0.4838  0.8283
   33MOL   O137 4681   3.340   4.563   3.198 -0.6377  0.4476  0.1246
   33MOL   H138 4682   3.193   4.568   3.447 -0.0134  0.0044  0.8131
   33MOL   H139 4683   3.324   4.695   3.413  0.3607  0.5635 -1.3461
   33MOL   H140 4684   3.319   4.401   3.322  2.7993 -0.8384 -0.1372
   33MOL   H141 4685   3.470   4.485   3.340  0.1036  0.6787  0.7346
   33MOL   H142 4686   3.387   4.645   3.197  2.9989 -1.5581 -1.0162
   34MOL     C1 4687   2.217   5.534   2.922 -0.7689  0.1336  0.1998
   34MOL     C2 4688   2.275   5.398   2.925 -0.0406 -0.6642 -0.1222
   34MOL     O3 4689   2.405   5.391   2.984 -0.1625 -0.2938  0.6102
   34MOL     H4 4690   2.272   5.602   2.857  2.3722 -1.5842  0.9608
   34MOL     H5 4691   2.212   5.583   3.019 -3.0121  0.1322  0.1029
   34MOL     H6 4692   2.280   5.344   2.831 -0.1927 -1.1634  0.1509
   34MOL     H7 4693   2.206   5.335   2.982 -0.8085  0.1324 -0.1757
   34MOL     H8 4694   2.111   5.528   2.896 -0.8871 -1.4702  0.9829
   34MOL     C9 4695   2.477   5.270   2.966  0.6345 -0.2390  0.2661
   34MOL    C10 4696   2.622   5.312   2.994 -0.3139  0.0365 -0.3503
   34MOL    O11 4697   2.660   5.348   3.124  0.1868 -0.0740  0.4244
   34MOL    H12 4698   2.439   5.193   3.034  2.2862  0.1200  1.6327
   34MOL    H13 4699   2.478   5.230   2.865 -0.3270 -0.1929  0.2344
   34MOL    H14 4700   2.651   5.394   2.928 -0.3820  2.1689  2.1869
   34MOL    H15 4701   2.679   5.222   2.974 -1.0165 -1.0893  2.5327
   34MOL    C16 4702   2.583   5.441   3.195  0.2742  0.4637  0.1901
   34MOL    C17 4703   2.668   5.479   3.313 -0.1548  0.3891 -0.5068
   34MOL    O18 4704   2.678   5.367   3.403 -0.0178  0.1503  0.5421
   34MOL    H19 4705   2.564   5.536   3.147  2.4573  0.5859 -0.4901
   34MOL    H20 4706   2.488   5.396   3.224 -0.2992 -0.3185 -2.7303
   34MOL    H21 4707   2.616   5.556   3.370  0.0617  1.1284 -1.2992
   34MOL    H22 4708   2.765   5.520   3.286  0.8716 -2.6398 -1.5254
   34MOL    C23 4709   2.791   5.364   3.484 -0.0605  0.7120  0.1375
   34MOL    C24 4710   2.798   5.237   3.566  0.1053  0.2904  0.2179
   34MOL    O25 4711   2.692   5.229   3.666  0.0328 -0.4147  0.1559
   34MOL    H26 4712   2.884   5.374   3.428 -0.8608  2.0556 -0.9865
   34MOL    H27 4713   2.802   5.449   3.551  1.4655  0.4285  0.2646
   34MOL    H28 4714   2.892   5.219   3.617  0.1229 -1.4174 -0.3979
   34MOL    H29 4715   2.787   5.146   3.507  1.1954  1.9424 -2.6275
   34MOL    C30 4716   2.664   5.096   3.709  0.5106 -0.0135  0.1452
   34MOL    C31 4717   2.579   5.101   3.837  0.2975 -0.0015  1.4491
   34MOL    O32 4718   2.661   5.118   3.953  0.3811 -0.0306  0.3117
   34MOL    H33 4719   2.618   5.038   3.630 -0.0803  1.7826 -0.8522
   34MOL    H34 4720   2.751   5.039   3.744  0.0444 -0.5474  0.4356
   34MOL    H35 4721   2.514   5.014   3.842 -0.1761  0.2654  0.2149
   34MOL    H36 4722   2.515   5.189   3.828  0.7833  0.1588 -0.9157
   34MOL    C37 4723   2.590   5.128   4.076 -0.3823  0.2242  0.2079
   34MOL    C38 4724   2.500   5.007   4.115 -0.0134  0.4773 -0.3614
   34MOL    O39 4725   2.377   5.014   4.038 -0.5308 -0.4353 -0.2894
   34MOL    H40 4726   2.666   5.148   4.152  0.9768  2.9752 -1.7492
   34MOL    H41 4727   2.523   5.212   4.058  0.9224  1.6732  1.9701
   34MOL    H42 4728   2.479   5.019   4.222  1.2151 -3.1060  0.3468
   34MOL    H43 4729   2.527   4.904   4.094  2.9679  1.3785 -1.1834
   34MOL    C44 4730   2.276   4.915   4.057  0.0706 -0.6662 -0.9341
   34MOL    C45 4731   2.150   4.969   3.985  0.0969 -0.0554 -0.1080
   34MOL    O46 4732   2.156   4.960   3.841  0.4584  0.0280 -0.1514
   34MOL    H47 4733   2.313   4.817   4.027 -0.3282 -1.0488 -0.1996
   34MOL    H48 4734   2.256   4.902   4.163  1.1163 -4.5886 -1.1320
   34MOL    H49 4735   2.121   5.065   4.028 -1.4324 -0.6923  0.3205
   34MOL    H50 4736   2.069   4.907   4.024 -0.8827  3.4536  3.8236
   34MOL    C51 4737   2.035   5.015   3.783 -0.1091 -0.3622  0.8498
   34MOL    C52 4738   1.996   4.946   3.646  0.0855  0.2223  0.4132
   34MOL    O53 4739   1.966   4.807   3.646  0.1846  0.3722 -0.3407
   34MOL    H54 4740   1.945   5.019   3.845 -2.3712  0.1290 -2.3265
   34MOL    H55 4741   2.051   5.121   3.763 -1.5833 -0.3968 -0.5929
   34MOL    H56 4742   2.062   4.979   3.566 -1.7910  0.6773 -0.9722
   34MOL    H57 4743   1.907   5.004   3.623  0.5345  0.9328  0.4195
   34MOL    C58 4744   2.078   4.725   3.646  0.2085  0.7601  0.3682
   34MOL    C59 4745   2.020   4.596   3.606 -0.4946  0.1498  0.1366
   34MOL    O60 4746   2.127   4.498   3.593 -0.3252 -0.5181 -0.8804
   34MOL    H61 4747   2.150   4.765   3.574 -1.4045 -0.1749 -1.8415
   34MOL    H62 4748   2.124   4.721   3.744 -2.4652 -0.5798  1.6182
   34MOL    H63 4749   1.987   4.605   3.502  0.8560  0.9964 -0.2227
   34MOL    H64 4750   1.933   4.552   3.655 -1.7839  1.5797 -0.8159
   34MOL    C65 4751   2.085   4.370   3.551  0.1278  0.4846  0.1649
   34MOL    C66 4752   2.195   4.278   3.488  0.4351  0.0821  0.0333
   34MOL    O67 4753   2.270   4.209   3.586  0.3333 -0.5056  0.4127
   34MOL    H68 4754   2.040   4.314   3.632  1.6232 -0.8988  0.0472
   34MOL    H69 4755   1.998   4.369   3.485  0.1794 -0.7155  0.1047
   34MOL    H70 4756   2.259   4.338   3.424 -2.1471  2.3446 -0.5096
   34MOL    H71 4757   2.136   4.203   3.435  0.0604  0.3879  0.0097
   34MOL    C72 4758   2.365   4.126   3.521 -0.2306 -0.2428  0.0889
   34MOL    C73 4759   2.473   4.082   3.614 -0.5062 -0.0996 -1.1911
   34MOL    O74 4760   2.570   4.019   3.536  0.5167 -0.0925 -0.5527
   34MOL    H75 4761   2.315   4.037   3.483  0.6744 -0.3796 -0.7954
   34MOL    H76 4762   2.413   4.181   3.441 -0.2179  1.6684  1.3768
   34MOL    H77 4763   2.447   4.029   3.706 -0.7823  0.3525 -1.0055
   34MOL    H78 4764   2.516   4.171   3.661 -2.3181 -0.1881  0.7170
   34MOL    C79 4765   2.686   3.973   3.598 -0.2698  0.3274 -0.1837
   34MOL    C80 4766   2.660   3.856   3.699  0.1395 -0.6450 -0.1692
   34MOL    O81 4767   2.626   3.925   3.817 -0.3834  0.3043  0.0832
   34MOL    H82 4768   2.748   3.932   3.518  0.0187  0.0875  0.1624
   34MOL    H83 4769   2.734   4.061   3.639 -0.6077  0.0907  0.7435
   34MOL    H84 4770   2.756   3.811   3.722 -0.7787 -1.9583  1.1703
   34MOL    H85 4771   2.590   3.778   3.669 -0.4474 -0.0037 -0.4754
   34MOL    C86 4772   2.657   3.831   3.926  0.6372 -0.0089  0.1525
   34MOL    C87 4773   2.576   3.858   4.052  0.1570 -0.5507  0.3407
   34MOL    O88 4774   2.436   3.846   4.009  0.0609  0.3569 -0.6973
   34MOL    H89 4775   2.650   3.725   3.901 -0.6034  0.0468  0.2141
   34MOL    H90 4776   2.761   3.824   3.957 -0.0620 -2.2949  2.1674
   34MOL    H91 4777   2.596   3.951   4.104 -2.0133  0.0670  0.1258
   34MOL    H92 4778   2.607   3.775   4.116 -0.3516 -0.8972  0.1423
   34MOL    C93 4779   2.344   3.857   4.109  0.1633  0.5539 -0.3064
   34MOL    C94 4780   2.206   3.798   4.057  0.5885  0.3604  0.5346
   34MOL    O95 4781   2.113   3.894   4.003 -0.1343 -0.1144 -0.4090
   34MOL    H96 4782   2.377   3.784   4.183 -0.5245 -0.7048 -1.2245
   34MOL    H97 4783   2.336   3.957   4.151 -1.3629  0.3010  0.0382
   34MOL    H98 4784   2.162   3.753   4.146  1.7862 -0.7238  0.5893
   34MOL    H99 4785   2.222   3.708   3.998  0.2097 -0.8314  2.1930
   34MOL   C100 4786   2.165   3.963   3.885  0.3400  0.5408 -0.1879
   34MOL   C101 4787   2.065   4.060   3.822 -0.1825  0.7859 -0.2779
   34MOL   O102 4788   1.994   4.012   3.705 -0.3537 -0.4369  0.1240
   34MOL   H103 4789   2.261   4.012   3.901  0.5751  0.0932 -0.2111
   34MOL   H104 4790   2.178   3.893   3.803  1.3745  0.5302 -0.0255
   34MOL   H105 4791   2.124   4.145   3.789  0.4474  0.0785 -1.0204
   34MOL   H106 4792   1.998   4.094   3.900 -2.2129  1.2879 -2.1835
   34MOL   C107 4793   1.876   3.934   3.747 -0.0844 -0.4174  0.5495
   34MOL   C108 4794   1.782   3.902   3.627 -0.2258 -0.3413 -0.2853
   34MOL   O109 4795   1.836   3.807   3.537  0.2190 -0.4479  0.1063
   34MOL   H110 4796   1.917   3.840   3.784  0.1764 -0.2654  0.6519
   34MOL   H111 4797   1.818   3.990   3.820 -0.7928 -1.0510  0.4702
   34MOL   H112 4798   1.760   3.998   3.580  1.5815 -0.3122 -1.1164
   34MOL   H113 4799   1.684   3.877   3.668 -0.4644 -2.1246 -1.8733
   34MOL   C114 4800   1.728   3.745   3.467 -0.6790 -0.2443  0.4024
   34MOL   C115 4801   1.639   3.650   3.548 -0.3063  0.2818  0.1988
   34MOL   O116 4802   1.524   3.725   3.587 -0.3724 -0.1761  0.0241
   34MOL   H117 4803   1.673   3.812   3.401  3.1447  0.8188 -1.8778
   34MOL   H118 4804   1.785   3.680   3.401  0.1000 -2.7493  3.4012
   34MOL   H119 4805   1.695   3.610   3.633  1.8421  1.2379 -0.7525
   34MOL   H120 4806   1.612   3.562   3.488 -1.3689  0.9476 -0.3138
   34MOL   C121 4807   1.451   3.661   3.687  0.0412 -0.4316 -0.6316
   34MOL   C122 4808   1.515   3.696   3.819 -0.1817 -0.2259 -0.0685
   34MOL   O123 4809   1.458   3.820   3.864 -0.5281 -0.6016  0.1813
   34MOL   H124 4810   1.346   3.688   3.673 -0.4963 -1.8709  0.3923
   34MOL   H125 4811   1.451   3.554   3.670  0.0571 -0.3643 -1.0463
   34MOL   H126 4812   1.624   3.700   3.814 -0.2075 -0.4194 -0.7479
   34MOL   H127 4813   1.494   3.624   3.899 -0.2393  1.9110  1.8815
   34MOL   C128 4814   1.544   3.880   3.961 -0.1462 -0.0019  0.2897
   34MOL   C129 4815   1.522   3.800   4.100  0.0895  0.0746  0.0261
   34MOL   O130 4816   1.403   3.818   4.176  0.0431  0.3199  0.1992
   34MOL   H131 4817   1.651   3.886   3.939  0.1538 -2.4250  0.9289
   34MOL   H132 4818   1.503   3.981   3.967  0.6832  0.3910 -0.3846
   34MOL   H133 4819   1.595   3.836   4.172 -0.8526  2.9227 -0.3693
   34MOL   H134 4820   1.546   3.696   4.079 -1.9483 -0.0980 -1.6007
   34MOL   C135 4821   1.284   3.756   4.128 -0.3103 -0.3616  0.7443
   34MOL   C136 4822   1.159   3.783   4.214  0.0854 -0.2693  0.3147
   34MOL   O137 4823   1.152   3.684   4.315  0.2076 -0.0745 -0.2710
   34MOL   H138 4824   1.274   3.808   4.032  1.7496 -0.1390  0.6421
   34MOL   H139 4825   1.305   3.650   4.118 -2.6821 -0.6372 -1.9786
   34MOL   H140 4826   1.076   3.773   4.144  1.3661  0.6163 -1.4072
   34MOL   H141 4827   1.172   3.880   4.262 -0.5831 -0.7530  1.4777
   34MOL   H142 4828   1.140   3.600   4.274  1.2219  0.6351 -2.1368
   35MOL     C1 4829   3.675   2.156   5.614  0.5003 -0.5546  0.2464
   35MOL     C2 4830   3.541   2.083   5.599  0.0478  0.3878 -0.4382
   35MOL     O3 4831   3.560   1.942   5.593 -0.7142 -0.3992  0.0696
   35MOL     H4 4832   3.712   2.138   5.715  0.2821 -1.3044  0.1888
   35MOL     H5 4833   3.658   2.262   5.591  1.6038 -0.7293 -1.4094
   35MOL     H6 4834   3.476   2.118   5.520 -1.7174 -0.6555  0.5065
   35MOL     H7 4835   3.481   2.095   5.689  0.3250 -2.6140  0.2046
   35MOL     H8 4836   3.751   2.112   5.550 -0.7584 -1.1507 -0.8487
   35MOL     C9 4837   3.443   1.868   5.591 -0.0296  0.4141  1.6015
   35MOL    C10 4838   3.388   1.842   5.450 -0.5313  0.4882 -0.1651
   35MOL    O11 4839   3.311   1.948   5.417 -0.3192  0.0358 -0.5186
   35MOL    H12 4840   3.442   1.770   5.639 -0.5540 -1.7735 -2.6126
   35MOL    H13 4841   3.368   1.922   5.649 -1.1657  0.4500  0.1392
   35MOL    H14 4842   3.320   1.759   5.433 -1.1324  1.0151 -0.3704
   35MOL    H15 4843   3.467   1.844   5.375 -0.8103  1.6363 -0.4363
   35MOL    C16 4844   3.206   1.926   5.314  0.3571  0.0123  0.4618
   35MOL    C17 4845   3.261   1.922   5.164  0.5523 -1.0446 -0.1510
   35MOL    O18 4846   3.150   1.923   5.078  0.0597  0.7249  0.0947
   35MOL    H19 4847   3.141   1.845   5.344  0.0064  0.5593  1.1995
   35MOL    H20 4848   3.145   2.016   5.321 -1.4602 -1.2944  1.4275
   35MOL    H21 4849   3.330   1.842   5.140  0.3297 -1.6850  1.3056
   35MOL    H22 4850   3.315   2.015   5.145  0.2843 -0.5767  1.3286
   35MOL    C23 4851   3.192   1.925   4.941 -0.7896  0.1280 -0.1406
   35MOL    C24 4852   3.073   1.896   4.848 -0.2338 -0.3169  0.2632
   35MOL    O25 4853   3.036   2.024   4.803 -0.5648  0.2212  0.1899
   35MOL    H26 4854   3.258   2.006   4.912 -1.8379  1.1454  0.2987
   35MOL    H27 4855   3.258   1.840   4.924 -0.7924  0.2120 -0.5893
   35MOL    H28 4856   2.989   1.850   4.899 -0.2355  0.3478  0.8628
   35MOL    H29 4857   3.094   1.837   4.758 -0.2251  0.3881 -0.2045
   35MOL    C30 4858   2.942   2.009   4.692  0.2582  0.2253  0.7150
   35MOL    C31 4859   2.851   2.130   4.671  0.5225 -0.6613  0.4864
   35MOL    O32 4860   2.915   2.229   4.597  0.5659 -0.0135 -0.3980
   35MOL    H33 4861   2.980   1.975   4.595 -0.3632  1.2480  0.1112
   35MOL    H34 4862   2.879   1.931   4.734  0.1510 -0.0737  0.0002
   35MOL    H35 4863   2.820   2.170   4.768 -1.2337 -0.0182 -0.3164
   35MOL    H36 4864   2.768   2.084   4.618  0.3919 -0.8250  0.8316
   35MOL    C37 4865   2.830   2.317   4.517 -0.2872 -0.0964 -0.0638
   35MOL    C38 4866   2.918   2.421   4.445  0.3684 -0.5773  0.6083
   35MOL    O39 4867   2.854   2.544   4.414 -0.3864 -0.0422 -0.7674
   35MOL    H40 4868   2.764   2.266   4.447 -0.4526 -2.1780  1.5626
   35MOL    H41 4869   2.754   2.366   4.578  1.0097  0.4506  1.1445
   35MOL    H42 4870   2.963   2.375   4.357 -2.2056  1.8258 -2.0907
   35MOL    H43 4871   3.002   2.453   4.507 -1.2859  1.0783  2.0627
   35MOL    C44 4872   2.948   2.643   4.370  0.6361 -0.0672 -0.0507
   35MOL    C45 4873   2.873   2.734   4.273 -0.4899  0.0948  0.9936
   35MOL    O46 4874   2.816   2.657   4.161 -0.0852  0.2650  0.5251
   35MOL    H47 4875   2.988   2.704   4.451  0.9132  1.8452 -1.5873
   35MOL    H48 4876   3.025   2.603   4.305 -1.5512  1.7636 -3.9776
   35MOL    H49 4877   2.941   2.812   4.239 -2.8102  1.3641 -0.8090
   35MOL    H50 4878   2.794   2.787   4.326 -2.2121 -0.6800 -0.7920
   35MOL    C51 4879   2.744   2.747   4.070  0.0470 -0.2841  0.2461
   35MOL    C52 4880   2.700   2.680   3.948 -0.6028  0.5352  0.0516
   35MOL    O53 4881   2.598   2.772   3.895  0.1318  0.2845  0.3549
   35MOL    H54 4882   2.655   2.778   4.125 -0.4499  1.4301 -1.4112
   35MOL    H55 4883   2.803   2.839   4.059  1.1472 -0.9131  0.8477
   35MOL    H56 4884   2.666   2.589   3.996  1.0327  0.8646  1.8728
   35MOL    H57 4885   2.783   2.668   3.878  0.3147  0.6264  1.1114
   35MOL    C58 4886   2.561   2.732   3.764 -0.3105  0.0070  0.6965
   35MOL    C59 4887   2.467   2.836   3.691 -0.3637  0.8734 -0.5111
   35MOL    O60 4888   2.325   2.800   3.729  0.1160 -0.0381  0.0153
   35MOL    H61 4889   2.651   2.735   3.701 -0.6191  2.0211  0.3067
   35MOL    H62 4890   2.514   2.635   3.749 -1.6844  1.0449 -2.2654
   35MOL    H63 4891   2.470   2.845   3.583 -3.5034  1.1863 -0.6033
   35MOL    H64 4892   2.501   2.929   3.737  1.7132  0.3985 -1.0386
   35MOL    C65 4893   2.223   2.886   3.672 -0.4504 -0.4638 -0.1839
   35MOL    C66 4894   2.242   3.036   3.725 -0.2902  0.0184  0.2219
   35MOL    O67 4895   2.177   3.066   3.845  0.4820 -0.5447  0.7569
   35MOL    H68 4896   2.240   2.894   3.565  1.8742  0.8363  0.2511
   35MOL    H69 4897   2.121   2.850   3.683 -0.3891 -0.7873 -0.6765
   35MOL    H70 4898   2.188   3.096   3.653 -1.5479 -0.5046  0.6988
   35MOL    H71 4899   2.341   3.077   3.708 -1.6008  3.8779  1.4038
   35MOL    C72 4900   2.253   3.049   3.959  0.4954 -0.7503 -0.2317
   35MOL    C73 4901   2.173   3.034   4.087  0.6125  0.5057 -0.2981
   35MOL    O74 4902   2.130   3.165   4.134  0.0904  0.0289  0.7778
   35MOL    H75 4903   2.309   2.956   3.947  0.1167 -1.3871  2.5322
   35MOL    H76 4904   2.323   3.133   3.968 -1.0158  0.3876  1.0121
   35MOL    H77 4905   2.236   2.987   4.162  0.2243  1.2026  0.4779
   35MOL    H78 4906   2.095   2.959   4.073  0.1376  1.1655 -1.1936
   35MOL    C79 4907   2.046   3.158   4.250 -0.8719  0.6317 -0.6239
   35MOL    C80 4908   2.008   3.299   4.286  0.0918  0.1683 -0.4217
   35MOL    O81 4909   2.117   3.376   4.329  0.2354 -0.2175 -0.4436
   35MOL    H82 4910   1.957   3.096   4.237 -1.1260  0.8801 -0.0725
   35MOL    H83 4911   2.091   3.100   4.330 -2.7693 -1.3419 -0.9277
   35MOL    H84 4912   1.940   3.312   4.370  1.2514 -0.9768  0.7326
   35MOL    H85 4913   1.951   3.353   4.210 -1.2937 -0.2796  0.2782
   35MOL    C86 4914   2.177   3.464   4.242  0.2552 -0.2468 -0.5628
   35MOL    C87 4915   2.328   3.477   4.279  0.5290 -0.2398  0.1170
   35MOL    O88 4916   2.392   3.356   4.303  0.7805  0.0465  0.4614
   35MOL    H89 4917   2.179   3.427   4.139 -0.0827  0.6477 -0.8921
   35MOL    H90 4918   2.124   3.559   4.242  0.5927 -0.0471 -1.9217
   35MOL    H91 4919   2.320   3.529   4.374 -0.1977  1.2165 -0.7219
   35MOL    H92 4920   2.371   3.549   4.209 -0.2515 -0.7507 -0.9035
   35MOL    C93 4921   2.461   3.298   4.195 -0.1213 -0.1678  0.9793
   35MOL    C94 4922   2.536   3.170   4.230 -0.2330 -0.6674  0.8357
   35MOL    O95 4923   2.661   3.195   4.290 -0.4156 -0.3315 -0.2741
   35MOL    H96 4924   2.376   3.279   4.129 -1.3429  0.5549  2.3042
   35MOL    H97 4925   2.526   3.374   4.151 -1.2675 -0.0150 -0.5153
   35MOL    H98 4926   2.563   3.125   4.135 -2.1035 -2.0481  0.9403
   35MOL    H99 4927   2.463   3.108   4.282  0.0295 -1.0117  0.8005
   35MOL   C100 4928   2.675   3.115   4.404  1.1519 -0.1163  0.6391
   35MOL   C101 4929   2.820   3.146   4.468 -0.3552 -0.7551  0.5864
   35MOL   O102 4930   2.927   3.074   4.401 -0.2702 -0.2145  0.6484
   35MOL   H103 4931   2.597   3.148   4.473 -0.1889 -0.7543 -0.5540
   35MOL   H104 4932   2.656   3.009   4.388  0.3941 -0.2623  2.3879
   35MOL   H105 4933   2.825   3.118   4.573  0.5889  1.9747  1.3296
   35MOL   H106 4934   2.843   3.253   4.468  1.6585 -1.1493  3.1388
   35MOL   C107 4935   3.040   3.092   4.488 -0.1612  0.0289 -0.1437
   35MOL   C108 4936   3.163   3.020   4.429 -0.1201 -0.2624  0.1600
   35MOL   O109 4937   3.259   3.115   4.391  0.2798  0.1415 -0.2374
   35MOL   H110 4938   3.063   3.195   4.515  1.7836 -0.3294 -0.3420
   35MOL   H111 4939   3.009   3.052   4.584  0.0331 -0.8087 -0.4211
   35MOL   H112 4940   3.133   2.956   4.346 -1.2964  1.5879 -0.8475
   35MOL   H113 4941   3.207   2.957   4.507 -0.8179  1.2734  1.8177
   35MOL   C114 4942   3.376   3.066   4.331 -0.0519  0.5810 -0.2225
   35MOL   C115 4943   3.356   3.044   4.181 -0.6076  0.0007  0.3332
   35MOL   O116 4944   3.299   2.921   4.151  0.3854 -0.3796  0.5659
   35MOL   H117 4945   3.459   3.136   4.346 -0.0483  0.4896  0.1978
   35MOL   H118 4946   3.422   2.975   4.368  1.7153  1.4100 -0.3004
   35MOL   H119 4947   3.447   3.049   4.121 -1.7807  0.0379 -1.5071
   35MOL   H120 4948   3.300   3.121   4.128 -0.5984 -1.5001 -1.9404
   35MOL   C121 4949   3.232   2.922   4.025 -0.0659 -0.2388 -0.3473
   35MOL   C122 4950   3.198   2.780   3.982  0.3913  0.1165  0.4269
   35MOL   O123 4951   3.176   2.775   3.843 -0.1858  0.3686  0.1465
   35MOL   H124 4952   3.139   2.978   4.018 -2.4586 -4.0541 -0.6991
   35MOL   H125 4953   3.306   2.952   3.951  1.6087  0.0991  1.4367
   35MOL   H126 4954   3.118   2.728   4.035  0.7982  0.4207  1.3590
   35MOL   H127 4955   3.288   2.723   4.006  0.9124 -0.0073 -1.6842
   35MOL   C128 4956   3.129   2.644   3.811  0.3983 -0.1032  0.4079
   35MOL   C129 4957   3.145   2.619   3.664  0.2914 -0.3752  0.0034
   35MOL   O130 4958   3.217   2.501   3.637 -0.3240  0.8288 -0.1355
   35MOL   H131 4959   3.189   2.570   3.864 -0.5356 -2.1091 -1.2640
   35MOL   H132 4960   3.025   2.625   3.837  0.4021 -0.3474  0.2409
   35MOL   H133 4961   3.193   2.708   3.626 -0.6457  0.3590  0.5029
   35MOL   H134 4962   3.048   2.618   3.613  0.7103  3.1182 -0.9840
   35MOL   C135 4963   3.230   2.479   3.495  0.0612  0.1536  0.2269
   35MOL   C136 4964   3.355   2.395   3.476  0.1509  0.8606 -0.8391
   35MOL   O137 4965   3.322   2.256   3.503 -0.0317  0.4761  0.3431
   35MOL   H138 4966   3.137   2.452   3.446 -0.8764 -0.0895  2.0721
   35MOL   H139 4967   3.261   2.572   3.448 -2.2572  1.2878  0.8589
   35MOL   H140 4968   3.441   2.423   3.538  1.0489  0.0525 -1.7088
   35MOL   H141 4969   3.377   2.401   3.370  0.2869  0.3950 -0.8384
   35MOL   H142 4970   3.263   2.254   3.576 -1.2258 -2.4711 -0.5995
   36MOL     C1 4971   4.210   5.017   7.335  0.4154 -0.3087 -0.4819
   36MOL     C2 4972   4.111   4.954   7.435 -0.8864 -1.0588 -0.2472
   36MOL     O3 4973   4.076   4.818   7.396  0.3109 -0.0609 -0.4806
   36MOL     H4 4974   4.170   4.999   7.236  1.1623  0.4156 -0.9231
   36MOL     H5 4975   4.312   4.980   7.348  1.4607  2.8602  0.8022
   36MOL     H6 4976   4.019   5.012   7.444  0.8437  1.4910  1.7582
   36MOL     H7 4977   4.160   4.955   7.532 -0.3516  0.5886 -0.5114
   36MOL     H8 4978   4.222   5.123   7.355 -1.5171  0.2468 -2.0936
   36MOL     C9 4979   4.023   4.734   7.504 -0.6072 -0.0487  0.0219
   36MOL    C10 4980   3.961   4.614   7.434  0.0793  0.6954  0.1252
   36MOL    O11 4981   3.935   4.513   7.526  0.0393  0.0086 -0.4110
   36MOL    H12 4982   4.092   4.703   7.583 -1.5308  1.5294  1.4708
   36MOL    H13 4983   3.948   4.790   7.559  1.0308  2.3101 -0.0593
   36MOL    H14 4984   4.033   4.569   7.366  2.3238  1.5420  1.8557
   36MOL    H15 4985   3.875   4.644   7.375  0.5060  1.0063 -0.3428
   36MOL    C16 4986   3.826   4.428   7.479 -0.7465 -0.0475 -0.1455
   36MOL    C17 4987   3.773   4.332   7.596  0.2750  0.3130  0.6777
   36MOL    O18 4988   3.849   4.205   7.611 -0.2437 -0.0248 -0.1513
   36MOL    H19 4989   3.745   4.491   7.442 -0.8459 -0.8191 -1.2788
   36MOL    H20 4990   3.844   4.367   7.391  2.9491 -0.8957  1.1124
   36MOL    H21 4991   3.675   4.290   7.573  0.7068 -0.8919  0.9957
   36MOL    H22 4992   3.773   4.387   7.691  2.3387 -1.5986  1.8141
   36MOL    C23 4993   3.958   4.221   7.700 -0.1635  0.0423  0.4578
   36MOL    C24 4994   4.051   4.097   7.698 -0.4969 -0.1785  0.4445
   36MOL    O25 4995   4.183   4.129   7.727 -0.4385 -0.2881 -0.2148
   36MOL    H26 4996   4.016   4.297   7.649  0.3502 -0.8163 -0.2415
   36MOL    H27 4997   3.931   4.258   0.028  0.3847  0.1797  0.5579
   36MOL    H28 4998   4.039   4.045   7.603  1.2423 -0.9608  0.6340
   36MOL    H29 4999   4.011   4.027   7.771 -0.7904  0.4397  0.8835
   36MOL    C30 5000   4.278   4.031   7.693  0.0877 -0.8792 -0.0153
   36MOL    C31 5001   4.418   4.087   7.664 -0.3354  0.2165  0.0354
   36MOL    O32 5002   4.451   4.154   0.006 -0.6315  0.1923 -0.3872
   36MOL    H33 5003   4.274   3.953   7.769 -0.5651 -1.6538 -0.8278
   36MOL    H34 5004   4.253   3.972   7.604  1.2572  0.7839 -1.4826
   36MOL    H35 5005   4.408   4.164   7.588  0.1793  0.7390  0.4935
   36MOL    H36 5006   4.491   4.013   7.632 -0.8657 -0.1906 -0.2413
   36MOL    C37 5007   4.591   4.186   0.016 -0.0606  0.0873 -0.8263
   36MOL    C38 5008   4.636   4.293   7.700  0.4839 -0.2241  0.0591
   36MOL    O39 5009   4.658   4.247   7.568  0.1651  0.3853 -0.0442
   36MOL    H40 5010   4.605   4.223   0.118  1.2450 -0.3953 -0.8232
   36MOL    H41 5011   4.644   4.091   0.009 -0.7087 -0.4484  1.2400
   36MOL    H42 5012   4.736   4.309   7.739 -0.9677  1.6268  3.1768
   36MOL    H43 5013   4.570   4.380   7.703  1.8880  0.8239  1.3340
   36MOL    C44 5014   4.662   4.367   7.483 -0.2443  0.7842 -0.1644
   36MOL    C45 5015   4.525   4.409   7.420 -0.5258 -0.0562  0.2155
   36MOL    O46 5016   4.553   4.474   7.296 -0.4321 -0.4426 -0.2210
   36MOL    H47 5017   4.721   4.450   7.521  2.2147 -0.7137 -0.6202
   36MOL    H48 5018   4.725   4.334   7.400 -0.0817  1.0343 -0.1385
   36MOL    H49 5019   4.483   4.475   7.496  0.9461  1.7571 -0.5218
   36MOL    H50 5020   4.454   4.327   7.437  0.0039 -0.6740 -0.5152
   36MOL    C51 5021   4.441   4.543   7.233  0.3020  0.6811 -0.6296
   36MOL    C52 5022   4.502   4.632   7.130 -0.0523 -0.0589  0.2110
   36MOL    O53 5023   4.526   4.765   7.182 -0.3584  0.2690 -0.8365
   36MOL    H54 5024   4.377   4.468   7.186  0.2014  0.6411 -0.4286
   36MOL    H55 5025   4.378   4.607   7.295  0.7507 -0.3986  0.9565
   36MOL    H56 5026   4.435   4.643   7.044  0.4560 -1.2493 -0.3483
   36MOL    H57 5027   4.594   4.594   7.088 -0.4653 -1.5097  0.5941
   36MOL    C58 5028   4.608   4.850   7.103 -0.0600  0.7065  0.1055
   36MOL    C59 5029   4.670   4.952   7.195 -1.2921 -0.8560  0.3726
   36MOL    O60 5030   4.786   5.019   7.134 -0.3478 -0.2308 -0.0764
   36MOL    H61 5031   4.688   4.785   7.069  0.3413  1.5224 -0.5287
   36MOL    H62 5032   4.560   4.903   7.021  0.3266  0.0025 -0.5802
   36MOL    H63 5033   4.705   4.902   7.285 -1.3957  1.5684  1.7955
   36MOL    H64 5034   4.591   5.025   7.214  0.3816  0.8147  1.0078
   36MOL    C65 5035   4.842   5.126   7.205  0.5235  0.1078  0.0977
   36MOL    C66 5036   4.980   5.147   7.140 -0.0183 -0.2945  0.1124
   36MOL    O67 5037   4.991   5.277   7.079  0.3808 -0.0615 -0.0931
   36MOL    H68 5038   4.789   5.220   7.197 -0.8419 -0.5725  0.9249
   36MOL    H69 5039   4.850   5.084   7.305  2.6305 -1.7540 -0.8004
   36MOL    H70 5040   5.002   5.064   7.073 -0.5660 -0.6651  0.3854
   36MOL    H71 5041   5.052   5.144   7.222  0.3010 -0.1983 -0.1670
   36MOL    C72 5042   5.122   5.282   7.022 -0.0735 -0.5933  0.5645
   36MOL    C73 5043   5.115   5.380   6.903 -0.1755 -0.2394  1.1615
   36MOL    O74 5044   5.120   5.519   6.937 -0.2319  0.6576 -0.3457
   36MOL    H75 5045   5.188   5.330   7.094  0.0812 -0.2161  0.1758
   36MOL    H76 5046   5.175   5.189   7.001 -0.7976 -1.1120  1.0045
   36MOL    H77 5047   5.027   5.367   6.840  1.7600  1.5257 -2.0660
   36MOL    H78 5048   5.200   5.368   6.836 -0.4758  1.1178  0.5241
   36MOL    C79 5049   4.986   5.576   6.946 -0.4798 -0.2229  0.5127
   36MOL    C80 5050   5.018   5.723   6.980  0.0115  0.3093 -0.0917
   36MOL    O81 5051   5.070   5.733   7.108  0.1193 -0.0050  0.1231
   36MOL    H82 5052   4.935   5.571   6.850 -0.3178 -1.5400  0.4769
   36MOL    H83 5053   4.934   5.509   7.016  1.3319 -3.5308 -1.1764
   36MOL    H84 5054   4.926   5.782   6.979  1.1080  2.0157 -0.4031
   36MOL    H85 5055   5.093   5.760   6.910 -1.3739  0.8991 -1.2872
   36MOL    C86 5056   5.075   5.871   7.149 -1.6188 -0.7358  0.2589
   36MOL    C87 5057   5.169   5.875   7.271 -0.1611 -0.1474 -0.8616
   36MOL    O88 5058   5.172   6.008   7.314 -0.2083 -0.2444  0.1801
   36MOL    H89 5059   5.124   5.939   7.079 -0.0870 -1.3286  0.7381
   36MOL    H90 5060   4.976   5.913   7.169 -0.8197  1.1285  0.5053
   36MOL    H91 5061   5.269   5.837   7.251  0.3137  0.0959  0.9463
   36MOL    H92 5062   5.131   5.816   7.354  1.4379  0.5264  0.4014
   36MOL    C93 5063   5.265   6.017   7.422 -0.2641 -0.6023 -0.1540
   36MOL    C94 5064   5.240   6.135   7.505  0.0630  0.2270 -0.5377
   36MOL    O95 5065   5.129   6.117   7.594  0.3809  0.0915 -0.5017
   36MOL    H96 5066   5.271   5.930   7.488  2.5266  0.2242  0.7195
   36MOL    H97 5067   5.364   6.032   7.380 -1.0186  0.8862 -1.4677
   36MOL    H98 5068   5.231   6.230   7.453  0.1444  1.7010  2.0446
   36MOL    H99 5069   5.319   6.153   7.577 -0.8534 -0.8504  0.7640
   36MOL   C100 5070   5.102   6.238   7.666 -0.0366  0.0797 -0.0291
   36MOL   C101 5071   4.992   6.208   7.763  0.1546 -0.0770  0.4265
   36MOL   O102 5072   5.035   6.120   0.095 -0.1815  0.3562 -0.9474
   36MOL   H103 5073   5.189   6.270   7.723 -0.2704 -0.0677  0.4074
   36MOL   H104 5074   5.071   6.323   7.605  1.6147  0.5374 -0.2595
   36MOL   H105 5075   4.915   6.152   7.709 -0.9793  0.5538  1.3677
   36MOL   H106 5076   4.959   6.299   0.042 -0.5831 -0.7475  1.1754
   36MOL   C107 5077   4.934   6.065   0.181  0.6737 -0.4654 -0.8420
   36MOL   C108 5078   4.887   6.162   0.290 -0.3063  0.5210 -0.1702
   36MOL   O109 5079   4.992   6.181   0.376  0.1258  0.1511 -0.0982
   36MOL   H110 5080   4.856   6.029   0.115 -1.3863  0.9994  0.7360
   36MOL   H111 5081   4.977   5.982   0.238 -2.5626 -1.2669  0.5613
   36MOL   H112 5082   4.796   6.133   0.341  0.5590 -1.6965  0.1597
   36MOL   H113 5083   4.861   6.258   0.245 -1.2717  0.5466  0.4255
   36MOL   C114 5084   4.968   6.266   0.483 -0.1983 -0.3605  0.1683
   36MOL   C115 5085   5.073   6.236   0.595  0.3155 -0.0163  0.4258
   36MOL   O116 5086   5.053   6.113   0.655 -0.6419 -0.2390  0.6539
   36MOL   H117 5087   4.996   6.365   0.446  0.7992 -1.7287 -2.9413
   36MOL   H118 5088   4.866   6.255   0.518 -0.3944 -0.6972 -0.4892
   36MOL   H119 5089   5.063   6.318   0.667  0.5896 -0.6654  1.1982
   36MOL   H120 5090   5.170   6.239   0.545  0.3706  1.3679  0.5912
   36MOL   C121 5091   5.119   6.100   0.776 -0.6954  0.1050 -0.0908
   36MOL   C122 5092   5.127   5.946   0.814 -0.4703 -0.0089  0.1356
   36MOL   O123 5093   4.998   5.897   0.840 -0.0521  0.1350 -0.0071
   36MOL   H124 5094   5.222   6.135   0.765 -1.1935  0.9730 -2.3306
   36MOL   H125 5095   5.071   6.163   0.851 -0.6887 -0.1902  0.1655
   36MOL   H126 5096   5.188   5.922   0.902  0.4773  0.9300 -0.2523
   36MOL   H127 5097   5.171   5.890   0.732  1.7163  1.3548  0.3402
   36MOL   C128 5098   4.997   5.758   0.871 -0.7926  0.0013 -0.4154
   36MOL   C129 5099   4.967   5.730   1.011  0.5335 -0.0196  0.2622
   36MOL   O130 5100   4.827   5.744   1.039 -0.3765 -0.3594  0.3316
   36MOL   H131 5101   4.919   5.712   0.810  2.0731 -1.2031 -3.3487
   36MOL   H132 5102   5.098   5.724   0.847 -0.7757 -1.3168  1.4769
   36MOL   H133 5103   5.031   5.797   1.069  3.2059 -2.1723 -0.1080
   36MOL   H134 5104   4.995   5.629   1.041 -1.3434 -0.9574 -1.0660
   36MOL   C135 5105   4.775   5.868   1.080 -0.2476 -0.2041 -0.8644
   36MOL   C136 5106   4.625   5.877   1.075 -0.0959  0.3191 -0.2596
   36MOL   O137 5107   4.573   6.007   1.105 -0.1927  0.3673 -0.1957
   36MOL   H138 5108   4.801   5.894   1.183 -1.8065  0.4844 -0.6251
   36MOL   H139 5109   4.823   5.941   1.015 -0.6458 -0.1544 -1.1069
   36MOL   H140 5110   4.592   5.806   1.150  0.8022  1.0878  0.8886
   36MOL   H141 5111   4.593   5.835   0.980 -3.0158 -0.1682  0.8840
   36MOL   H142 5112   4.609   6.078   1.055 -0.9750  0.9423  0.0533
   37MOL     C1 5113   1.460   2.367   0.819  0.0845 -0.1328 -0.1875
   37MOL     C2 5114   1.559   2.456   0.748 -0.3427 -0.3266  0.7296
   37MOL     O3 5115   1.690   2.401   0.733  0.3582  0.0660 -0.1598
   37MOL     H4 5116   1.434   2.284   0.753  0.4457  0.7575 -1.4508
   37MOL     H5 5117   1.369   2.418   0.853  0.9929  2.8352 -2.0611
   37MOL     H6 5118   1.562   2.544   0.813 -2.7719 -0.4308  1.0044
   37MOL     H7 5119   1.518   2.484   0.651  2.7267  2.1949  0.0741
   37MOL     H8 5120   1.518   2.340   0.907 -0.0663 -2.6441 -0.8115
   37MOL     C9 5121   1.789   2.493   0.691  0.1396  0.0600 -0.8748
   37MOL    C10 5122   1.856   2.438   0.566  0.3658 -0.1543 -0.3290
   37MOL    O11 5123   1.936   2.324   0.588 -0.1835 -0.3226  0.2444
   37MOL    H12 5124   1.748   2.593   0.680 -0.4929 -0.0489  0.4147
   37MOL    H13 5125   1.867   2.505   0.766 -0.6374  0.7617 -0.1584
   37MOL    H14 5126   1.913   2.515   0.514  1.7848 -0.0193  1.3689
   37MOL    H15 5127   1.773   2.402   0.504 -0.7601  2.0513 -0.1269
   37MOL    C16 5128   1.964   2.249   0.466  0.4311 -0.2548  0.0653
   37MOL    C17 5129   2.103   2.186   0.466  0.4786 -0.1188 -0.1834
   37MOL    O18 5130   2.189   2.296   0.443 -0.6747  0.2133  0.3475
   37MOL    H19 5131   1.883   2.177   0.459 -0.8134  0.8887  1.9513
   37MOL    H20 5132   1.949   2.296   0.369 -1.2143 -0.8653 -0.0004
   37MOL    H21 5133   2.126   2.110   0.392  0.9487 -1.4909  1.3233
   37MOL    H22 5134   2.110   2.138   0.564  0.6148  1.2719  0.4980
   37MOL    C23 5135   2.284   2.304   0.555  0.3113 -0.1120  0.0824
   37MOL    C24 5136   2.351   2.440   0.551  0.0171  0.4062  0.4038
   37MOL    O25 5137   2.273   2.552   0.613 -0.0201  0.3418 -0.0278
   37MOL    H26 5138   2.238   2.291   0.654 -1.8935  0.3198 -0.8473
   37MOL    H27 5139   2.364   2.234   0.534  0.7591  0.3751  0.1677
   37MOL    H28 5140   2.385   2.454   0.448  0.6879  0.7490  0.6692
   37MOL    H29 5141   2.449   2.436   0.598  1.2407  3.5853 -1.6855
   37MOL    C30 5142   2.356   2.653   0.662 -0.1101 -0.4164  0.2726
   37MOL    C31 5143   2.266   2.770   0.717  0.2259  0.6937 -0.2738
   37MOL    O32 5144   2.190   2.837   0.617  0.2939 -0.8745 -0.1147
   37MOL    H33 5145   2.420   2.622   0.744 -0.8707 -1.2122  0.5624
   37MOL    H34 5146   2.418   2.688   0.579 -1.0369 -1.2187 -0.7888
   37MOL    H35 5147   2.324   2.840   0.776  0.6790 -1.5522  2.0392
   37MOL    H36 5148   2.198   2.724   0.790  2.0212  0.3882  1.2430
   37MOL    C37 5149   2.057   2.785   0.616 -0.5945 -0.0057 -0.4009
   37MOL    C38 5150   1.978   2.839   0.496  0.9322 -0.2015  0.1537
   37MOL    O39 5151   1.855   2.770   0.492 -0.3328  0.3308 -0.7705
   37MOL    H40 5152   2.068   2.678   0.600 -0.9550  0.0576 -1.0984
   37MOL    H41 5153   2.017   2.805   0.715 -2.5516 -0.6906 -1.0368
   37MOL    H42 5154   2.025   2.818   0.400 -0.7621 -2.9586 -0.1253
   37MOL    H43 5155   1.954   2.944   0.509 -1.3069 -0.5258 -1.0567
   37MOL    C44 5156   1.764   2.809   0.393  0.0785 -0.5604  0.1030
   37MOL    C45 5157   1.636   2.724   0.400  0.5355 -0.0514 -0.2927
   37MOL    O46 5158   1.663   2.598   0.358  0.0727  0.0154 -0.2414
   37MOL    H47 5159   1.737   2.912   0.417 -0.8958 -0.7628 -0.1240
   37MOL    H48 5160   1.802   2.814   0.290 -4.3553  0.6827 -1.5621
   37MOL    H49 5161   1.557   2.769   0.341  2.0984 -0.2366 -2.5815
   37MOL    H50 5162   1.614   2.704   0.505  0.6445 -1.6871 -0.5708
   37MOL    C51 5163   1.545   2.521   0.317 -0.0098 -0.4197 -0.1027
   37MOL    C52 5164   1.584   2.382   0.294 -0.5254 -0.3286  0.7769
   37MOL    O53 5165   1.527   2.289   0.386  0.0454 -0.6419 -0.2452
   37MOL    H54 5166   1.474   2.524   0.399  0.5359 -0.5230  0.3735
   37MOL    H55 5167   1.497   2.556   0.225  2.1042 -0.0409 -1.1017
   37MOL    H56 5168   1.689   2.359   0.274 -0.8853 -1.0022 -0.4597
   37MOL    H57 5169   1.543   2.344   0.200  0.5150  0.4683 -0.0050
   37MOL    C58 5170   1.564   2.157   0.372 -0.4374  0.5937 -0.5534
   37MOL    C59 5171   1.448   2.087   0.433 -0.1431 -0.6002 -0.0085
   37MOL    O60 5172   1.339   2.042   0.352  0.1021  0.4909 -0.0681
   37MOL    H61 5173   1.568   2.128   0.266 -1.9935  2.1904 -1.0668
   37MOL    H62 5174   1.661   2.136   0.418 -0.0490 -1.1496 -2.0726
   37MOL    H63 5175   1.409   2.149   0.513 -0.2916 -0.8265  0.0963
   37MOL    H64 5176   1.486   1.997   0.482  2.2886  1.1572  1.4391
   37MOL    C65 5177   1.241   2.146   0.317  0.9209  0.2770 -0.3239
   37MOL    C66 5178   1.121   2.092   0.235 -0.5002  0.0578  0.5776
   37MOL    O67 5179   1.149   2.063   0.094  0.1379  0.3867 -0.0378
   37MOL    H68 5180   1.201   2.181   0.412  2.2843  2.6051 -0.5686
   37MOL    H69 5181   1.293   2.227   0.266 -0.2568  0.8601 -0.6367
   37MOL    H70 5182   1.045   2.168   0.218 -1.1813 -0.5620  0.8197
   37MOL    H71 5183   1.074   2.007   0.285 -0.3334  0.1843  0.9479
   37MOL    C72 5184   1.034   2.035   0.022  0.2898  0.1148 -0.7662
   37MOL    C73 5185   1.083   1.955   7.667 -0.7741 -0.5665 -0.9455
   37MOL    O74 5186   0.981   1.913   7.578 -0.1174  0.2759 -0.5181
   37MOL    H75 5187   0.972   1.973   0.085  2.0791 -1.3797 -0.4251
   37MOL    H76 5188   0.978   2.125   7.766  1.1840  1.1064  0.6102
   37MOL    H77 5189   1.149   1.872   7.695 -1.3233 -0.4443  0.7504
   37MOL    H78 5190   1.136   2.027   7.605 -1.0716  0.7458  0.2863
   37MOL    C79 5191   0.917   1.797   7.627  0.5664 -0.0902 -0.2611
   37MOL    C80 5192   0.804   1.770   7.530 -0.6819  0.0970  0.2424
   37MOL    O81 5193   0.696   1.865   7.541 -0.2659  0.4086 -0.1627
   37MOL    H82 5194   0.978   1.707   7.623 -1.0703 -1.2222 -0.0497
   37MOL    H83 5195   0.882   1.809   7.730  1.1965  0.7695 -0.1334
   37MOL    H84 5196   0.764   1.673   7.560 -0.8275 -0.9120 -3.0290
   37MOL    H85 5197   0.850   1.765   7.431  0.2118  2.2493  0.5081
   37MOL    C86 5198   0.587   1.829   7.455 -0.4506 -0.0562 -0.5779
   37MOL    C87 5199   0.607   1.878   7.308 -0.3392  0.0541  0.1561
   37MOL    O88 5200   0.650   1.767   7.248  0.3677  0.4096 -0.5187
   37MOL    H89 5201   0.553   1.726   7.455 -0.6718  0.0101  1.1925
   37MOL    H90 5202   0.492   1.865   7.496  1.0098  1.5940  1.4469
   37MOL    H91 5203   0.666   1.968   7.289 -0.1791  0.2660  1.6059
   37MOL    H92 5204   0.511   1.899   7.261 -0.1514 -0.8809 -0.6676
   37MOL    C93 5205   0.706   1.791   7.125 -0.6382 -0.0846  0.0935
   37MOL    C94 5206   0.751   1.666   7.044  0.4035 -0.0482 -0.3953
   37MOL    O95 5207   0.880   1.627   7.087  0.4437  0.0093 -0.4783
   37MOL    H96 5208   0.618   1.827   7.072  1.1303  3.6770 -0.3986
   37MOL    H97 5209   0.795   1.853   7.125  0.1905 -1.2116  1.9811
   37MOL    H98 5210   0.741   1.678   6.936 -2.3264 -0.4752 -0.2416
   37MOL    H99 5211   0.678   1.587   7.061  1.7074 -1.1119  0.3741
   37MOL   C100 5212   0.925   1.519   7.001 -0.7715 -0.0229  0.0089
   37MOL   C101 5213   1.054   1.449   7.043  0.3934 -0.2056 -0.4533
   37MOL   O102 5214   1.051   1.308   7.025  0.8460 -0.0661  0.1426
   37MOL   H103 5215   0.841   1.450   6.992 -1.5452  0.8395  0.5170
   37MOL   H104 5216   0.950   1.559   6.903  1.1568 -0.8084  0.1595
   37MOL   H105 5217   1.075   1.487   7.143 -0.7121  0.6113 -0.5263
   37MOL   H106 5218   1.130   1.490   6.977  2.7928 -2.2051  0.9687
   37MOL   C107 5219   1.169   1.245   7.071 -0.6332 -0.1859 -0.0478
   37MOL   C108 5220   1.192   1.121   6.999 -0.2180 -0.0624  0.0645
   37MOL   O109 5221   1.111   1.022   7.051 -0.3643  0.4994 -0.3607
   37MOL   H110 5222   1.253   1.307   7.040 -1.3668  0.1571 -1.4092
   37MOL   H111 5223   1.182   1.229   7.178  1.2119 -1.3326 -0.4242
   37MOL   H112 5224   1.294   1.090   7.022 -0.2997  0.2093  0.7934
   37MOL   H113 5225   1.176   1.129   6.891  1.7307 -1.1429 -0.3374
   37MOL   C114 5226   0.986   1.014   6.995 -0.0900 -0.1037  0.1135
   37MOL   C115 5227   0.902   0.895   7.042 -0.1830 -0.7317  0.7061
   37MOL   O116 5228   0.959   0.786   6.972  0.2555  0.0102 -0.2766
   37MOL   H117 5229   0.933   1.107   7.019  1.7264  1.7358 -2.7084
   37MOL   H118 5230   0.987   1.013   6.886  0.1941 -0.3276  0.1200
   37MOL   H119 5231   0.802   0.916   7.003  0.6763  2.0358 -0.1185
   37MOL   H120 5232   0.908   0.890   7.150 -0.7186 -0.3807  0.7560
   37MOL   C121 5233   0.873   0.669   6.979 -0.3543 -0.1829 -0.0631
   37MOL   C122 5234   0.892   0.602   7.115  0.0939  1.0284  0.0167
   37MOL   O123 5235   1.035   0.583   7.143 -0.1013 -0.3079 -0.4547
   37MOL   H124 5236   0.768   0.692   6.962 -0.5960 -1.6127 -0.5713
   37MOL   H125 5237   0.914   0.608   6.898 -0.3448 -2.4517  1.6000
   37MOL   H126 5238   0.839   0.507   7.120  3.7233 -1.0207  0.8189
   37MOL   H127 5239   0.854   0.669   7.192  0.5390 -0.7129  1.7723
   37MOL   C128 5240   1.071   0.516   7.260  0.4031 -0.4600  0.0531
   37MOL   C129 5241   1.080   0.614   7.373 -0.0612  0.3177 -0.0604
   37MOL   O130 5242   1.183   0.706   7.355  0.2629 -0.9181  0.0457
   37MOL   H131 5243   0.991   0.449   7.292  1.1495 -1.4870 -0.2038
   37MOL   H132 5244   1.173   0.479   7.251  0.5800  0.0847 -0.2101
   37MOL   H133 5245   1.084   0.560   7.468  1.9820 -1.4673 -1.1174
   37MOL   H134 5246   0.981   0.659   7.378  0.3249  1.2052 -0.2985
   37MOL   C135 5247   1.173   0.826   7.435 -0.2999  0.2935  0.6962
   37MOL   C136 5248   1.275   0.933   7.388  0.6935 -0.4411 -0.5718
   37MOL   O137 5249   1.197   1.031   7.324 -0.2782  0.0498 -0.0195
   37MOL   H138 5250   1.072   0.863   7.450  1.0733  3.6504  2.1341
   37MOL   H139 5251   1.201   0.797   7.536 -0.5878  1.2091  1.0365
   37MOL   H140 5252   1.363   0.888   7.342 -1.5295 -2.8429 -2.6261
   37MOL   H141 5253   1.307   0.975   7.484 -0.3280 -1.4727  0.2390
   37MOL   H142 5254   1.174   1.000   7.238 -1.2830  0.5210  0.0774
   38MOL     C1 5255   2.907   0.725   6.930  0.2302  0.0050 -0.5795
   38MOL     C2 5256   2.805   0.674   6.828 -0.5080  0.1679  0.2929
   38MOL     O3 5257   2.832   0.539   6.808 -0.1993 -0.2660 -1.0096
   38MOL     H4 5258   2.886   0.826   6.966 -4.0799 -0.8818 -0.3509
   38MOL     H5 5259   3.008   0.705   6.894  0.5725 -1.6313  1.1890
   38MOL     H6 5260   2.817   0.729   6.734 -1.7569  0.9352  0.5602
   38MOL     H7 5261   2.706   0.697   6.867 -0.4102  0.3726  0.4218
   38MOL     H8 5262   2.896   0.665   7.021  0.6111  0.0275 -0.5176
   38MOL     C9 5263   2.764   0.502   6.692  0.1653  0.4963 -0.2259
   38MOL    C10 5264   2.616   0.480   6.693 -0.0396  0.0292 -0.4927
   38MOL    O11 5265   2.533   0.598   6.670  0.1471  0.1870 -0.2804
   38MOL    H12 5266   2.793   0.551   6.599  0.1458  2.2008  0.6493
   38MOL    H13 5267   2.806   0.404   6.671  2.6817  1.7350 -1.2739
   38MOL    H14 5268   2.579   0.443   6.788 -2.0775  2.9828 -0.0579
   38MOL    H15 5269   2.596   0.404   6.617  2.4367  1.3625 -2.5786
   38MOL    C16 5270   2.419   0.564   6.592 -0.0645  0.1291  0.2514
   38MOL    C17 5271   2.310   0.486   6.670  0.0277  0.6309 -0.0141
   38MOL    O18 5272   2.356   0.349   6.679  0.2085  0.0817  0.0223
   38MOL    H19 5273   2.374   0.660   6.568  0.3857 -0.2418 -2.1690
   38MOL    H20 5274   2.427   0.519   6.493 -0.4384  0.0052  0.2771
   38MOL    H21 5275   2.223   0.488   6.604 -1.4529 -0.0883  1.8559
   38MOL    H22 5276   2.288   0.532   6.766  0.2752 -2.2071  1.4480
   38MOL    C23 5277   2.266   0.278   6.765  0.5785  0.1348 -0.5746
   38MOL    C24 5278   2.283   0.128   6.752 -0.1347  0.5249 -0.2777
   38MOL    O25 5279   2.357   0.070   6.860  0.5681  0.3983  0.2592
   38MOL    H26 5280   2.276   0.311   6.869  1.0594 -2.2123  0.1512
   38MOL    H27 5281   2.166   0.285   6.723  0.4427 -1.4465 -0.5435
   38MOL    H28 5282   2.324   0.092   6.658  1.9888 -1.7802  1.4743
   38MOL    H29 5283   2.181   0.089   6.752  0.3488 -0.7517 -1.6940
   38MOL    C30 5284   2.365   7.704   6.880  0.4035  0.7076 -0.2437
   38MOL    C31 5285   2.475   7.636   6.803 -0.1571 -0.9195  0.2812
   38MOL    O32 5286   2.596   7.659   6.872 -0.5889 -0.2201  0.4755
   38MOL    H33 5287   2.389   7.685   6.985  0.7741 -0.9998 -0.6160
   38MOL    H34 5288   2.268   7.656   6.862  1.2469 -1.4793  0.7836
   38MOL    H35 5289   2.477   7.658   6.696  1.2270 -0.9088  0.2972
   38MOL    H36 5290   2.466   7.527   6.805 -0.3813 -0.9011  0.2767
   38MOL    C37 5291   2.700   7.728   6.798 -0.2550 -0.3674  0.3690
   38MOL    C38 5292   2.822   7.735   6.894 -1.2790 -0.0119  0.0123
   38MOL    O39 5293   2.911   7.626   6.855 -0.0269 -0.0505  0.1079
   38MOL    H40 5294   2.731   7.685   6.702 -3.1224 -0.6322 -0.4679
   38MOL    H41 5295   2.667   0.058   6.775  0.9830  0.0645  0.4443
   38MOL    H42 5296   2.803   7.732   7.002  1.7624  0.9266  0.6152
   38MOL    H43 5297   2.872   0.060   6.876 -0.3683 -0.6972 -1.1547
   38MOL    C44 5298   3.040   7.631   6.892 -0.7108  0.0106 -0.7701
   38MOL    C45 5299   3.067   7.546   7.012 -0.2535 -0.3075  0.6726
   38MOL    O46 5300   3.031   7.615   7.138 -0.2411 -0.3577  0.5456
   38MOL    H47 5301   3.082   7.571   6.812  1.1206 -0.3597  0.4389
   38MOL    H48 5302   3.092   7.726   6.905  1.8257 -1.1995 -1.7627
   38MOL    H49 5303   3.171   7.515   7.009  0.5375  2.3490 -0.4898
   38MOL    H50 5304   3.016   7.450   6.997  0.4506 -0.3881 -1.2881
   38MOL    C51 5305   3.051   7.548   7.253  0.7693 -0.1325 -0.5118
   38MOL    C52 5306   3.010   7.639   7.378  0.1607  0.3441 -0.5463
   38MOL    O53 5307   2.872   7.647   7.413  0.6887  0.1300 -0.3008
   38MOL    H54 5308   2.998   7.454   7.244  1.7024 -1.0854  3.2392
   38MOL    H55 5309   3.157   7.524   7.256  0.7327 -0.5362 -1.9818
   38MOL    H56 5310   3.077   7.725   7.371  1.5463 -0.6084  0.6237
   38MOL    H57 5311   3.059   7.585   7.459 -0.0956  0.2166 -0.4780
   38MOL    C58 5312   2.799   7.716   7.316 -0.7035 -0.1918 -0.0564
   38MOL    C59 5313   2.653   7.722   7.367 -0.1637  0.0981  0.4908
   38MOL    O60 5314   2.650   0.062   7.462  0.2416 -0.2747 -0.1430
   38MOL    H61 5315   2.824   0.051   7.307 -1.5410  0.1124  0.9955
   38MOL    H62 5316   2.796   7.668   7.218  0.4666 -0.7262  0.1671
   38MOL    H63 5317   2.619   7.624   7.402 -1.3188 -0.6697 -2.6139
   38MOL    H64 5318   2.597   7.750   7.279 -0.5694 -0.0825  0.6908
   38MOL    C65 5319   2.519   0.081   7.511  0.7918  0.4983 -0.1299
   38MOL    C66 5320   2.525   0.202   7.598 -0.4769  0.4046 -0.4270
   38MOL    O67 5321   2.614   0.191   7.712  0.3456  0.3787 -0.1823
   38MOL    H68 5322   2.449   0.093   7.429  2.2495  0.7578 -1.3567
   38MOL    H69 5323   2.468   7.768   7.558 -0.7474  1.0582 -0.7923
   38MOL    H70 5324   2.425   0.240   7.619  0.0820  1.4222  0.4933
   38MOL    H71 5325   2.574   0.275   7.533 -0.2749  0.9159  0.2909
   38MOL    C72 5326   2.607   0.311   0.015  0.4382  0.4703 -0.6729
   38MOL    C73 5327   2.720   0.301   0.125 -0.4955  0.3993  0.1280
   38MOL    O74 5328   2.679   0.201   0.221 -0.9175  0.1975  0.5309
   38MOL    H75 5329   2.616   0.398   7.722 -0.3407  2.1578  1.4405
   38MOL    H76 5330   2.505   0.320   0.054  0.7554  2.0966 -0.2086
   38MOL    H77 5331   2.717   0.398   0.176 -0.9035 -0.7204  2.2606
   38MOL    H78 5332   2.819   0.286   0.084 -0.6678 -3.0462  0.8476
   38MOL    C79 5333   2.763   0.191   0.336  0.1990  0.7004  0.0234
   38MOL    C80 5334   2.681   0.106   0.439 -0.4132 -0.6780  0.4236
   38MOL    O81 5335   2.679   7.737   0.411  0.4375 -0.1466  0.6041
   38MOL    H82 5336   2.854   0.140   0.304  0.8000  2.1601 -0.6544
   38MOL    H83 5337   2.798   0.285   0.378 -2.4564  2.1153 -0.8616
   38MOL    H84 5338   2.582   0.151   0.438  0.7907  2.0478 -0.3919
   38MOL    H85 5339   2.726   0.123   0.537  1.1598 -0.4983 -0.3190
   38MOL    C86 5340   2.642   7.657   0.520  1.0801  0.8817  0.1545
   38MOL    C87 5341   2.632   7.513   0.485  0.1022 -0.4719 -0.2739
   38MOL    O88 5342   2.755   7.439   0.486  0.1647  0.1751 -0.1848
   38MOL    H89 5343   2.709   7.675   0.604  0.0538  1.6014  0.8303
   38MOL    H90 5344   2.545   7.693   0.554 -0.8125 -0.9838 -2.9994
   38MOL    H91 5345   2.580   7.500   0.390 -0.0066  1.5657 -0.5138
   38MOL    H92 5346   2.573   7.469   0.565 -0.6907  0.5350 -0.3018
   38MOL    C93 5347   2.849   7.475   0.381  0.0864 -0.7293 -0.0234
   38MOL    C94 5348   2.982   7.416   0.418 -0.0814 -0.4959  0.1527
   38MOL    O95 5349   3.059   7.495   0.502  0.9263 -0.0579 -0.3136
   38MOL    H96 5350   2.811   7.421   0.294 -0.1816 -1.8125  0.7461
   38MOL    H97 5351   2.866   7.582   0.371 -1.8489 -0.2215  1.9224
   38MOL    H98 5352   3.041   7.397   0.327 -0.3173  0.2203 -0.1490
   38MOL    H99 5353   2.966   7.324   0.474 -0.7264  0.2931  1.2624
   38MOL   C100 5354   3.177   7.433   0.547  0.0574  0.3557  0.3694
   38MOL   C101 5355   3.245   7.521   0.649 -0.8655 -0.2271 -0.5808
   38MOL   O102 5356   3.339   7.604   0.583  0.2608  1.0651  0.3294
   38MOL   H103 5357   3.141   7.341   0.593  1.2744 -0.0951  0.4541
   38MOL   H104 5358   3.238   7.402   0.462  0.7070  1.4837  0.4133
   38MOL   H105 5359   3.301   7.451   0.712 -1.7979 -0.2859  0.1972
   38MOL   H106 5360   3.178   7.582   0.708 -0.3012  1.5731 -1.7616
   38MOL   C107 5361   3.423   7.677   0.674 -0.3233  0.2873 -0.1472
   38MOL   C108 5362   3.528   0.004   0.611  0.1726 -0.5479 -0.2238
   38MOL   O109 5363   3.467   0.126   0.583 -0.5497 -0.2542  0.4547
   38MOL   H110 5364   3.369   7.725   0.756  0.3098  2.6370 -1.0755
   38MOL   H111 5365   3.495   7.603   0.710 -0.5746  0.5181  0.8369
   38MOL   H112 5366   3.567   7.722   0.524 -1.0387 -1.2618 -0.3449
   38MOL   H113 5367   3.614   0.033   0.671  0.5743 -2.7080  0.3122
   38MOL   C114 5368   3.566   0.226   0.544  0.5900 -0.2085  0.3062
   38MOL   C115 5369   3.496   0.353   0.503 -0.5501  0.3908  0.3178
   38MOL   O116 5370   3.430   0.405   0.622 -0.1339 -0.0429  0.4228
   38MOL   H117 5371   3.646   0.253   0.612  0.9242  0.9454 -0.5252
   38MOL   H118 5372   3.628   0.180   0.467  0.9864  0.8188  0.0083
   38MOL   H119 5373   3.423   0.331   0.425 -0.0352  0.8971 -0.3199
   38MOL   H120 5374   3.556   0.431   0.455  0.4741 -0.9118 -0.5648
   38MOL   C121 5375   3.392   0.541   0.608  0.0097 -0.3137  0.6816
   38MOL   C122 5376   3.306   0.602   0.712  0.4486  0.2902 -0.4272
   38MOL   O123 5377   3.388   0.656   0.820  0.4774 -0.2098 -0.5726
   38MOL   H124 5378   3.490   0.589   0.601  0.5482 -1.4377  0.3283
   38MOL   H125 5379   3.343   0.552   0.511  0.7935  4.1240  0.7192
   38MOL   H126 5380   3.238   0.525   0.748 -0.4561  1.1376 -0.2717
   38MOL   H127 5381   3.240   0.678   0.668 -0.6916 -1.3523 -1.6465
   38MOL   C128 5382   3.311   0.738   0.913  0.2750 -0.4101  0.3164
   38MOL   C129 5383   3.388   0.831   1.004 -0.0209 -0.1541  0.4297
   38MOL   O130 5384   3.403   0.957   0.936  0.5060  0.1524  0.1273
   38MOL   H131 5385   3.218   0.778   0.873  0.6005  4.4816  3.9892
   38MOL   H132 5386   3.265   0.667   0.982 -0.2584 -2.8172 -2.4334
   38MOL   H133 5387   3.492   0.801   1.019 -0.3517 -0.7293  1.5812
   38MOL   H134 5388   3.342   0.834   1.102 -0.3109  3.1890  0.2662
   38MOL   C135 5389   3.406   1.070   1.026  0.5203 -0.0601  0.6004
   38MOL   C136 5390   3.541   1.071   1.105 -0.1329 -0.5002  0.5532
   38MOL   O137 5391   3.524   1.001   1.229 -0.2491 -0.6498 -0.2038
   38MOL   H138 5392   3.385   1.161   0.971 -0.9869 -0.4709  0.4831
   38MOL   H139 5393   3.320   1.073   1.093  0.8513 -2.0597  1.1665
   38MOL   H140 5394   3.566   1.177   1.113  0.3709 -0.4489 -1.4203
   38MOL   H141 5395   3.625   1.038   1.043  0.5967  1.2293  0.5888
   38MOL   H142 5396   3.599   1.018   1.283 -1.5927 -0.8378  1.7469
   39MOL     C1 5397   3.721   3.491   0.750  0.5627 -0.0841 -0.5607
   39MOL     C2 5398   3.839   3.586   0.794 -0.5407 -0.1139 -0.1447
   39MOL     O3 5399   3.922   3.521   0.889 -0.0031 -0.1163 -0.4323
   39MOL     H4 5400   3.664   3.459   0.838  1.1228 -0.7848 -0.4394
   39MOL     H5 5401   3.770   3.402   0.710 -0.6703 -1.3733  0.7530
   39MOL     H6 5402   3.797   3.682   0.825 -0.2741  0.2537 -0.8948
   39MOL     H7 5403   3.885   3.622   0.702 -3.1870  4.6950  0.2550
   39MOL     H8 5404   3.656   3.542   0.679  1.2583 -1.0501 -1.9169
   39MOL     C9 5405   4.041   3.594   0.916 -0.2466 -0.6179 -0.4428
   39MOL    C10 5406   4.138   3.510   0.999  0.7708 -0.2988  0.4277
   39MOL    O11 5407   4.207   3.414   0.927 -0.1630  0.5313 -0.1069
   39MOL    H12 5408   4.101   3.606   0.826  1.9900 -0.8956  0.9817
   39MOL    H13 5409   4.005   3.684   0.966 -1.7459 -1.6866  0.4522
   39MOL    H14 5410   4.093   3.457   1.083  1.2057  1.0410  1.5305
   39MOL    H15 5411   4.212   3.581   1.037 -0.2429  0.9841  0.0224
   39MOL    C16 5412   4.303   3.348   1.003  0.1783 -0.1020  0.4962
   39MOL    C17 5413   4.361   3.218   0.941 -0.6244  0.2517 -0.7864
   39MOL    O18 5414   4.484   3.240   0.863  0.2707 -0.1854  0.6431
   39MOL    H19 5415   4.387   3.415   1.023  0.1377  0.1209 -0.0790
   39MOL    H20 5416   4.258   3.327   1.100  2.5410 -2.3055  1.1770
   39MOL    H21 5417   4.287   3.177   0.873  0.0412 -2.9820  0.3403
   39MOL    H22 5418   4.380   3.141   1.016  1.2448  0.2213 -1.2503
   39MOL    C23 5419   4.521   3.118   0.802 -0.0837 -0.5723  0.1129
   39MOL    C24 5420   4.638   3.135   0.703  0.7068  0.2118  0.4347
   39MOL    O25 5421   4.757   3.156   0.777  0.3018  0.7765  0.3933
   39MOL    H26 5422   4.554   3.049   0.880  1.9400 -1.4178 -1.4395
   39MOL    H27 5423   4.434   3.077   0.751 -1.9809  2.9150  0.3565
   39MOL    H28 5424   4.619   3.213   0.630  0.4624 -1.2634 -1.0976
   39MOL    H29 5425   4.651   3.041   0.650  2.3286  0.4435  0.3953
   39MOL    C30 5426   4.876   3.190   0.693 -0.1604 -0.0768  0.6988
   39MOL    C31 5427   5.008   3.213   0.772 -0.6122  0.1857  0.5995
   39MOL    O32 5428   5.073   3.084   0.796 -0.4277  0.0653 -0.0416
   39MOL    H33 5429   4.898   3.113   0.619  0.6549 -0.0713  0.9305
   39MOL    H34 5430   4.845   3.277   0.635 -0.7240 -0.6191  0.1796
   39MOL    H35 5431   4.991   3.279   0.858  1.7586  1.0910  0.3927
   39MOL    H36 5432   5.079   3.265   0.709 -2.7352  1.3633 -0.8854
   39MOL    C37 5433   5.189   3.086   0.880  0.0610 -0.1679 -0.2239
   39MOL    C38 5434   5.168   3.144   1.024  0.0957 -0.5442 -0.1739
   39MOL    O39 5435   5.294   3.163   1.085 -0.0754  0.4744 -0.1386
   39MOL    H40 5436   5.221   2.982   0.885  1.7142  0.2937 -0.9202
   39MOL    H41 5437   5.265   3.143   0.827  1.1725 -1.2776  0.1665
   39MOL    H42 5438   5.122   3.065   1.083 -0.2195  0.0282  0.3427
   39MOL    H43 5439   5.108   3.235   1.028 -2.5470 -2.0747 -2.9083
   39MOL    C44 5440   5.387   3.265   1.052 -0.6338  0.3818 -0.7312
   39MOL    C45 5441   5.312   3.401   1.057  0.4796 -0.6490 -0.1784
   39MOL    O46 5442   5.247   3.430   0.931  0.4669  0.5708 -0.1473
   39MOL    H47 5443   5.478   3.275   1.112 -0.6533  0.4469 -0.7122
   39MOL    H48 5444   5.417   3.251   0.948  2.7802  0.3095  0.1784
   39MOL    H49 5445   5.393   3.473   1.067  0.2925 -0.6629  1.5470
   39MOL    H50 5446   5.240   3.418   1.138  0.6725  1.3860 -0.4003
   39MOL    C51 5447   5.244   3.569   0.900 -0.3205  0.7780 -0.1180
   39MOL    C52 5448   5.126   3.590   0.812 -0.1467 -0.3750 -0.4156
   39MOL    O53 5449   5.004   3.576   0.876 -0.2141  0.0977  0.1872
   39MOL    H54 5450   5.233   3.625   0.993  0.7288 -0.8347  1.0025
   39MOL    H55 5451   5.338   3.600   0.855  0.1737 -0.4042  0.0756
   39MOL    H56 5452   5.142   3.519   0.731  1.8685  1.1423 -1.4002
   39MOL    H57 5453   5.144   3.688   0.768 -1.5830  0.4286  0.7444
   39MOL    C58 5454   4.894   3.584   0.783  1.0215  0.2428  0.6445
   39MOL    C59 5455   4.754   3.572   0.854 -0.3121  0.1268  0.5008
   39MOL    O60 5456   4.663   3.638   0.773 -0.4354 -0.1698 -0.2806
   39MOL    H61 5457   4.890   3.682   0.736 -3.0703 -0.3686 -0.4109
   39MOL    H62 5458   4.904   3.512   0.703 -0.4166 -0.1239  0.7870
   39MOL    H63 5459   4.766   3.623   0.950  0.4125  2.6761 -0.8868
   39MOL    H64 5460   4.720   3.468   0.861  3.4033 -0.9529  4.0531
   39MOL    C65 5461   4.530   3.628   0.825  0.2470  0.2215  0.0523
   39MOL    C66 5462   4.421   3.671   0.726  0.7649 -0.2994  0.3185
   39MOL    O67 5463   4.415   3.809   0.694 -0.2343 -0.2272 -0.0553
   39MOL    H68 5464   4.514   3.520   0.833 -1.2972  0.3066 -1.4913
   39MOL    H69 5465   4.532   3.690   0.914  0.1394  1.7418 -0.9921
   39MOL    H70 5466   4.326   3.638   0.768  0.2903 -0.6520 -1.0086
   39MOL    H71 5467   4.429   3.616   0.632 -0.0578 -0.3700  0.2875
   39MOL    C72 5468   4.538   3.877   0.652  0.2520 -0.1479  0.0634
   39MOL    C73 5469   4.510   4.032   0.628 -0.8852  0.6562  0.7987
   39MOL    O74 5470   4.444   4.061   0.511  0.1740 -0.3101  0.1005
   39MOL    H75 5471   4.618   3.878   0.726 -0.7248 -0.9039  1.1379
   39MOL    H76 5472   4.563   3.827   0.558  0.0919  1.5305 -0.8948
   39MOL    H77 5473   4.604   4.087   0.616  0.3134 -1.4493  0.1256
   39MOL    H78 5474   4.465   4.079   0.715 -2.0926 -0.4537  0.7948
   39MOL    C79 5475   4.436   4.204   0.486 -0.3787 -0.4084 -0.3585
   39MOL    C80 5476   4.326   4.217   0.383 -0.0979 -0.5796 -0.1027
   39MOL    O81 5477   4.323   4.353   0.359 -0.1412  0.0848  0.6186
   39MOL    H82 5478   4.419   4.268   0.573 -1.5496 -1.3777  0.1274
   39MOL    H83 5479   4.526   4.247   0.441 -0.8803 -0.1593 -1.1430
   39MOL    H84 5480   4.230   4.188   0.425  0.2489  0.9469  1.8449
   39MOL    H85 5481   4.364   4.153   0.304  0.7976  0.9107 -0.9078
   39MOL    C86 5482   4.238   4.383   0.242  0.3316  0.1232 -0.5526
   39MOL    C87 5483   4.256   4.528   0.203 -0.3656 -0.9964 -0.7178
   39MOL    O88 5484   4.173   4.622   0.270  0.1722  0.8453 -0.0330
   39MOL    H89 5485   4.267   4.324   0.155  0.4642 -0.2376 -0.2671
   39MOL    H90 5486   4.131   4.366   0.255  0.8481 -2.1621  1.0688
   39MOL    H91 5487   4.229   4.530   0.097  0.5905 -2.2727 -0.9883
   39MOL    H92 5488   4.357   4.569   0.206  0.3701 -2.6840 -1.7812
   39MOL    C93 5489   4.206   4.640   0.406  0.0093  0.7250 -0.3610
   39MOL    C94 5490   4.109   4.741   0.475 -0.2570 -0.4629  0.2218
   39MOL    O95 5491   4.140   4.861   0.405 -0.2585 -0.6278 -0.5442
   39MOL    H96 5492   4.214   4.547   0.462 -0.0515  0.5415 -0.6535
   39MOL    H97 5493   4.308   4.679   0.405 -0.3890  1.8199  1.0306
   39MOL    H98 5494   4.125   4.759   0.581 -3.9260  0.9455  0.6139
   39MOL    H99 5495   4.002   4.720   0.470 -1.0705  3.4860 -1.0481
   39MOL   C100 5496   4.053   4.963   0.443  0.1272 -0.1049 -0.2799
   39MOL   C101 5497   4.125   5.091   0.419  0.2422  0.0214 -0.1703
   39MOL   O102 5498   4.208   5.128   0.533  0.2149  0.0703  0.3700
   39MOL   H103 5499   3.969   4.956   0.375 -1.2892  0.4669  1.3571
   39MOL   H104 5500   4.008   4.963   0.543 -0.6810  0.2363 -0.6404
   39MOL   H105 5501   4.039   5.158   0.409  0.3855  0.5571  1.9892
   39MOL   H106 5502   4.187   5.083   0.329  0.7289 -0.5211  0.2106
   39MOL   C107 5503   4.305   5.034   0.573 -0.3329  0.1260 -0.5683
   39MOL   C108 5504   4.391   5.115   0.683 -0.2037  0.2542  0.0657
   39MOL   O109 5505   4.323   5.122   0.810 -0.1737  0.3879  0.4272
   39MOL   H110 5506   4.283   4.935   0.612 -0.8305  0.7560  0.8270
   39MOL   H111 5507   4.367   5.006   0.489 -0.9941 -2.6660 -0.1625
   39MOL   H112 5508   4.424   5.214   0.652 -0.1440  0.1673 -0.1507
   39MOL   H113 5509   4.470   5.049   0.717  0.2643 -1.0994 -3.4249
   39MOL   C114 5510   4.234   5.236   0.827 -0.4255  0.0991 -0.3609
   39MOL   C115 5511   4.222   5.249   0.975  0.4728  0.3258  0.3744
   39MOL   O116 5512   4.152   5.145   1.041  0.4054  0.1150  0.3711
   39MOL   H117 5513   4.270   5.328   0.783 -1.2428  1.2249  1.2627
   39MOL   H118 5514   4.139   5.217   0.776 -0.4050  0.0681 -0.3875
   39MOL   H119 5515   4.176   5.344   1.001 -0.6479 -0.6437  2.0617
   39MOL   H120 5516   4.320   5.240   1.021  0.2261 -2.7326  0.4328
   39MOL   C121 5517   4.156   5.150   1.183 -0.4466 -0.0358  0.6260
   39MOL   C122 5518   4.065   5.048   1.245 -0.2252 -0.3501 -0.2961
   39MOL   O123 5519   4.075   5.057   1.388 -0.4135 -0.6206 -0.1211
   39MOL   H124 5520   4.259   5.121   1.204  0.6447  1.9041 -1.8585
   39MOL   H125 5521   4.147   5.254   1.214  0.2737  0.3409 -0.4348
   39MOL   H126 5522   4.081   4.948   1.204  1.0028 -0.7953  1.2244
   39MOL   H127 5523   3.963   5.072   1.215  0.1963  0.8549 -0.8056
   39MOL   C128 5524   3.975   4.983   1.460 -0.4000 -0.0906 -0.1842
   39MOL   C129 5525   3.851   5.068   1.500 -0.2917  0.5296  0.0106
   39MOL   O130 5526   3.876   5.159   1.598  0.0751 -0.0950 -0.2263
   39MOL   H131 5527   3.939   4.897   1.403 -2.4205  1.1939 -0.9177
   39MOL   H132 5528   4.022   4.955   1.554  0.0332  1.4135  0.0489
   39MOL   H133 5529   3.778   4.997   1.540 -1.7608  1.0951 -1.5972
   39MOL   H134 5530   3.810   5.111   1.408  0.8922  0.0368 -0.7585
   39MOL   C135 5531   3.800   5.275   1.596 -0.1691  0.4500  0.8235
   39MOL   C136 5532   3.851   5.395   1.656  0.1063  0.4129  0.0481
   39MOL   O137 5533   3.744   5.488   1.665  0.0006  0.0060  0.2965
   39MOL   H138 5534   3.780   5.295   1.491  0.5283 -2.8231  0.0036
   39MOL   H139 5535   3.699   5.255   1.633 -0.3658 -0.8864 -0.3779
   39MOL   H140 5536   3.935   5.429   1.596  0.7431  1.3122  1.4318
   39MOL   H141 5537   3.883   5.378   1.758  0.0693 -0.2954 -0.0529
   39MOL   H142 5538   3.704   5.506   1.581 -0.3020 -1.4323  0.1215
   40MOL     C1 5539   3.036   2.294   6.470  0.5590  0.1713  0.6830
   40MOL     C2 5540   3.025   2.401   6.353 -0.0506  0.6814 -0.2483
   40MOL     O3 5541   2.941   2.339   6.254  0.2937 -0.0266 -0.2949
   40MOL     H4 5542   2.939   2.262   6.506 -0.0765  0.2603 -0.9187
   40MOL     H5 5543   3.094   2.340   6.550  1.9375 -0.1469 -0.1090
   40MOL     H6 5544   3.123   2.423   6.313 -0.2194 -2.6022 -2.6808
   40MOL     H7 5545   2.992   2.497   6.392  1.9426  0.2655  2.6039
   40MOL     H8 5546   3.094   2.206   6.443 -1.4400 -1.0483  0.3042
   40MOL     C9 5547   2.909   2.426   6.149  0.7113  0.2625  0.1969
   40MOL    C10 5548   2.806   2.363   6.045 -0.5195 -0.4680 -0.1474
   40MOL    O11 5549   2.874   2.283   5.952 -0.4342 -0.3100  0.6731
   40MOL    H12 5550   2.857   2.515   6.184  0.0993 -0.4390  1.0935
   40MOL    H13 5551   2.998   2.459   6.096  1.4563 -0.6112  0.8902
   40MOL    H14 5552   2.748   2.441   5.998  0.0364 -0.5071 -0.9006
   40MOL    H15 5553   2.735   2.301   6.100 -1.0469  0.9054  0.7396
   40MOL    C16 5554   2.792   2.210   5.859 -0.4630 -0.3115  0.0537
   40MOL    C17 5555   2.874   2.152   5.747  0.2864 -0.0137  1.0910
   40MOL    O18 5556   2.889   2.238   5.642 -0.3588 -0.1685 -0.1351
   40MOL    H19 5557   2.747   2.128   5.916  1.4065  1.6781  4.6819
   40MOL    H20 5558   2.724   2.281   5.813 -0.2770  0.0066  0.2656
   40MOL    H21 5559   2.826   2.060   5.714 -0.8985  1.8118 -2.4278
   40MOL    H22 5560   2.975   2.120   5.771  0.9568  0.7663 -0.6582
   40MOL    C23 5561   2.959   2.198   5.527 -0.5029 -0.2488  0.1016
   40MOL    C24 5562   2.893   2.070   5.459  1.0073 -0.4515 -0.3974
   40MOL    O25 5563   2.873   2.076   5.317 -0.4613 -0.5187  0.2526
   40MOL    H26 5564   2.957   2.275   5.450 -1.4804  0.7502  1.1178
   40MOL    H27 5565   3.065   2.185   5.546 -0.7317 -0.6393  1.1288
   40MOL    H28 5566   2.793   2.046   5.494 -0.4160  1.5712 -2.8820
   40MOL    H29 5567   2.967   1.990   5.469  2.8948  1.4911  1.6296
   40MOL    C30 5568   2.838   1.950   5.257 -0.4997  0.3442 -0.0127
   40MOL    C31 5569   2.804   1.971   5.113  0.3898  0.1190 -0.7278
   40MOL    O32 5570   2.666   2.001   5.107 -0.1626  0.7195 -0.2491
   40MOL    H33 5571   2.916   1.874   5.252  0.7721  1.5811  0.6798
   40MOL    H34 5572   2.752   1.906   5.307 -1.5723  0.7554 -1.4698
   40MOL    H35 5573   2.827   1.880   5.057  2.4584 -0.0523  0.3515
   40MOL    H36 5574   2.862   2.050   5.066  3.8211 -0.8081  1.7197
   40MOL    C37 5575   2.632   2.029   4.975 -0.5829 -0.4648  0.2090
   40MOL    C38 5576   2.483   2.058   4.956  0.2205 -0.1097 -0.7278
   40MOL    O39 5577   2.409   1.940   4.987  0.0182 -0.0421  0.0935
   40MOL    H40 5578   2.695   2.110   4.939  0.7934 -2.2106 -1.4674
   40MOL    H41 5579   2.665   1.947   4.910 -0.4980 -0.4938  0.2883
   40MOL    H42 5580   2.458   2.086   4.854 -0.4189 -0.0067 -0.5453
   40MOL    H43 5581   2.444   2.144   5.011 -0.7562 -0.0664 -1.4821
   40MOL    C44 5582   2.274   1.970   5.013  0.6001 -0.3773  0.0245
   40MOL    C45 5583   2.183   1.975   4.882  0.0951  0.2632 -0.3744
   40MOL    O46 5584   2.159   2.107   4.834  0.3129  0.4269 -0.8788
   40MOL    H47 5585   2.228   1.905   5.087  1.6172 -0.5336  0.5296
   40MOL    H48 5586   2.261   2.066   5.064  0.5842 -0.4779  0.2101
   40MOL    H49 5587   2.085   1.927   4.894  0.4735 -0.2148  0.9412
   40MOL    H50 5588   2.221   1.922   4.795  1.8909  1.7217 -0.4958
   40MOL    C51 5589   2.049   2.122   4.752  0.3588 -0.0039  0.5920
   40MOL    C52 5590   2.100   2.074   4.618  0.4423  0.2060  0.3376
   40MOL    O53 5591   2.062   1.943   4.593 -0.5523  0.2489  0.2407
   40MOL    H54 5592   1.960   2.073   4.791  0.7558  0.4395  2.1066
   40MOL    H55 5593   2.027   2.229   4.746  1.3088  0.3036  2.1367
   40MOL    H56 5594   2.206   2.094   4.602  0.5407 -0.2967  0.3427
   40MOL    H57 5595   2.045   2.135   4.547  2.1274  0.2558 -0.9685
   40MOL    C58 5596   2.072   1.905   4.453  0.2835  1.1370  0.3129
   40MOL    C59 5597   2.071   1.757   4.426 -0.4560  0.0930  0.6616
   40MOL    O60 5598   2.192   1.692   4.470  0.1911 -0.6344 -0.3945
   40MOL    H61 5599   1.996   1.942   4.385 -0.1256 -1.8626 -0.9184
   40MOL    H62 5600   2.168   1.949   4.423  0.9328 -1.6605 -1.9410
   40MOL    H63 5601   2.069   1.740   4.318 -1.9851  1.4464  0.4676
   40MOL    H64 5602   1.987   1.695   4.456  0.3301 -1.0943  0.4728
   40MOL    C65 5603   2.174   1.546   4.467 -0.2549 -0.0834  0.3480
   40MOL    C66 5604   2.302   1.492   4.527  0.4088  0.2708 -0.4255
   40MOL    O67 5605   2.404   1.493   4.429 -0.5421  0.0414  0.8932
   40MOL    H68 5606   2.089   1.520   4.530 -0.6858 -0.1414 -0.2548
   40MOL    H69 5607   2.154   1.516   4.365  0.3345  0.3370  0.1074
   40MOL    H70 5608   2.281   1.401   4.582  1.2818  0.1133 -0.3466
   40MOL    H71 5609   2.322   1.555   4.613 -0.4321  1.4284 -1.0562
   40MOL    C72 5610   2.507   1.408   4.455 -0.4769  0.4260 -0.3992
   40MOL    C73 5611   2.482   1.258   4.440 -0.2944 -0.1284 -0.1549
   40MOL    O74 5612   2.407   1.193   4.542 -0.0439  0.3578 -0.4721
   40MOL    H75 5613   2.584   1.443   4.386 -1.9105 -0.1737 -2.3459
   40MOL    H76 5614   2.534   1.425   4.559 -0.2946 -0.7292 -0.2611
   40MOL    H77 5615   2.581   1.216   4.423  0.3557  1.4744 -0.3239
   40MOL    H78 5616   2.430   1.231   4.348 -0.4727  1.6934 -0.5964
   40MOL    C79 5617   2.480   1.122   4.636 -0.2676  0.2272 -1.5094
   40MOL    C80 5618   2.486   0.974   4.584 -0.5284 -0.0539  0.6783
   40MOL    O81 5619   2.598   0.958   4.504  0.0233 -0.1490  0.3595
   40MOL    H82 5620   2.573   1.175   4.656 -1.4819  1.0624  2.5715
   40MOL    H83 5621   2.424   1.120   4.730  1.1369  0.1328 -0.6597
   40MOL    H84 5622   2.393   0.956   4.531 -0.6904 -0.1170  0.9782
   40MOL    H85 5623   2.507   0.906   4.667 -0.2080 -1.2306 -0.3546
   40MOL    C86 5624   2.610   0.820   4.465 -0.5004 -0.6984 -0.5241
   40MOL    C87 5625   2.532   0.780   4.341  0.4668  0.3427 -0.3471
   40MOL    O88 5626   2.406   0.730   4.383 -0.0054 -0.6932  0.0111
   40MOL    H89 5627   2.714   0.797   4.438 -0.5243 -1.0628 -0.2995
   40MOL    H90 5628   2.599   0.753   4.549 -1.4079 -1.0936 -0.9621
   40MOL    H91 5629   2.577   0.696   4.288  0.6940  1.6812 -2.3148
   40MOL    H92 5630   2.535   0.862   4.269  0.3102  0.6964  0.0503
   40MOL    C93 5631   2.303   0.729   4.297  0.2215 -0.0577 -0.3986
   40MOL    C94 5632   2.250   0.862   4.251 -0.1804  0.4882  0.8497
   40MOL    O95 5633   2.340   0.908   4.153  0.4591 -0.5315 -0.0682
   40MOL    H96 5634   2.339   0.670   4.212  1.5149 -1.8429  1.3334
   40MOL    H97 5635   2.222   0.666   4.333 -0.0268  0.6962  0.3904
   40MOL    H98 5636   2.263   0.941   4.325 -1.3766 -0.1249  1.7331
   40MOL    H99 5637   2.149   0.863   4.210  0.0809  0.2815  0.1906
   40MOL   C100 5638   2.316   1.037   4.112 -0.0912 -0.0329  0.0059
   40MOL   C101 5639   2.434   1.092   4.031  0.3053 -0.3581 -0.6611
   40MOL   O102 5640   2.446   1.030   3.902  0.0405 -0.0675  0.1481
   40MOL   H103 5641   2.218   1.032   4.064  0.1367 -1.1421 -0.3551
   40MOL   H104 5642   2.316   1.113   4.191  3.7294  0.8361 -0.7258
   40MOL   H105 5643   2.526   1.094   4.090  0.7194 -0.0203 -1.3102
   40MOL   H106 5644   2.406   1.193   4.001  0.4814  0.7487  2.7238
   40MOL   C107 5645   2.548   1.083   3.819  0.5942  0.2504 -0.7853
   40MOL   C108 5646   2.501   1.092   3.673 -0.4922  0.2799 -0.1177
   40MOL   O109 5647   2.606   1.156   3.599  0.0700 -0.1847  0.0441
   40MOL   H110 5648   2.577   1.182   3.852 -0.8600  0.3573  0.2102
   40MOL   H111 5649   2.628   1.016   3.850  0.0455 -0.0817 -0.0682
   40MOL   H112 5650   2.405   1.142   3.665 -0.6164 -0.1004 -1.0417
   40MOL   H113 5651   2.487   0.993   3.629 -2.0681  0.5129 -0.1540
   40MOL   C114 5652   2.575   1.182   3.468  0.0527 -0.6155  0.6911
   40MOL   C115 5653   2.603   1.059   3.384  1.0354 -0.2305 -0.2391
   40MOL   O116 5654   2.746   1.026   3.390 -0.5155 -0.1222 -0.4936
   40MOL   H117 5655   2.479   1.232   3.459  0.6388  0.3673 -0.2798
   40MOL   H118 5656   2.649   1.256   3.438  1.5452 -1.7604  1.4717
   40MOL   H119 5657   2.574   1.078   3.281  2.2612 -0.7783 -0.6894
   40MOL   H120 5658   2.539   0.972   3.404  1.1570 -0.3283 -0.2748
   40MOL   C121 5659   2.778   0.914   3.304  0.2519 -0.6354  0.2740
   40MOL   C122 5660   2.884   0.824   3.365  0.3321 -0.1770 -0.4320
   40MOL   O123 5661   2.888   0.706   3.305  0.2393  0.2639 -0.1542
   40MOL   H124 5662   2.688   0.857   3.281 -1.2005  1.2744  1.0589
   40MOL   H125 5663   2.806   0.953   3.206 -1.7032  1.5579  0.5430
   40MOL   H126 5664   2.869   0.802   3.471 -2.2296  1.4523 -0.4210
   40MOL   H127 5665   2.977   0.881   3.367  0.5258 -0.4953 -0.3845
   40MOL   C128 5666   2.906   0.693   3.167 -0.2223  0.1939 -0.2702
   40MOL   C129 5667   2.945   0.546   3.144 -0.5661  0.5162  0.2037
   40MOL   O130 5668   2.978   0.510   3.008 -0.0173  0.3326  0.3824
   40MOL   H131 5669   2.812   0.718   3.118  0.6360  0.9340 -1.5670
   40MOL   H132 5670   2.990   0.756   3.136 -0.3214 -0.0374 -1.0181
   40MOL   H133 5671   2.872   0.473   3.179 -0.5313  0.3604 -0.0459
   40MOL   H134 5672   3.028   0.528   3.212  1.3812  2.1857 -1.6594
   40MOL   C135 5673   2.961   0.368   2.984 -0.1269 -0.7576 -0.2490
   40MOL   C136 5674   3.091   0.304   3.054  0.3627 -0.3304  0.0631
   40MOL   O137 5675   3.106   0.169   3.028  1.5244 -0.0386 -0.1554
   40MOL   H138 5676   2.863   0.325   3.007 -0.5205 -0.5830 -1.5709
   40MOL   H139 5677   2.958   0.353   2.876 -2.0599  0.7946 -0.4384
   40MOL   H140 5678   3.092   0.321   3.162 -3.6465 -2.3064  0.5302
   40MOL   H141 5679   3.185   0.347   3.020 -0.6474  0.8361 -1.2622
   40MOL   H142 5680   3.099   0.156   2.934 -0.5170  0.5525 -0.1063
   41MOL     C1 5681   4.728   3.508   7.359  0.7699 -0.3844  0.0425
   41MOL     C2 5682   4.853   3.576   7.304 -0.1875  0.0184 -0.0735
   41MOL     O3 5683   4.849   3.718   7.266 -0.0361  0.5656 -0.3567
   41MOL     H4 5684   4.712   3.548   7.459  1.4930  2.3640 -0.9139
   41MOL     H5 5685   4.743   3.401   7.377 -1.1213 -0.2269  2.9799
   41MOL     H6 5686   4.874   3.522   7.212 -1.9481 -2.1775  0.7603
   41MOL     H7 5687   4.941   3.559   7.365  0.5562 -1.2361 -1.4579
   41MOL     H8 5688   4.639   3.521   7.298  1.6112  0.2112 -1.0701
   41MOL     C9 5689   4.850   3.822   7.367  0.0990 -0.4556  0.4271
   41MOL    C10 5690   4.883   3.955   7.294  0.2677  0.6851  0.2181
   41MOL    O11 5691   4.915   4.062   7.376  0.1589 -0.9386  0.4353
   41MOL    H12 5692   4.757   3.838   7.423 -0.4726 -1.4010 -0.2333
   41MOL    H13 5693   4.932   3.811   7.438  0.3383  1.4117  0.4555
   41MOL    H14 5694   4.797   3.985   7.234  0.2735  1.7709  0.7446
   41MOL    H15 5695   4.960   3.935   7.219  0.7453 -0.8823  1.0860
   41MOL    C16 5696   4.954   4.176   7.298  0.1882 -0.1125  0.6310
   41MOL    C17 5697   5.019   4.290   7.383  0.2398  0.2302  0.3088
   41MOL    O18 5698   5.153   4.252   7.403 -0.4810 -0.5960  0.0071
   41MOL    H19 5699   5.014   4.157   7.209 -1.7665 -1.3217 -0.4509
   41MOL    H20 5700   4.873   4.228   7.247  0.5666 -0.6814 -0.5733
   41MOL    H21 5701   4.959   4.301   7.474  0.7836  0.1502  0.6795
   41MOL    H22 5702   5.015   4.381   7.324 -0.8407 -0.5343 -0.8380
   41MOL    C23 5703   5.246   4.360   7.437  0.1441  0.2203  0.0700
   41MOL    C24 5704   5.365   4.306   7.520  0.0786 -0.1582  0.1835
   41MOL    O25 5705   5.322   4.285   7.654  0.1762  0.0460  0.1089
   41MOL    H26 5706   5.284   4.408   7.347  1.3795  1.3624  1.1806
   41MOL    H27 5707   5.186   4.438   7.483 -3.4334 -2.7245  0.6248
   41MOL    H28 5708   5.456   4.362   7.501  0.2824 -0.9616 -1.3035
   41MOL    H29 5709   5.391   4.212   7.472 -1.6473 -0.7891  0.4429
   41MOL    C30 5710   5.417   4.212   7.737  0.0305 -0.8606 -0.1197
   41MOL    C31 5711   5.539   4.294   0.001 -0.1032  0.3559  0.1183
   41MOL    O32 5712   5.638   4.296   7.666 -0.2164 -0.3131  0.3022
   41MOL    H33 5713   5.362   4.196   0.059 -2.0165  0.6721 -1.0081
   41MOL    H34 5714   5.460   4.118   7.704  3.8000 -0.4011  3.1282
   41MOL    H35 5715   5.577   4.235   0.084  0.7077  1.2365  0.3813
   41MOL    H36 5716   5.498   4.385   0.045 -1.0573  1.6095 -3.1484
   41MOL    C37 5717   5.752   4.375   7.697 -0.2354 -0.1591 -0.3165
   41MOL    C38 5718   5.853   4.381   7.581 -0.5507 -0.6086  0.0505
   41MOL    O39 5719   5.826   4.499   7.508  0.0214 -0.2136 -0.3130
   41MOL    H40 5720   5.719   4.478   7.710  0.4058  0.2440 -1.7345
   41MOL    H41 5721   5.791   4.340   0.021  3.1574  1.4370 -1.0372
   41MOL    H42 5722   5.854   4.294   7.515  1.1866  0.5911 -1.5396
   41MOL    H43 5723   5.947   4.392   7.635 -0.8212  0.5411  0.3112
   41MOL    C44 5724   5.919   4.506   7.403 -0.1671  0.0496 -0.5624
   41MOL    C45 5725   5.903   4.636   7.325 -0.3812  0.3684 -0.4472
   41MOL    O46 5726   5.807   4.635   7.217  1.0895 -0.3425  0.1433
   41MOL    H47 5727   6.022   4.498   7.439 -0.3571 -0.3811 -0.1036
   41MOL    H48 5728   5.905   4.427   7.329 -0.7797 -0.3110 -0.0698
   41MOL    H49 5729   5.998   4.647   7.272 -0.5551  4.8929 -0.0354
   41MOL    H50 5730   5.899   4.727   7.385  1.0785 -0.2657  0.6348
   41MOL    C51 5731   5.672   4.637   7.270 -0.2199  0.3403  0.6247
   41MOL    C52 5732   5.554   4.631   7.158 -0.4594 -0.2879  0.0522
   41MOL    O53 5733   5.527   4.499   7.115  0.5613  0.0022 -0.5335
   41MOL    H54 5734   5.651   4.556   7.340  0.8978 -0.0749  0.4806
   41MOL    H55 5735   5.655   4.726   7.331  1.1652 -0.0420  1.5770
   41MOL    H56 5736   5.575   4.697   7.074 -2.1044 -1.2471 -1.1459
   41MOL    H57 5737   5.456   4.651   7.200 -0.5397  1.4140 -0.9050
   41MOL    C58 5738   5.622   4.451   7.020  0.4118  0.3147  0.0055
   41MOL    C59 5739   5.594   4.306   6.973 -0.3675  0.3644 -0.3492
   41MOL    O60 5740   5.586   4.217   7.082 -0.2308 -0.1044  0.3100
   41MOL    H61 5741   5.628   4.511   6.929  0.7129  2.5570  1.4577
   41MOL    H62 5742   5.718   4.443   7.073 -0.8617 -0.8395  2.2166
   41MOL    H63 5743   5.672   4.267   6.908 -1.5780 -0.0235 -1.5879
   41MOL    H64 5744   5.500   4.321   6.921  0.1536 -0.0590 -1.4193
   41MOL    C65 5745   5.710   4.169   7.140  0.2320 -0.2962  0.6718
   41MOL    C66 5746   5.670   4.083   7.260  0.1897  0.4754  0.1162
   41MOL    O67 5747   5.780   4.082   7.349 -0.1300 -0.4830  0.0023
   41MOL    H68 5748   5.763   4.118   7.060  0.2962  2.2629 -0.9913
   41MOL    H69 5749   5.774   4.252   7.170  3.0135 -1.4853 -1.6991
   41MOL    H70 5750   5.646   3.979   7.240  2.3513  0.3374 -1.9483
   41MOL    H71 5751   5.585   4.132   7.308 -0.1482  2.5457 -2.4839
   41MOL    C72 5752   5.747   4.004   7.467 -0.4305  0.3945 -0.1154
   41MOL    C73 5753   5.871   3.984   7.550  0.3453 -0.2215 -0.0955
   41MOL    O74 5754   5.893   3.852   7.601  0.6275  0.2034 -0.0493
   41MOL    H75 5755   5.678   4.063   7.528  0.9636  3.3280 -1.2467
   41MOL    H76 5756   5.709   3.906   7.440 -1.3615  1.0495 -1.2564
   41MOL    H77 5757   5.888   4.059   7.627 -0.9484  0.4995 -0.4997
   41MOL    H78 5758   5.949   3.989   7.474 -3.5050  2.3852 -4.1045
   41MOL    C79 5759   5.809   3.826   7.715  0.7745 -0.0522  1.1159
   41MOL    C80 5760   5.839   3.692   0.005 -0.7019  0.4052 -0.6860
   41MOL    O81 5761   5.793   3.588   7.694  0.2494  0.0523 -0.0168
   41MOL    H82 5762   5.835   3.898   0.022 -2.6798  1.0911  1.2591
   41MOL    H83 5763   5.703   3.828   7.692  0.6529 -1.8555  1.4104
   41MOL    H84 5764   5.802   3.680   0.107  2.2219 -1.6318  0.1963
   41MOL    H85 5765   5.946   3.676   0.017 -1.0146 -1.3980 -0.2868
   41MOL    C86 5766   5.847   3.461   7.729  0.4869 -0.7154  0.2271
   41MOL    C87 5767   5.800   3.356   7.628  0.6163  0.0898  0.1281
   41MOL    O88 5768   5.683   3.282   7.669 -0.1263 -0.0579  0.2080
   41MOL    H89 5769   5.956   3.465   7.720  0.3221  1.1001 -1.3912
   41MOL    H90 5770   5.824   3.435   0.061  0.6127  0.4442  0.5628
   41MOL    H91 5771   5.872   3.276   7.614  0.6968  0.1785  0.0325
   41MOL    H92 5772   5.789   3.416   7.537  1.9270  1.3105  0.7616
   41MOL    C93 5773   5.568   3.367   7.678  0.3831  0.1939 -0.3028
   41MOL    C94 5774   5.450   3.267   7.705 -0.3536 -0.4175 -0.0176
   41MOL    O95 5775   5.465   3.236   0.071  0.3742 -0.3430  0.2366
   41MOL    H96 5776   5.566   3.432   7.766 -2.3601  0.5602 -0.5695
   41MOL    H97 5777   5.550   3.428   7.590  0.8401  0.0688 -0.4831
   41MOL    H98 5778   5.455   3.187   7.631  0.0127 -0.8758  0.5044
   41MOL    H99 5779   5.354   3.317   7.691  0.6475  1.4464 -0.3230
   41MOL   C100 5780   5.368   3.135   0.111 -0.6930  0.4531  0.9059
   41MOL   C101 5781   5.233   3.209   0.150 -0.5596 -0.4552 -0.1154
   41MOL   O102 5782   5.215   3.244   0.292 -0.4463 -0.3101 -0.3087
   41MOL   H103 5783   5.339   3.079   0.022 -2.5659  3.3922 -0.4055
   41MOL   H104 5784   5.414   3.080   0.193 -1.0625  0.4065  1.0835
   41MOL   H105 5785   5.154   3.135   0.150 -0.5403 -0.5096 -2.3206
   41MOL   H106 5786   5.208   3.285   0.076 -0.8633 -1.1429 -0.7271
   41MOL   C107 5787   5.258   3.376   0.326 -0.1387  0.2573  0.7821
   41MOL   C108 5788   5.259   3.401   0.477 -0.0074 -0.0256  0.2093
   41MOL   O109 5789   5.370   3.339   0.539 -0.5520  0.1585 -0.5110
   41MOL   H110 5790   5.359   3.378   0.284 -0.9511  2.0348 -1.1803
   41MOL   H111 5791   5.198   3.447   0.270  0.2746 -1.1006 -1.4625
   41MOL   H112 5792   5.170   3.382   0.536 -0.3712 -0.4692 -0.4798
   41MOL   H113 5793   5.283   3.507   0.486  1.6651 -0.3728  0.0439
   41MOL   C114 5794   5.367   3.200   0.555 -0.0861 -0.0837 -0.2668
   41MOL   C115 5795   5.486   3.157   0.640 -0.2389 -0.7147  0.1938
   41MOL   O116 5796   5.606   3.206   0.586 -0.0277  0.4992 -0.0553
   41MOL   H117 5797   5.275   3.182   0.612  1.0344 -2.2364  0.9491
   41MOL   H118 5798   5.364   3.148   0.460  1.1170 -0.4115 -0.1277
   41MOL   H119 5799   5.483   3.050   0.659 -1.0556 -1.2453 -2.6838
   41MOL   H120 5800   5.481   3.201   0.740  1.9503  0.6904 -0.2626
   41MOL   C121 5801   5.731   3.136   0.618 -0.0721  0.1768 -0.4930
   41MOL   C122 5802   5.839   3.184   0.518 -0.0651 -0.6400 -0.0245
   41MOL   O123 5803   5.838   3.095   0.402  0.0290 -0.4917  0.0519
   41MOL   H124 5804   5.767   3.155   0.719 -1.5476  0.3911  0.0168
   41MOL   H125 5805   5.718   3.028   0.621  1.0612  0.0483 -0.2298
   41MOL   H126 5806   5.938   3.166   0.559 -0.0008 -0.2208  0.0109
   41MOL   H127 5807   5.822   3.289   0.493 -0.6179 -0.8406 -0.4981
   41MOL   C128 5808   5.724   3.123   0.317 -0.8111 -0.6150 -0.0285
   41MOL   C129 5809   5.755   3.077   0.181 -0.0843  0.3376  0.5723
   41MOL   O130 5810   5.752   2.934   0.187 -0.4035 -1.0874  0.1082
   41MOL   H131 5811   5.625   3.086   0.345 -1.3505 -0.1727 -1.3078
   41MOL   H132 5812   5.713   3.231   0.312  0.9545 -0.4949 -1.9773
   41MOL   H133 5813   5.849   3.125   0.155  0.8052 -2.6431 -2.0556
   41MOL   H134 5814   5.678   3.105   0.107  0.3476  0.5888  0.2145
   41MOL   C135 5815   5.800   2.871   0.066  0.0562 -0.0599 -0.2638
   41MOL   C136 5816   5.835   2.725   0.107  0.7043 -0.6309  0.0884
   41MOL   O137 5817   5.874   2.658   7.758 -0.4961  0.1962  0.3976
   41MOL   H138 5818   5.721   2.883   7.763  0.4793  1.9126 -0.4077
   41MOL   H139 5819   5.890   2.923   0.035 -1.3244  0.0217 -4.4204
   41MOL   H140 5820   5.756   2.661   0.146  0.4328 -0.4867 -0.2173
   41MOL   H141 5821   5.921   2.729   0.173  0.0280  2.7650  0.8501
   41MOL   H142 5822   5.949   2.694   7.714  1.0131 -0.3882  2.3847
   42MOL     C1 5823   2.464   6.696   4.221 -0.2227 -0.2489 -0.1183
   42MOL     C2 5824   2.320   6.650   4.187  0.4458  0.7419  0.5305
   42MOL     O3 5825   2.254   6.618   4.307  0.4008  0.3630 -0.3561
   42MOL     H4 5826   2.489   6.631   4.304  0.1996  0.8526  0.6286
   42MOL     H5 5827   2.468   6.798   4.259  1.4960 -0.1909 -0.4154
   42MOL     H6 5828   2.333   6.557   4.132 -0.6743  0.2187  1.1271
   42MOL     H7 5829   2.274   6.727   4.125  1.8228 -0.8777 -2.5582
   42MOL     H8 5830   2.540   6.688   4.144  1.1050 -0.1563  1.1728
   42MOL     C9 5831   2.121   6.570   4.289 -0.4212  0.7623  0.1258
   42MOL    C10 5832   2.045   6.598   4.421 -0.1702 -0.2396 -0.2256
   42MOL    O11 5833   2.052   6.737   4.450  0.7546  0.8293  0.2538
   42MOL    H12 5834   2.066   6.643   4.228 -1.0529  0.3424  0.1822
   42MOL    H13 5835   2.112   6.468   4.252 -0.4881 -0.1275  2.5137
   42MOL    H14 5836   2.089   6.544   4.506  0.2352 -0.0393 -0.3068
   42MOL    H15 5837   1.938   6.578   4.425 -0.2404  0.1135 -0.3607
   42MOL    C16 5838   1.987   6.771   4.575  0.8852  0.6321 -0.0745
   42MOL    C17 5839   1.969   6.922   4.597 -0.6690 -0.3305  0.3279
   42MOL    O18 5840   1.877   6.978   4.497  0.3669  0.4977  0.3778
   42MOL    H19 5841   1.890   6.726   4.596  1.4856  0.1454  1.7822
   42MOL    H20 5842   2.049   6.740   4.659 -1.3799 -1.8880  0.7458
   42MOL    H21 5843   2.061   6.974   4.573 -0.2548 -0.0617  2.4390
   42MOL    H22 5844   1.953   6.943   4.703  0.7365  1.5835  0.1925
   42MOL    C23 5845   1.764   7.044   4.557 -0.4196 -0.1169 -0.0801
   42MOL    C24 5846   1.662   6.937   4.603  0.5870  0.1139  0.0274
   42MOL    O25 5847   1.715   6.905   4.730  0.0203 -0.2576 -0.1010
   42MOL    H26 5848   1.784   7.117   4.635 -3.7468  0.1349  0.6180
   42MOL    H27 5849   1.720   7.099   4.474 -1.7803 -0.4665  0.3832
   42MOL    H28 5850   1.647   6.850   4.539  1.9546  0.5541 -0.9171
   42MOL    H29 5851   1.570   6.990   4.631  1.0656  1.8695 -1.5729
   42MOL    C30 5852   1.653   6.803   4.800  0.0323  0.1144 -0.6752
   42MOL    C31 5853   1.714   6.787   4.941 -0.4825  0.1444 -0.6845
   42MOL    O32 5854   1.847   6.736   4.949 -0.2256  0.3047 -0.1745
   42MOL    H33 5855   1.549   6.835   4.809  1.0160  3.6439 -1.4273
   42MOL    H34 5856   1.651   6.713   4.738  0.2804 -1.9570  2.2013
   42MOL    H35 5857   1.652   6.712   4.989  0.5311 -0.1003  0.2668
   42MOL    H36 5858   1.718   6.881   4.998 -0.5017 -0.0030 -0.4386
   42MOL    C37 5859   1.905   6.721   5.076 -0.1213 -0.1573 -0.2052
   42MOL    C38 5860   1.886   6.584   5.137 -0.1180 -0.7092  1.0916
   42MOL    O39 5861   1.749   6.549   5.155  0.0440  0.2701 -0.8369
   42MOL    H40 5862   2.013   6.735   5.065 -0.1008  0.8815  1.2053
   42MOL    H41 5863   1.856   6.791   5.143  1.0017 -0.3502  0.8291
   42MOL    H42 5864   1.943   6.575   5.229  1.9388  2.6141  0.2336
   42MOL    H43 5865   1.946   6.510   5.084 -2.1743 -1.6114 -0.0418
   42MOL    C44 5866   1.736   6.421   5.221 -0.0682 -0.0301 -0.0343
   42MOL    C45 5867   1.591   6.399   5.224 -0.1001 -0.2251  0.4537
   42MOL    O46 5868   1.543   6.297   5.136 -1.0490  0.1560  0.3794
   42MOL    H47 5869   1.788   6.352   5.154 -0.8568  0.2954 -0.9772
   42MOL    H48 5870   1.770   6.418   5.325 -1.0411  1.7679  0.3505
   42MOL    H49 5871   1.539   6.487   5.186  2.3225  0.7631 -0.7138
   42MOL    H50 5872   1.552   6.387   5.325  2.1156  1.2615  1.5345
   42MOL    C51 5873   1.411   6.256   5.154 -0.2733 -0.2279 -0.0541
   42MOL    C52 5874   1.312   6.363   5.115 -0.3966 -0.3061 -0.4827
   42MOL    O53 5875   1.325   6.418   4.987  0.4028 -0.0298  0.3207
   42MOL    H54 5876   1.404   6.167   5.091 -0.4245 -0.7396  0.6814
   42MOL    H55 5877   1.399   6.228   5.258 -1.3628  0.0910 -0.0828
   42MOL    H56 5878   1.334   6.448   5.181  2.6781 -0.0877 -1.7110
   42MOL    H57 5879   1.211   6.328   5.138 -1.1578  1.3293 -1.2306
   42MOL    C58 5880   1.234   6.527   4.952 -0.1155 -0.1224  0.1414
   42MOL    C59 5881   1.221   6.533   4.807  0.8282  0.2369 -0.1049
   42MOL    O60 5882   1.120   6.437   4.753  0.0829 -0.0144 -0.7512
   42MOL    H61 5883   1.140   6.506   5.002  0.9402 -1.4776  1.6317
   42MOL    H62 5884   1.281   6.618   4.987 -1.2117  0.8717 -0.9332
   42MOL    H63 5885   1.320   6.517   4.765  0.6854  0.5617 -0.5717
   42MOL    H64 5886   1.184   6.629   4.771  1.5617  0.7058  0.3980
   42MOL    C65 5887   1.139   6.303   4.788  0.8229  0.0427  0.3491
   42MOL    C66 5888   1.084   6.211   4.676  0.4951 -0.2783  0.0042
   42MOL    O67 5889   1.156   6.240   4.557  0.2726  0.3782 -0.3393
   42MOL    H68 5890   1.246   6.288   4.800  0.6007 -0.3172  2.0083
   42MOL    H69 5891   1.082   6.296   4.881  1.5641  0.2575  0.8261
   42MOL    H70 5892   0.977   6.215   4.656  0.6629  2.2342 -0.6242
   42MOL    H71 5893   1.107   6.112   4.714 -1.1856 -0.2658  1.1157
   42MOL    C72 5894   1.150   6.120   4.475  0.4837 -0.1092 -0.2776
   42MOL    C73 5895   1.246   6.117   4.357  0.0597  0.9732 -0.0320
   42MOL    O74 5896   1.179   6.197   4.260  0.0347  0.3102  0.6137
   42MOL    H75 5897   1.185   6.034   4.533  1.1930  0.1927 -0.2498
   42MOL    H76 5898   1.050   6.096   4.441  0.6490  0.9932 -1.5763
   42MOL    H77 5899   1.258   6.018   4.313  0.3748  0.4288  1.2589
   42MOL    H78 5900   1.345   6.151   4.389 -0.3210  3.5278 -1.3949
   42MOL    C79 5901   1.267   6.291   4.203  0.3203 -0.2391 -0.1180
   42MOL    C80 5902   1.348   6.228   4.083  0.1452  0.1437 -0.2694
   42MOL    O81 5903   1.267   6.225   3.967  0.4433  0.1555 -0.1864
   42MOL    H82 5904   1.222   6.388   4.182  1.1637  0.0057 -0.8088
   42MOL    H83 5905   1.334   6.325   4.282  1.4220  1.2099 -1.6341
   42MOL    H84 5906   1.407   6.142   4.114 -1.3687 -0.4463  1.0248
   42MOL    H85 5907   1.427   6.298   4.055 -0.0306 -1.0062 -3.9315
   42MOL    C86 5908   1.224   6.095   3.945 -0.8583  0.0082 -0.2820
   42MOL    C87 5909   1.120   6.096   3.829 -1.0900 -0.5484  0.0694
   42MOL    O88 5910   0.986   6.078   3.889  0.7184 -0.3354 -0.2588
   42MOL    H89 5911   1.315   6.044   3.914  0.9077  1.7672  1.7842
   42MOL    H90 5912   1.185   6.049   4.037 -0.4701 -3.4324 -1.7700
   42MOL    H91 5913   1.136   6.012   3.761  0.7779 -0.5111  0.4508
   42MOL    H92 5914   1.116   6.188   3.770 -0.3028 -0.1575  0.6222
   42MOL    C93 5915   0.884   6.084   3.785 -0.0705  0.5588 -0.8123
   42MOL    C94 5916   0.751   6.008   3.825 -0.0243 -0.3959 -0.1003
   42MOL    O95 5917   0.654   6.089   3.900 -0.0492  0.0867  0.1942
   42MOL    H96 5918   0.864   6.184   3.747  0.9495 -0.0043 -2.8588
   42MOL    H97 5919   0.925   6.034   3.697  1.7675  1.9888 -0.7847
   42MOL    H98 5920   0.787   5.927   3.889 -0.5695 -0.2407  0.4018
   42MOL    H99 5921   0.713   5.961   3.734 -0.9326  2.8847 -1.4780
   42MOL   C100 5922   0.711   6.153   4.019  0.1231  0.4591  0.7870
   42MOL   C101 5923   0.618   6.142   4.140  0.2058 -0.5867 -0.1723
   42MOL   O102 5924   0.500   6.221   4.123 -0.2790  0.8657 -0.5606
   42MOL   H103 5925   0.812   6.123   4.048  0.3347  2.6990  2.5686
   42MOL   H104 5926   0.704   6.257   3.986 -1.9486 -1.1361 -4.2877
   42MOL   H105 5927   0.672   6.189   4.221 -1.4123  1.6835 -0.3641
   42MOL   H106 5928   0.585   6.041   4.165 -0.5583 -0.5862 -1.1340
   42MOL   C107 5929   0.404   6.196   4.227  0.0386  0.3320  0.0392
   42MOL   C108 5930   0.290   6.292   4.194  0.1013  0.0672 -0.2825
   42MOL   O109 5931   0.333   6.422   4.220  0.2815 -0.1576 -0.0974
   42MOL   H110 5932   0.363   6.095   4.219  1.3382 -0.2273  0.3565
   42MOL   H111 5933   0.431   6.201   4.332  0.2066  0.2321  0.0010
   42MOL   H112 5934   0.221   6.272   4.276  1.8759 -1.5242  0.8631
   42MOL   H113 5935   0.240   6.273   4.099 -1.6174 -1.0740  0.7957
   42MOL   C114 5936   0.223   6.513   4.227  0.7058 -0.7290  0.0078
   42MOL   C115 5937   0.265   6.646   4.293  0.7996  0.4173 -0.1397
   42MOL   O116 5938   0.303   6.619   4.431  0.2921  0.0535  0.4342
   42MOL   H117 5939   0.189   6.529   4.124  1.4579 -0.1943 -0.1685
   42MOL   H118 5940   0.138   6.464   4.272  0.0716 -1.5435 -2.0326
   42MOL   H119 5941   0.186   6.721   4.281  1.6094  1.1181 -1.2050
   42MOL   H120 5942   0.354   6.680   4.241  1.7497 -1.7193  0.0478
   42MOL   C121 5943   0.293   6.732   4.521 -0.2756 -0.1791  0.2437
   42MOL   C122 5944   0.370   6.677   4.640  0.3583 -0.8258  0.3397
   42MOL   O123 5945   0.341   6.758   4.754 -0.7883  0.5675 -0.0997
   42MOL   H124 5946   0.340   6.824   4.484 -0.4156 -0.8948 -1.7310
   42MOL   H125 5947   0.192   6.742   4.562 -0.5527 -0.5466 -0.3394
   42MOL   H126 5948   0.476   6.691   4.617  0.1515  0.4792  0.1534
   42MOL   H127 5949   0.341   6.576   4.669  1.1241 -0.8791  0.9444
   42MOL   C128 5950   0.436   6.737   4.858  0.3784  0.1769  0.3571
   42MOL   C129 5951   0.415   6.818   4.989  0.1452 -0.5793  0.2942
   42MOL   O130 5952   0.298   6.776   5.062  0.5477 -0.0453  0.4091
   42MOL   H131 5953   0.421   6.638   4.901  0.3128  0.3171  0.6594
   42MOL   H132 5954   0.537   6.735   4.819  0.4705 -0.9283  0.6434
   42MOL   H133 5955   0.388   6.918   4.955  2.4268  0.1004  0.4320
   42MOL   H134 5956   0.508   6.824   5.045  1.6442 -0.2644 -2.1868
   42MOL   C135 5957   0.265   6.855   5.171 -0.0952  0.5733 -0.1696
   42MOL   C136 5958   0.144   6.798   5.241  0.1581 -0.0074  0.7698
   42MOL   O137 5959   0.035   6.868   5.186  0.1517  0.0913 -0.5870
   42MOL   H138 5960   0.348   6.848   5.241 -2.9708 -2.3032  3.1987
   42MOL   H139 5961   0.261   6.960   5.143  0.9839  0.7587  0.3454
   42MOL   H140 5962   0.145   6.810   5.349  1.5176 -0.9743  0.8774
   42MOL   H141 5963   0.136   6.692   5.216  2.1465  0.2123 -0.9485
   42MOL   H142 5964   0.039   6.889   5.094  1.8063  2.3241 -0.0399
   43MOL     C1 5965   4.778   5.921   2.755 -0.6646 -0.5600  0.4883
   43MOL     C2 5966   4.779   5.775   2.793 -0.3260  0.3881  0.0416
   43MOL     O3 5967   4.829   5.709   2.679 -0.1120  0.2216 -0.1326
   43MOL     H4 5968   4.843   5.977   2.822  2.0498 -2.0105 -0.8274
   43MOL     H5 5969   4.679   5.965   2.757  0.0391  1.1023 -0.4491
   43MOL     H6 5970   4.680   5.745   2.828 -1.1626 -0.8476 -3.1429
   43MOL     H7 5971   4.841   5.766   2.882 -0.2546  0.2223 -0.0239
   43MOL     H8 5972   4.807   5.930   2.650  1.2689 -1.6994  0.8889
   43MOL     C9 5973   4.819   5.568   2.684 -0.1722  0.3348 -0.5123
   43MOL    C10 5974   4.882   5.506   2.556 -0.2265 -0.4131 -0.1956
   43MOL    O11 5975   5.021   5.509   2.579 -0.2354  0.5593 -0.2904
   43MOL    H12 5976   4.868   5.529   2.773  0.3406  0.9647 -0.5089
   43MOL    H13 5977   4.715   5.539   2.699 -0.1651  1.2376  1.5369
   43MOL    H14 5978   4.848   5.554   2.464 -0.2160 -1.7232 -0.8956
   43MOL    H15 5979   4.852   5.402   2.544  0.6271 -0.8949  1.6635
   43MOL    C16 5980   5.090   5.437   2.475 -0.5048  0.3071  0.0720
   43MOL    C17 5981   5.237   5.459   2.456  0.5282  0.4272  0.1632
   43MOL    O18 5982   5.320   5.350   2.492  0.3259 -0.5947 -0.4371
   43MOL    H19 5983   5.040   5.341   2.461 -1.7633  0.7319  1.5674
   43MOL    H20 5984   5.059   5.493   2.386  0.6397  0.0060 -0.5259
   43MOL    H21 5985   5.269   5.544   2.516 -0.6329  2.0951 -1.4996
   43MOL    H22 5986   5.252   5.486   2.351  1.9508  0.2479  0.3120
   43MOL    C23 5987   5.460   5.374   2.474 -0.3520  0.0765  0.4678
   43MOL    C24 5988   5.526   5.238   2.492 -0.1278 -0.6929 -0.0020
   43MOL    O25 5989   5.596   5.234   2.623  0.9459  0.1151  0.4799
   43MOL    H26 5990   5.489   5.425   2.383  2.5257 -0.0112  1.3048
   43MOL    H27 5991   5.493   5.438   2.555 -0.2987  1.4173 -0.5950
   43MOL    H28 5992   5.606   5.233   2.417 -2.2913 -0.1468 -2.4312
   43MOL    H29 5993   5.462   5.151   2.478 -0.8352 -0.1337 -0.2340
   43MOL    C30 5994   5.662   5.113   2.650  0.3839  0.4942  0.2497
   43MOL    C31 5995   5.801   5.146   2.590  0.2312 -0.2386  0.1261
   43MOL    O32 5996   5.804   5.145   2.449  0.3896 -0.0618  0.2264
   43MOL    H33 5997   5.667   5.115   2.759  2.2039  0.2761  0.1861
   43MOL    H34 5998   5.621   5.021   2.609  1.0301  1.3937 -2.5042
   43MOL    H35 5999   5.872   5.074   2.631  1.2641  0.9869  0.5469
   43MOL    H36 6000   5.831   5.242   2.631 -1.5183  0.2945  0.1834
   43MOL    C37 6001   5.913   5.206   2.388  0.3227  0.1500  0.6701
   43MOL    C38 6002   5.876   5.350   2.341  0.8611 -0.2040  0.2519
   43MOL    O39 6003   5.867   5.437   2.449 -0.1380 -0.3849 -0.4660
   43MOL    H40 6004   6.009   5.201   2.440  0.0617  0.3920  1.1756
   43MOL    H41 6005   5.930   5.141   2.302 -0.4347 -1.2834  1.5917
   43MOL    H42 6006   5.780   5.343   2.290  1.3836 -0.7792 -0.6677
   43MOL    H43 6007   5.959   5.388   2.283  1.6237 -1.1469  0.7057
   43MOL    C44 6008   5.795   5.551   2.407 -0.1733  0.1855 -0.4018
   43MOL    C45 6009   5.810   5.647   2.525 -0.3593  1.0609  0.3742
   43MOL    O46 6010   5.927   5.725   2.511 -0.1796  0.7056 -0.0435
   43MOL    H47 6011   5.849   5.596   2.324  1.0875 -1.2903 -0.3956
   43MOL    H48 6012   5.693   5.528   2.377 -0.3524 -1.9725  1.7081
   43MOL    H49 6013   5.817   5.587   2.615 -0.8443  0.4677  0.0201
   43MOL    H50 6014   5.723   5.712   2.531 -1.5512 -0.6762  2.3044
   43MOL    C51 6015   5.958   5.788   2.634  0.6920 -0.4511  0.2477
   43MOL    C52 6016   6.100   5.840   2.616 -0.1583 -1.1243 -0.1195
   43MOL    O53 6017   6.088   5.984   2.614  0.1936  0.0923  0.0597
   43MOL    H54 6018   5.887   5.869   2.648  1.5665 -0.0343  2.4970
   43MOL    H55 6019   5.970   5.720   2.719  1.5210  0.2428  0.6978
   43MOL    H56 6020   6.146   5.794   2.528 -1.1502 -1.1709 -0.6241
   43MOL    H57 6021   6.165   5.811   2.698 -1.1389  1.5276  1.6587
   43MOL    C58 6022   6.202   6.056   2.583  0.0787 -0.1076 -0.2829
   43MOL    C59 6023   6.179   6.212   2.596 -0.2101  0.7941 -0.0004
   43MOL    O60 6024   6.147   6.250   2.726 -0.7199 -0.0832  0.1318
   43MOL    H61 6025   6.289   6.020   2.638 -0.3599 -1.0551 -0.2027
   43MOL    H62 6026   6.219   6.045   2.476 -0.6032  1.9924 -0.6402
   43MOL    H63 6027   6.099   6.228   2.523 -0.4449 -1.6577 -0.3357
   43MOL    H64 6028   6.268   6.257   2.553 -1.1119 -0.3360 -3.1491
   43MOL    C65 6029   6.110   6.387   2.734 -0.4385  0.5887  0.4263
   43MOL    C66 6030   6.095   6.442   2.873  0.1677  0.5498 -0.3294
   43MOL    O67 6031   6.228   6.461   2.933  0.3702  0.3641  0.0952
   43MOL    H68 6032   6.184   6.439   2.673 -0.3808 -1.3959 -1.2368
   43MOL    H69 6033   6.015   6.395   2.681  0.7227 -0.2000 -1.8455
   43MOL    H70 6034   6.038   6.378   2.939 -0.8942  1.2156 -0.5955
   43MOL    H71 6035   6.045   6.539   2.863 -0.5524  0.2144  0.0078
   43MOL    C72 6036   6.229   6.486   3.076  0.1249  0.2145 -0.7032
   43MOL    C73 6037   6.367   6.476   3.145  0.2793  0.6927 -0.6853
   43MOL    O74 6038   6.383   6.342   3.196 -0.2191 -0.5092  0.1061
   43MOL    H75 6039   6.204   6.591   3.062 -4.0336 -0.6280 -0.2652
   43MOL    H76 6040   6.159   6.426   3.134  2.5926 -2.0985 -0.0575
   43MOL    H77 6041   6.381   6.544   3.229 -0.5392  0.1602 -0.1187
   43MOL    H78 6042   6.448   6.498   3.075 -0.5010 -1.0964 -2.1968
   43MOL    C79 6043   6.512   6.328   3.251 -0.3350  1.0745 -0.2183
   43MOL    C80 6044   6.523   6.193   3.315 -0.4753 -0.6287 -0.0494
   43MOL    O81 6045   6.624   6.109   3.267 -0.4814 -0.4557 -0.0266
   43MOL    H82 6046   6.591   6.343   3.178 -0.5490  2.6208 -0.1579
   43MOL    H83 6047   6.526   6.414   3.317 -2.3769  0.7200  0.7262
   43MOL    H84 6048   6.437   6.126   3.307 -1.1491 -0.1407  2.7186
   43MOL    H85 6049   6.546   6.206   3.421 -1.9365 -2.3598  0.5132
   43MOL    C86 6050   6.767   6.139   3.291  0.4482 -0.4226  0.8841
   43MOL    C87 6051   6.803   6.107   3.436  0.1572 -0.6446 -0.3106
   43MOL    O88 6052   6.803   5.966   3.447  0.1144 -0.3837  0.4038
   43MOL    H89 6053   6.832   6.073   3.233  0.9583  1.5700 -0.9168
   43MOL    H90 6054   6.795   6.244   3.282  3.5151 -1.1367  1.3924
   43MOL    H91 6055   6.736   6.152   3.510 -0.6917 -1.2867 -0.6810
   43MOL    H92 6056   6.900   6.153   3.450 -0.0385 -0.2665 -0.1805
   43MOL    C93 6057   6.857   5.925   3.570  0.4344  0.3596  0.1722
   43MOL    C94 6058   6.859   5.771   3.592 -0.3466 -0.4998  0.0943
   43MOL    O95 6059   6.935   5.702   3.496 -0.5619 -0.6590  0.8400
   43MOL    H96 6060   6.958   5.962   3.584  1.2461 -2.9358  4.0384
   43MOL    H97 6061   6.805   5.968   3.656  0.0835  0.1236  0.0817
   43MOL    H98 6062   6.760   5.726   3.607 -0.5756 -0.2672 -0.7251
   43MOL    H99 6063   6.914   5.751   3.684  0.0326 -0.9994 -0.2357
   43MOL   C100 6064   6.956   5.569   3.516 -0.7334  0.2208 -0.1457
   43MOL   C101 6065   6.833   5.487   3.538  0.4179 -0.5360 -0.0626
   43MOL   O102 6066   6.801   5.477   3.679 -0.3676  0.1741 -0.4998
   43MOL   H103 6067   7.017   5.537   3.431 -1.9576  0.5786 -1.1721
   43MOL   H104 6068   7.016   5.548   3.605  0.5313  2.8104 -0.3260
   43MOL   H105 6069   6.848   5.383   3.511  2.6500 -0.6115  1.4020
   43MOL   H106 6070   6.748   5.530   3.485  1.7443 -0.6804 -2.3346
   43MOL   C107 6071   6.725   5.367   3.729 -0.0757  0.0489  0.6667
   43MOL   C108 6072   6.636   5.425   3.846 -0.7185  0.5153  0.0390
   43MOL   O109 6073   6.516   5.454   3.783 -0.1389  0.2964 -0.0246
   43MOL   H110 6074   6.660   5.343   3.645  1.8470 -4.0566  0.2011
   43MOL   H111 6075   6.790   5.285   3.761 -1.7578 -1.9333 -0.8189
   43MOL   H112 6076   6.692   5.500   3.902 -0.4215 -0.4463  1.0184
   43MOL   H113 6077   6.620   5.343   3.915 -2.6407 -1.0028 -2.1140
   43MOL   C114 6078   6.501   5.571   3.706 -0.1567  0.6641  0.6312
   43MOL   C115 6079   6.353   5.605   3.675  0.5027 -0.8952  0.1369
   43MOL   O116 6080   6.297   5.651   3.792 -0.6213  0.8064 -0.0673
   43MOL   H117 6081   6.555   5.650   3.758 -0.3863 -0.0312  1.9455
   43MOL   H118 6082   6.560   5.548   3.618 -0.6535  0.5128  0.3322
   43MOL   H119 6083   6.306   5.515   3.636  0.6640 -1.1204  0.4672
   43MOL   H120 6084   6.347   5.679   3.595  0.6326  0.9637  1.8070
   43MOL   C121 6085   6.161   5.686   3.772 -0.3051 -0.2128  0.2902
   43MOL   C122 6086   6.070   5.564   3.781 -0.1736  0.5932  0.4961
   43MOL   O123 6087   6.071   5.507   3.913 -0.4480  0.3411 -0.3919
   43MOL   H124 6088   6.127   5.760   3.844  1.3813  0.0812  0.7931
   43MOL   H125 6089   6.145   5.749   3.684 -3.4427  0.2546  1.1452
   43MOL   H126 6090   6.103   5.479   3.721 -0.1122 -0.2009  1.6319
   43MOL   H127 6091   5.968   5.597   3.761 -0.3368 -0.3487 -0.2758
   43MOL   C128 6092   6.013   5.380   3.917 -0.0949  0.3128 -0.2319
   43MOL   C129 6093   6.046   5.324   4.060  0.0937 -0.5780 -0.2208
   43MOL   O130 6094   5.960   5.377   4.158  0.6003 -0.2365 -0.3961
   43MOL   H131 6095   5.905   5.372   3.912 -0.2120  2.6020 -2.0091
   43MOL   H132 6096   6.048   5.310   3.841  0.1526  1.2237 -0.9648
   43MOL   H133 6097   6.147   5.327   4.100 -0.3757  1.2370  0.9068
   43MOL   H134 6098   6.025   5.217   4.066 -3.9505  0.1898  1.2521
   43MOL   C135 6099   5.962   5.328   4.292  0.0120  0.2332 -0.1232
   43MOL   C136 6100   5.888   5.429   4.371  0.1507 -0.0719  0.2039
   43MOL   O137 6101   5.945   5.439   4.494 -0.0065  0.3297 -0.4623
   43MOL   H138 6102   5.918   5.229   4.281 -1.0496  0.9757 -3.3368
   43MOL   H139 6103   6.062   5.326   4.335 -0.0166  1.7277  0.0466
   43MOL   H140 6104   5.784   5.397   4.380  0.2409 -0.1300  1.1959
   43MOL   H141 6105   5.875   5.522   4.316 -0.2502  0.7569  1.6634
   43MOL   H142 6106   6.021   5.495   4.499 -0.4005  0.7371  1.1756
   44MOL     C1 6107   6.129   4.835   4.866  0.4270 -0.2856  0.1539
   44MOL     C2 6108   6.042   4.720   4.810  0.3749 -0.1084  0.5172
   44MOL     O3 6109   6.110   4.599   4.818  0.5449  0.1179 -0.1351
   44MOL     H4 6110   6.160   4.813   4.968  1.3760 -0.1120 -0.0919
   44MOL     H5 6111   6.078   4.930   4.877 -0.0680 -0.8024  2.5490
   44MOL     H6 6112   6.013   4.739   4.706  0.2820 -3.1882 -0.0725
   44MOL     H7 6113   5.950   4.710   4.868  1.1187  3.0426  2.3721
   44MOL     H8 6114   6.214   4.851   4.799  1.0852 -2.1233  0.5262
   44MOL     C9 6115   6.035   4.479   4.844  0.1240 -0.7089  0.0065
   44MOL    C10 6116   5.922   4.456   4.736  0.1164 -0.0717  0.1148
   44MOL    O11 6117   5.817   4.518   4.799  0.1764  0.0965 -0.3122
   44MOL    H12 6118   6.109   4.399   4.848 -1.7833 -2.6037 -1.7357
   44MOL    H13 6119   5.995   4.473   4.945 -0.9282 -0.4902 -0.3921
   44MOL    H14 6120   5.907   4.349   4.721 -0.4702  0.0157  0.0745
   44MOL    H15 6121   5.953   4.508   4.645  0.1733  0.0192  0.1849
   44MOL    C16 6122   5.703   4.537   4.710  0.1454  0.5787 -1.1462
   44MOL    C17 6123   5.597   4.437   4.751  0.5497 -0.2596  0.0143
   44MOL    O18 6124   5.642   4.311   4.721 -0.3132  0.8039  0.3493
   44MOL    H19 6125   5.655   4.634   4.709  0.7252  0.8728 -0.5082
   44MOL    H20 6126   5.733   4.527   4.606  0.1300 -0.5842 -1.0468
   44MOL    H21 6127   5.499   4.445   4.704 -0.4717 -2.0883  1.7706
   44MOL    H22 6128   5.579   4.438   4.858 -1.2911 -2.9663 -0.2120
   44MOL    C23 6129   5.558   4.200   4.764 -0.2986  0.0388  0.5182
   44MOL    C24 6130   5.637   4.081   4.742 -0.4624  0.3783  0.3794
   44MOL    O25 6131   5.608   4.040   4.611  0.4924 -0.1337 -0.2002
   44MOL    H26 6132   5.535   4.224   4.868  0.1444  2.4202  0.1119
   44MOL    H27 6133   5.468   4.193   4.703 -0.3661 -1.5354  0.7811
   44MOL    H28 6134   5.597   3.998   4.800 -0.0991  0.0576  0.1771
   44MOL    H29 6135   5.742   4.101   4.760 -0.6865  0.4230  1.6683
   44MOL    C30 6136   5.655   4.119   4.500  0.0748 -0.0411 -0.8129
   44MOL    C31 6137   5.659   4.048   4.370 -0.3871  0.1225  0.4663
   44MOL    O32 6138   5.565   4.107   4.288 -0.5950  0.1805 -0.0779
   44MOL    H33 6139   5.590   4.204   4.480  0.1862 -0.0254 -1.1137
   44MOL    H34 6140   5.759   4.147   4.515  0.1276 -1.4258  1.5696
   44MOL    H35 6141   5.646   3.940   4.379 -1.1177  0.1217 -0.4923
   44MOL    H36 6142   5.754   4.057   4.318  0.1588 -2.9510  0.7909
   44MOL    C37 6143   5.566   4.042   4.155 -0.0922  0.0768  0.6099
   44MOL    C38 6144   5.472   4.127   4.057 -0.2877 -0.2742 -0.0560
   44MOL    O39 6145   5.514   4.259   4.032 -0.3321  0.1542 -0.1003
   44MOL    H40 6146   5.668   4.044   4.116 -0.0935 -3.2722  0.2664
   44MOL    H41 6147   5.549   3.935   4.161  0.2563  0.1412  2.8953
   44MOL    H42 6148   5.369   4.121   4.093 -0.2718  1.1614  0.2686
   44MOL    H43 6149   5.468   4.072   3.963 -1.1790  0.3847 -0.4134
   44MOL    C44 6150   5.427   4.324   3.939 -0.3249  0.2110  0.0852
   44MOL    C45 6151   5.459   4.469   3.952  0.0333  0.4522 -0.4875
   44MOL    O46 6152   5.583   4.493   3.888  0.0839 -0.2960 -0.4160
   44MOL    H47 6153   5.450   4.293   3.837 -2.5225  0.2417 -0.4417
   44MOL    H48 6154   5.326   4.288   3.960 -1.0700  1.8799 -0.5558
   44MOL    H49 6155   5.460   4.493   4.059  0.4595  0.0734 -0.4019
   44MOL    H50 6156   5.391   4.539   3.904 -1.7690 -0.5763  0.5260
   44MOL    C51 6157   5.628   4.632   3.912 -0.2917 -0.6647  0.1598
   44MOL    C52 6158   5.554   4.725   3.815  0.1698  0.5109  0.1045
   44MOL    O53 6159   5.594   4.855   3.873  0.2241  0.3427  0.2840
   44MOL    H54 6160   5.607   4.663   4.015 -0.3651  0.1331 -0.0903
   44MOL    H55 6161   5.737   4.638   3.904 -0.2431 -0.3023  0.9723
   44MOL    H56 6162   5.445   4.720   3.810  0.2181  0.8474 -1.7744
   44MOL    H57 6163   5.588   4.695   3.715  0.5736 -0.6369  0.5741
   44MOL    C58 6164   5.493   4.908   3.960  0.1193  0.2131  0.8497
   44MOL    C59 6165   5.523   4.911   4.110  0.1527 -0.1555  0.7207
   44MOL    O60 6166   5.485   4.795   4.173  0.3291 -0.0827 -0.2238
   44MOL    H61 6167   5.469   5.014   3.953  1.5415  0.5799  1.3368
   44MOL    H62 6168   5.397   4.859   3.944  0.4829 -0.1405 -0.2970
   44MOL    H63 6169   5.454   4.983   4.153  0.6120  0.7893 -0.0934
   44MOL    H64 6170   5.628   4.938   4.127 -0.0304  1.1170 -0.1452
   44MOL    C65 6171   5.523   4.774   4.309 -0.2200  0.3655  0.1665
   44MOL    C66 6172   5.520   4.627   4.348 -0.3445 -0.5637  0.0944
   44MOL    O67 6173   5.622   4.565   4.277 -0.1968 -0.1053  0.3556
   44MOL    H68 6174   5.624   4.813   4.314 -0.3039  0.6701 -0.5150
   44MOL    H69 6175   5.458   4.837   4.371 -0.7582  0.6613 -0.6916
   44MOL    H70 6176   5.423   4.584   4.324  0.0183 -0.3496 -1.7998
   44MOL    H71 6177   5.546   4.623   4.454  2.0369  0.4156 -0.4106
   44MOL    C72 6178   5.651   4.425   4.300 -0.8698  0.0725  0.1571
   44MOL    C73 6179   5.761   4.371   4.200  0.4374 -0.5592 -0.2029
   44MOL    O74 6180   5.891   4.412   4.240 -0.1302 -0.0172  0.5750
   44MOL    H75 6181   5.700   4.409   4.396 -0.2235  1.2168  0.0219
   44MOL    H76 6182   5.553   4.378   4.293 -1.9171  2.2654 -0.2674
   44MOL    H77 6183   5.742   4.403   4.097  2.0259 -2.4501 -1.1317
   44MOL    H78 6184   5.751   4.263   4.201  2.6953 -0.7851  0.1308
   44MOL    C79 6185   5.915   4.552   4.236 -0.2922  0.2251 -0.1675
   44MOL    C80 6186   6.060   4.587   4.267  0.0042  0.1939 -0.3601
   44MOL    O81 6187   6.104   4.562   4.400  0.4454 -0.0085  0.3419
   44MOL    H82 6188   5.888   4.589   4.137 -1.2910  1.1346  0.4431
   44MOL    H83 6189   5.859   4.597   4.318  0.3108  0.3986  0.1482
   44MOL    H84 6190   6.068   4.694   4.245 -0.1856  0.1669 -0.5652
   44MOL    H85 6191   6.136   4.543   4.203  1.0984  0.9587  0.3931
   44MOL    C86 6192   6.116   4.421   4.434  0.7366  0.1107 -0.4149
   44MOL    C87 6193   6.209   4.400   4.553  0.2756  0.1097 -0.2083
   44MOL    O88 6194   6.330   4.338   4.497  0.4882  0.0051  0.1448
   44MOL    H89 6195   6.016   4.421   4.478  0.2413  0.1108 -1.5299
   44MOL    H90 6196   6.125   4.348   4.354  1.7706  0.7636 -0.9079
   44MOL    H91 6197   6.169   4.330   4.626  1.5390  0.8953  1.2612
   44MOL    H92 6198   6.241   4.497   4.592  2.8444 -0.6320 -0.3738
   44MOL    C93 6199   6.435   4.333   4.594  0.1969  0.1538 -0.4494
   44MOL    C94 6200   6.427   4.225   4.702 -0.6844  0.1706  0.7780
   44MOL    O95 6201   6.330   4.247   4.801  0.0360  0.7296 -0.4486
   44MOL    H96 6202   6.513   4.303   4.524  1.0841 -1.0397  1.0240
   44MOL    H97 6203   6.461   4.431   4.634 -2.8342  0.7301  0.2531
   44MOL    H98 6204   6.526   4.235   4.747 -0.7051 -1.4999  1.2362
   44MOL    H99 6205   6.426   4.129   4.650  2.5812  0.9728 -0.9438
   44MOL   C100 6206   6.351   4.164   4.915 -0.1392  0.2390 -0.0824
   44MOL   C101 6207   6.242   4.070   4.949  0.4340 -0.0694  0.2752
   44MOL   O102 6208   6.127   4.146   5.001  0.0111  0.6256  0.0877
   44MOL   H103 6209   6.451   4.121   4.912  0.6028  1.9624 -1.0718
   44MOL   H104 6210   6.363   4.235   4.997  1.4413  0.7570 -0.7324
   44MOL   H105 6211   6.271   3.987   5.014 -0.2140 -1.0156 -0.6344
   44MOL   H106 6212   6.215   4.017   4.858  0.1631 -0.3159  0.4994
   44MOL   C107 6213   5.996   4.084   4.990  0.0056  0.3815  0.0391
   44MOL   C108 6214   5.888   4.169   5.050 -1.1886 -0.4967  0.4606
   44MOL   O109 6215   5.773   4.092   5.074  0.0120  0.2617  0.0024
   44MOL   H110 6216   5.966   4.070   4.886 -4.6584  0.5488  1.2530
   44MOL   H111 6217   5.987   3.990   5.045  1.3296  0.1070 -0.1906
   44MOL   H112 6218   5.858   4.254   4.989 -1.4548 -2.5235 -2.3279
   44MOL   H113 6219   5.942   4.195   5.141 -0.0624 -0.4180 -0.2154
   44MOL   C114 6220   5.686   4.158   5.166  0.1672  0.2953 -0.4077
   44MOL   C115 6221   5.561   4.063   5.190 -0.7717  0.6888 -0.0230
   44MOL   O116 6222   5.478   4.102   5.079  0.2729 -0.1913  0.0665
   44MOL   H117 6223   5.736   4.171   5.262  0.1312  0.0875 -0.3607
   44MOL   H118 6224   5.665   4.258   5.128  0.4148 -0.4643 -2.5949
   44MOL   H119 6225   5.516   4.089   5.285 -3.9128 -2.7911 -0.4331
   44MOL   H120 6226   5.594   3.959   5.180 -1.6132  0.7252 -4.3614
   44MOL   C121 6227   5.387   3.999   5.053  0.2458  0.0774 -0.0837
   44MOL   C122 6228   5.282   3.958   5.165 -0.1621 -0.1506 -0.3894
   44MOL   O123 6229   5.204   4.084   5.188  0.0375  0.0952 -0.4688
   44MOL   H124 6230   5.334   4.030   4.963  1.0132 -0.0798 -0.5875
   44MOL   H125 6231   5.446   3.909   5.038  1.5775  0.6719  1.4259
   44MOL   H126 6232   5.332   3.924   5.256  1.3549  0.2945 -1.0510
   44MOL   H127 6233   5.217   3.877   5.130 -0.6052 -0.3365  0.8283
   44MOL   C128 6234   5.208   4.131   5.321 -0.0886 -0.1868  0.7947
   44MOL   C129 6235   5.129   4.260   5.329 -0.1962 -0.6881 -0.0765
   44MOL   O130 6236   4.993   4.226   5.359 -0.2906 -0.3891  0.1328
   44MOL   H131 6237   5.173   4.062   5.397  0.7483 -3.1062 -1.3806
   44MOL   H132 6238   5.312   4.149   5.350 -0.3240  2.1088  0.3286
   44MOL   H133 6239   5.142   4.308   5.232  3.2569  0.8876  1.0522
   44MOL   H134 6240   5.177   4.315   5.411 -1.4312 -1.3267  1.0760
   44MOL   C135 6241   4.925   4.351   5.387  0.3673  0.5755 -0.5830
   44MOL   C136 6242   4.781   4.325   5.401 -0.0341  0.8916  0.3476
   44MOL   O137 6243   4.699   4.436   5.363  0.1437 -0.2033  0.4204
   44MOL   H138 6244   4.968   4.385   5.481  0.7505  2.0684 -1.2943
   44MOL   H139 6245   4.942   4.429   5.313 -2.1371  0.0266 -1.8200
   44MOL   H140 6246   4.756   4.305   5.505 -2.5403  0.9520 -0.1931
   44MOL   H141 6247   4.762   4.235   5.341 -1.5315  1.2706  0.2307
   44MOL   H142 6248   4.708   4.515   5.414  2.2221  1.6553 -2.6617
   45MOL     C1 6249   5.605   4.740   5.039 -0.3559 -0.5235 -0.0495
   45MOL     C2 6250   5.647   4.835   4.932  0.3042  0.1627 -0.5612
   45MOL     O3 6251   5.599   4.967   4.958 -0.0232  0.2250 -0.1629
   45MOL     H4 6252   5.497   4.743   5.056 -0.2565 -2.7853  1.2260
   45MOL     H5 6253   5.654   4.761   5.134  1.4204 -0.4020 -0.9714
   45MOL     H6 6254   5.606   4.799   4.837  0.1774 -2.9381  0.5965
   45MOL     H7 6255   5.755   4.842   4.922  0.2930  1.2342  0.0375
   45MOL     H8 6256   5.632   4.636   5.021  2.9016  0.5012 -1.3676
   45MOL     C9 6257   5.672   5.031   5.065 -0.0158  0.1703 -0.2835
   45MOL    C10 6258   5.660   5.181   5.038 -0.5487  0.0792 -0.7027
   45MOL    O11 6259   5.761   5.251   4.963  0.2655  0.1534 -0.4294
   45MOL    H12 6260   5.625   4.997   5.157  0.0172 -2.0653 -1.0729
   45MOL    H13 6261   5.774   4.994   5.068  0.3031  0.9924 -0.7436
   45MOL    H14 6262   5.650   5.231   5.135  2.7646  1.3383 -0.9380
   45MOL    H15 6263   5.563   5.203   4.992  1.0331  1.2078 -3.6266
   45MOL    C16 6264   5.786   5.197   4.837 -0.2448  0.6296 -0.0679
   45MOL    C17 6265   5.902   5.276   4.772 -0.1975 -0.4443 -0.6079
   45MOL    O18 6266   6.029   5.226   4.824  0.6711 -0.1748  0.6780
   45MOL    H19 6267   5.819   5.094   4.849 -2.5475  0.0419  1.4387
   45MOL    H20 6268   5.701   5.192   4.769  1.0276 -0.1623 -1.6303
   45MOL    H21 6269   5.901   5.382   4.799  0.9905 -0.4594 -0.4839
   45MOL    H22 6270   5.900   5.283   4.663 -2.4437  2.1916 -0.4594
   45MOL    C23 6271   6.149   5.265   4.751  0.0986 -0.1461 -0.2364
   45MOL    C24 6272   6.271   5.235   4.835  0.2905 -0.3881  0.0494
   45MOL    O25 6273   6.309   5.095   4.832 -0.6110 -0.2439  0.4303
   45MOL    H26 6274   6.134   5.212   4.657 -0.4015 -1.5895  0.6291
   45MOL    H27 6275   6.133   5.368   4.720  2.3581  0.8987  1.8921
   45MOL    H28 6276   6.272   5.280   4.934 -2.3036  1.5630 -0.7719
   45MOL    H29 6277   6.358   5.281   4.790 -1.1611  3.5113  1.0895
   45MOL    C30 6278   6.429   5.058   4.894  0.3541 -0.0535  0.1076
   45MOL    C31 6279   6.415   5.032   5.046  0.5149 -0.0537  0.5267
   45MOL    O32 6280   6.537   5.027   5.113 -0.0767 -0.3252  0.0809
   45MOL    H33 6281   6.470   4.968   4.848  1.2443 -1.0105  2.6849
   45MOL    H34 6282   6.510   5.127   4.871 -1.0203  1.7404  0.4985
   45MOL    H35 6283   6.362   4.944   5.080  0.0134  0.0221 -0.0440
   45MOL    H36 6284   6.368   5.123   5.083  1.0528 -0.2366  1.6711
   45MOL    C37 6285   6.530   5.069   5.251 -0.1372  0.1742  0.0933
   45MOL    C38 6286   6.432   4.991   5.342  0.3228  0.8369 -0.2160
   45MOL    O39 6287   6.465   4.856   5.340 -0.2355 -0.3317 -0.1815
   45MOL    H40 6288   6.630   5.045   5.287  0.3862 -0.5105 -1.7207
   45MOL    H41 6289   6.512   5.176   5.257  2.9090  0.6188  2.4626
   45MOL    H42 6290   6.331   5.008   5.304  0.0880 -2.3293 -1.1724
   45MOL    H43 6291   6.440   5.021   5.446  1.9075 -2.7177  0.7676
   45MOL    C44 6292   6.379   4.787   5.426 -0.5480  0.0934 -0.8715
   45MOL    C45 6293   6.380   4.636   5.411  0.0807  0.7385  0.4522
   45MOL    O46 6294   6.483   4.581   5.492 -0.5648  0.2432  0.0218
   45MOL    H47 6295   6.394   4.821   5.529  1.3121  0.9391 -1.4027
   45MOL    H48 6296   6.274   4.811   5.413 -0.4780  1.1038  0.3050
   45MOL    H49 6297   6.374   4.606   5.306 -1.1077 -0.9400  0.9756
   45MOL    H50 6298   6.286   4.612   5.461 -0.0317  1.5942  0.6642
   45MOL    C51 6299   6.613   4.605   5.448 -0.2820 -0.4194  0.7394
   45MOL    C52 6300   6.719   4.515   5.517  0.4324  0.1868  0.6669
   45MOL    O53 6301   6.771   4.594   5.627 -0.0520  0.8467 -0.2361
   45MOL    H54 6302   6.615   4.576   5.343 -0.2926 -0.5910  0.7864
   45MOL    H55 6303   6.635   4.711   5.460  0.4978 -0.6935  1.8268
   45MOL    H56 6304   6.803   4.485   5.455  0.9180  0.9760  0.9357
   45MOL    H57 6305   6.676   4.419   5.546 -1.3085  0.4365 -0.9362
   45MOL    C58 6306   6.675   4.589   5.737 -0.2247 -0.0743  0.3213
   45MOL    C59 6307   6.743   4.647   5.866  0.5839 -0.1072  0.4364
   45MOL    O60 6308   6.873   4.588   5.891  0.1070 -0.4238 -0.3138
   45MOL    H61 6309   6.579   4.637   5.721 -0.2605  0.2511  1.4622
   45MOL    H62 6310   6.661   4.483   5.756 -3.0123  0.2635  0.3025
   45MOL    H63 6311   6.673   4.632   5.948  0.0114  1.6186  0.2918
   45MOL    H64 6312   6.761   4.754   5.863 -2.8234  0.5275  0.3443
   45MOL    C65 6313   6.929   4.619   6.017 -0.5453  0.9290 -0.5332
   45MOL    C66 6314   7.063   4.538   6.024  0.1331  0.9206 -0.2247
   45MOL    O67 6315   7.040   4.402   6.061  0.5043  0.5149  0.2721
   45MOL    H68 6316   6.936   4.728   6.015 -0.1749  0.8892 -1.6475
   45MOL    H69 6317   6.854   4.594   6.092  1.2139  0.7521  1.2088
   45MOL    H70 6318   7.138   4.576   6.093  0.5391 -0.3923  0.0814
   45MOL    H71 6319   7.121   4.536   5.931 -2.6908  0.5425 -2.0282
   45MOL    C72 6320   6.962   4.325   5.968  1.5539  0.1628 -0.6518
   45MOL    C73 6321   6.964   4.174   5.994 -0.2147 -0.1426  0.2661
   45MOL    O74 6322   7.093   4.122   5.950 -0.2485 -0.2212 -0.1649
   45MOL    H75 6323   6.862   4.368   5.977  2.0115  0.7282  2.2632
   45MOL    H76 6324   6.989   4.339   5.864 -1.2054  0.0770 -1.4307
   45MOL    H77 6325   6.878   4.130   5.944 -0.0794 -0.1229  0.0164
   45MOL    H78 6326   6.945   4.144   6.098  1.1461 -1.8174  0.0698
   45MOL    C79 6327   7.117   3.990   5.987 -0.4659  0.2677  0.6523
   45MOL    C80 6328   7.151   3.895   5.868 -0.1243  0.2494  0.1583
   45MOL    O81 6329   7.041   3.856   5.796  0.3392  0.5347 -0.0032
   45MOL    H82 6330   7.198   3.999   6.059  1.7715 -2.1310 -1.4628
   45MOL    H83 6331   7.036   3.943   6.041 -1.5229 -0.4089 -1.4714
   45MOL    H84 6332   7.201   3.807   5.909  0.8174  0.4486 -0.5449
   45MOL    H85 6333   7.222   3.931   5.794 -1.1416 -0.8468 -1.3639
   45MOL    C86 6334   7.048   3.736   5.723  0.2100  0.1458  0.7304
   45MOL    C87 6335   6.924   3.739   5.631 -0.4977  0.0605 -0.2599
   45MOL    O88 6336   6.807   3.713   5.706  0.2418 -0.1430 -0.0510
   45MOL    H89 6337   7.142   3.716   5.672  1.7548 -1.3517  3.9817
   45MOL    H90 6338   7.038   3.657   5.797 -1.9015 -0.1744  0.1388
   45MOL    H91 6339   6.939   3.660   5.558  1.1984 -0.1739  0.3195
   45MOL    H92 6340   6.914   3.836   5.581 -3.4368  0.4633  1.0499
   45MOL    C93 6341   6.695   3.711   5.609 -0.2772  0.3180  0.4159
   45MOL    C94 6342   6.693   3.567   5.545  0.9094  0.4334  0.6697
   45MOL    O95 6343   6.739   3.559   5.418  0.1645  0.4264 -0.2263
   45MOL    H96 6344   6.603   3.717   5.668 -1.1705 -1.3960 -0.7540
   45MOL    H97 6345   6.698   3.788   5.532  0.8812 -1.0812 -0.9742
   45MOL    H98 6346   6.585   3.557   5.542  1.0718 -2.5592  2.8050
   45MOL    H99 6347   6.708   3.475   5.600 -0.0956  1.1232  2.1278
   45MOL   C100 6348   6.729   3.425   5.361  0.5454  0.0270 -0.4472
   45MOL   C101 6349   6.816   3.424   5.238  0.1751  0.1895 -0.1064
   45MOL   O102 6350   6.743   3.486   5.137 -0.4749  0.2544  0.2608
   45MOL   H103 6351   6.757   3.341   5.424  2.1568 -0.3536 -1.6413
   45MOL   H104 6352   6.626   3.402   5.336  0.5341  0.6956 -1.0232
   45MOL   H105 6353   6.836   3.319   5.218 -1.2594 -0.0049 -0.6113
   45MOL   H106 6354   6.915   3.464   5.259  1.2223 -0.7671 -2.9857
   45MOL   C107 6355   6.810   3.478   5.013 -0.2267  0.5648  0.7037
   45MOL   C108 6356   6.743   3.568   4.911 -0.3671  0.7689 -0.1047
   45MOL   O109 6357   6.777   3.701   4.952 -0.2229 -0.3560  0.2425
   45MOL   H110 6358   6.914   3.512   5.016 -0.0544 -0.1148  4.0438
   45MOL   H111 6359   6.804   3.376   4.974 -1.5096  0.4064  1.3198
   45MOL   H112 6360   6.636   3.557   4.926  0.0693 -0.4660  2.4490
   45MOL   H113 6361   6.785   3.536   4.816 -0.5866  0.3532 -0.0633
   45MOL   C114 6362   6.761   3.800   4.858 -0.0751 -0.2078  0.2537
   45MOL   C115 6363   6.614   3.837   4.835  0.4422  0.4007  0.1221
   45MOL   O116 6364   6.562   3.749   4.738  0.5181 -0.3706  0.2734
   45MOL   H117 6365   6.801   3.887   4.910  1.3113  0.6568 -2.2025
   45MOL   H118 6366   6.825   3.797   4.770 -1.0117  0.2318 -0.4565
   45MOL   H119 6367   6.601   3.937   4.794  0.6187  0.0678 -0.7597
   45MOL   H120 6368   6.561   3.821   4.929  1.2037  0.5609  0.5816
   45MOL   C121 6369   6.431   3.776   4.694  0.2237 -0.2545 -0.2470
   45MOL   C122 6370   6.375   3.653   4.618 -0.3426 -0.0305 -0.4181
   45MOL   O123 6371   6.419   3.629   4.483  0.0636 -0.2791  0.0679
   45MOL   H124 6372   6.364   3.789   4.779  1.8373 -2.6993  1.4564
   45MOL   H125 6373   6.433   3.863   4.629  3.6271 -0.6842 -0.8133
   45MOL   H126 6374   6.267   3.667   4.608 -0.1440  0.3908 -2.0413
   45MOL   H127 6375   6.386   3.562   4.677 -0.5250 -1.0705 -1.9668
   45MOL   C128 6376   6.556   3.580   4.474  0.2825  0.3761 -0.1821
   45MOL   C129 6377   6.577   3.578   4.324 -0.4351  0.1745  0.1750
   45MOL   O130 6378   6.716   3.582   4.300 -0.1490  0.0148 -0.4774
   45MOL   H131 6379   6.630   3.641   4.526  0.0794 -2.0722  3.1686
   45MOL   H132 6380   6.568   3.482   4.520  1.5529 -0.3445 -1.9705
   45MOL   H133 6381   6.539   3.672   4.283 -0.5407  0.4862  0.9742
   45MOL   H134 6382   6.517   3.505   4.268 -0.1950  0.6081 -0.6578
   45MOL   C135 6383   6.759   3.601   4.167 -0.0914 -0.0672 -0.6642
   45MOL   C136 6384   6.765   3.753   4.124 -0.2102  0.4777 -0.6140
   45MOL   O137 6385   6.870   3.817   4.194  0.1702  0.7913 -0.4501
   45MOL   H138 6386   6.851   3.547   4.147 -0.2935 -0.5691 -0.2554
   45MOL   H139 6387   6.687   3.554   4.099 -0.6759 -0.9517  0.5294
   45MOL   H140 6388   6.668   3.802   4.132  0.0032  1.0619 -1.4961
   45MOL   H141 6389   6.772   3.767   4.016 -0.0883  0.5511 -0.5969
   45MOL   H142 6390   6.827   3.828   4.278 -0.6827  1.7726 -1.0164
   46MOL     C1 6391   0.599   1.557   2.776 -0.6671  0.1339  0.1755
   46MOL     C2 6392   0.479   1.573   2.871 -0.1584 -0.2121 -0.0760
   46MOL     O3 6393   0.518   1.660   2.975 -0.0653 -0.3412 -0.2158
   46MOL     H4 6394   0.652   1.649   2.753 -0.3116 -0.4642 -1.4322
   46MOL     H5 6395   0.572   1.509   2.682 -0.1586  1.7934 -0.8489
   46MOL     H6 6396   0.458   1.475   2.913 -1.4413  1.0530  2.4366
   46MOL     H7 6397   0.405   1.623   2.808 -0.4142 -0.0775  0.3214
   46MOL     H8 6398   0.673   1.492   2.823 -1.2662 -0.3622  0.4373
   46MOL     C9 6399   0.406   1.682   3.061  0.2421  1.0625  0.1000
   46MOL    C10 6400   0.451   1.754   3.185 -0.1191  0.0671  0.0720
   46MOL    O11 6401   0.524   1.668   3.266  0.0086 -0.1793 -0.3116
   46MOL    H12 6402   0.338   1.749   3.009  1.9077  2.8146  0.0941
   46MOL    H13 6403   0.357   1.589   3.088 -0.6774  1.4984 -0.0721
   46MOL    H14 6404   0.363   1.784   3.243 -0.7491  2.3113 -1.9727
   46MOL    H15 6405   0.504   1.845   3.158 -0.0578  0.0907  0.2772
   46MOL    C16 6406   0.559   1.713   3.397 -0.1749 -0.0230 -0.1253
   46MOL    C17 6407   0.442   1.699   3.494 -0.0749 -0.3938  0.5073
   46MOL    O18 6408   0.390   1.566   3.505 -0.4438 -0.5993 -0.2895
   46MOL    H19 6409   0.638   1.651   3.441  0.2576  1.0469  0.6263
   46MOL    H20 6410   0.597   1.815   3.387 -0.4280  0.0639 -0.1994
   46MOL    H21 6411   0.366   1.768   3.458  0.3757 -0.5058 -0.6796
   46MOL    H22 6412   0.476   1.737   3.590 -1.2157  0.1629  0.6870
   46MOL    C23 6413   0.283   1.550   3.586 -0.1120 -0.3893  0.9785
   46MOL    C24 6414   0.236   1.399   3.600  0.3628 -0.3965 -0.1837
   46MOL    O25 6415   0.348   1.321   3.659 -0.2284 -0.2636 -0.2244
   46MOL    H26 6416   0.301   1.594   3.684  1.2150  1.8630 -0.2287
   46MOL    H27 6417   0.195   1.611   3.566 -0.3610 -0.4664  1.8412
   46MOL    H28 6418   0.216   1.358   3.501  0.5467 -0.9583  0.0095
   46MOL    H29 6419   0.150   1.385   3.666 -1.1299  2.4122 -1.4371
   46MOL    C30 6420   0.303   1.194   3.661 -0.7483  0.4062 -0.1445
   46MOL    C31 6421   0.406   1.100   3.721 -0.4073 -0.0810 -0.1042
   46MOL    O32 6422   0.407   1.093   3.864  0.6208 -0.1984 -0.0677
   46MOL    H33 6423   0.212   1.178   3.720 -1.2162  1.3926 -0.5860
   46MOL    H34 6424   0.291   1.167   3.556 -0.0851  0.7983 -0.3244
   46MOL    H35 6425   0.503   1.122   3.676 -0.0762 -1.4467 -0.0837
   46MOL    H36 6426   0.380   0.999   3.688 -0.1682 -0.4149  0.6918
   46MOL    C37 6427   0.516   1.135   3.937  0.1203 -0.1801 -0.4123
   46MOL    C38 6428   0.573   1.278   3.911  0.7975 -0.7551 -0.3710
   46MOL    O39 6429   0.663   1.275   3.805  0.1037  0.9842  0.6208
   46MOL    H40 6430   0.468   1.138   4.035 -1.2654 -0.7896 -1.0536
   46MOL    H41 6431   0.595   1.060   3.931  0.1265 -0.3081  1.1024
   46MOL    H42 6432   0.629   1.307   3.999 -2.2063  1.4403  0.9166
   46MOL    H43 6433   0.491   1.350   3.919 -0.9491 -2.6349 -1.0450
   46MOL    C44 6434   0.704   1.405   3.758 -0.2316 -0.3984 -0.5191
   46MOL    C45 6435   0.797   1.386   3.639  0.1637  0.2927  0.3598
   46MOL    O46 6436   0.723   1.409   3.519  0.2883 -0.7801 -0.3283
   46MOL    H47 6437   0.621   1.468   3.726 -0.5120  0.3549  1.6063
   46MOL    H48 6438   0.753   1.451   3.844 -1.3995  2.0884 -1.1476
   46MOL    H49 6439   0.849   1.290   3.639  2.4648  1.4095 -3.5217
   46MOL    H50 6440   0.870   1.466   3.644  0.0833  0.2777  1.8994
   46MOL    C51 6441   0.628   1.301   3.499  0.2216 -0.8410  0.7777
   46MOL    C52 6442   0.560   1.310   3.359  0.2802  0.1958 -0.1445
   46MOL    O53 6443   0.642   1.274   3.252  0.1608  0.5379  0.1483
   46MOL    H54 6444   0.667   1.200   3.507 -0.8208 -1.6773 -3.2593
   46MOL    H55 6445   0.552   1.314   3.575  1.6544  1.4390  1.8883
   46MOL    H56 6446   0.522   1.409   3.335  1.9130  0.9495  0.3064
   46MOL    H57 6447   0.467   1.255   3.376  0.9329 -1.2521 -1.1894
   46MOL    C58 6448   0.578   1.284   3.123 -0.4163  0.1931 -0.4145
   46MOL    C59 6449   0.695   1.256   3.024  0.3526  0.3473  0.3486
   46MOL    O60 6450   0.661   1.267   2.884 -0.2716 -0.7252  0.1060
   46MOL    H61 6451   0.497   1.214   3.101 -0.5557  0.5026 -0.8899
   46MOL    H62 6452   0.545   1.388   3.118 -1.9684 -0.3724 -2.5740
   46MOL    H63 6453   0.733   1.157   3.048 -0.5486  0.0812  0.6792
   46MOL    H64 6454   0.777   1.328   3.036  0.3300  0.4588 -0.1275
   46MOL    C65 6455   0.748   1.193   2.811 -0.2884  0.2250  0.4332
   46MOL    C66 6456   0.733   1.223   2.667  0.3484 -0.2546 -0.0968
   46MOL    O67 6457   0.661   1.120   2.601 -0.6932  0.1249 -0.4061
   46MOL    H68 6458   0.850   1.222   2.835 -0.5822  0.4602  1.4174
   46MOL    H69 6459   0.733   1.090   2.843  2.5888 -0.5718 -0.6771
   46MOL    H70 6460   0.831   1.221   2.621 -0.3759  0.3832 -1.7205
   46MOL    H71 6461   0.695   1.323   2.645  1.7754 -0.1495 -2.1933
   46MOL    C72 6462   0.670   1.125   2.462 -0.5005 -0.2964 -0.1745
   46MOL    C73 6463   0.572   1.020   2.425 -1.0209  0.6786  0.1535
   46MOL    O74 6464   0.604   0.984   2.289  0.7200 -0.4146  0.3188
   46MOL    H75 6465   0.652   1.222   2.415  0.3930 -0.6496 -1.2609
   46MOL    H76 6466   0.773   1.106   2.432  0.0392  0.7013  0.9969
   46MOL    H77 6467   0.467   1.049   2.430 -1.5797 -1.0962 -0.7682
   46MOL    H78 6468   0.586   0.930   2.485  0.7799 -0.6214 -2.1141
   46MOL    C79 6469   0.523   0.886   2.227  0.8645  0.1372 -0.2800
   46MOL    C80 6470   0.594   0.837   2.098  0.2068 -0.0511  0.3106
   46MOL    O81 6471   0.656   0.710   2.122  0.3677 -0.3670  0.1019
   46MOL    H82 6472   0.498   0.814   2.305 -0.2486 -1.3580 -1.9836
   46MOL    H83 6473   0.427   0.938   2.214  0.9536  0.8002  1.5143
   46MOL    H84 6474   0.665   0.905   2.050  1.9847 -1.3820  0.9903
   46MOL    H85 6475   0.529   0.824   2.012  2.1884  0.5603 -1.3309
   46MOL    C86 6476   0.715   0.647   2.007 -0.5346  0.4433  0.2667
   46MOL    C87 6477   0.764   0.510   2.044 -0.2231 -0.3578  0.1205
   46MOL    O88 6478   0.654   0.430   2.088  0.2353  0.2639  0.0673
   46MOL    H89 6479   0.643   0.646   1.925  0.5687 -0.3870 -0.7065
   46MOL    H90 6480   0.803   0.702   1.973 -0.1875  0.0301  0.4860
   46MOL    H91 6481   0.834   0.502   2.127  1.3099  1.1924 -1.0119
   46MOL    H92 6482   0.800   0.467   1.950 -1.6816  5.3093 -3.2874
   46MOL    C93 6483   0.696   0.295   2.116  0.0116  0.3512 -0.2224
   46MOL    C94 6484   0.572   0.203   2.142 -0.2700 -0.3091  0.0288
   46MOL    O95 6485   0.623   0.068   2.167 -0.4173 -0.8165  0.2497
   46MOL    H96 6486   0.755   0.265   2.029 -3.4988  1.1202 -3.0156
   46MOL    H97 6487   0.753   0.296   2.208  0.2200  1.9280 -0.3568
   46MOL    H98 6488   0.516   0.189   2.050  0.3044  0.2402 -0.4041
   46MOL    H99 6489   0.520   0.241   2.230 -0.1976 -0.2344  0.0388
   46MOL   C100 6490   0.522   7.734   2.144 -0.4973 -0.1639 -0.4347
   46MOL   C101 6491   0.504   7.706   1.990  0.1025 -0.0914  0.3327
   46MOL   O102 6492   0.611   7.622   1.961  0.4745  0.6915  0.2617
   46MOL   H103 6493   0.559   7.642   2.190 -0.4370 -1.1936 -2.4914
   46MOL   H104 6494   0.432   0.005   2.189 -0.5061 -0.4676 -0.1664
   46MOL   H105 6495   0.485   0.023   1.929 -1.3629  0.5434  1.6716
   46MOL   H106 6496   0.410   7.652   1.978 -1.0368  2.1207 -0.8191
   46MOL   C107 6497   0.603   7.591   1.824  0.0860  0.0623 -0.2284
   46MOL   C108 6498   0.722   7.487   1.795  0.3826  0.0305  0.0501
   46MOL   O109 6499   0.717   7.457   1.660 -0.2135  0.5312 -0.0038
   46MOL   H110 6500   0.505   7.548   1.807 -0.3022  0.4754  0.9717
   46MOL   H111 6501   0.621   7.683   1.767 -0.1346 -0.3524 -0.9755
   46MOL   H112 6502   0.716   7.402   1.863 -1.4542  0.5413  0.5632
   46MOL   H113 6503   0.817   7.535   1.815 -0.0826  0.6572  0.7831
   46MOL   C114 6504   0.813   7.357   1.623  0.4552  0.6295  0.5640
   46MOL   C115 6505   0.847   7.377   1.472  0.5450 -0.0130 -0.2437
   46MOL   O116 6506   0.752   7.331   1.376 -0.9372 -0.5835 -1.1976
   46MOL   H117 6507   0.899   7.366   1.690  0.9843  0.2778 -0.0545
   46MOL   H118 6508   0.782   7.255   1.647  0.1827  0.3578 -0.8980
   46MOL   H119 6509   0.935   7.316   1.453  0.8563  0.1114  0.7688
   46MOL   H120 6510   0.868   7.482   1.454 -0.4067  0.3741  0.8646
   46MOL   C121 6511   0.801   7.339   1.246 -0.0820  0.3828 -0.3377
   46MOL   C122 6512   0.698   7.294   1.135 -0.0617 -0.0968 -0.3061
   46MOL   O123 6513   0.753   7.169   1.095 -0.2996 -0.0522  0.0160
   46MOL   H124 6514   0.813   7.447   1.230 -1.6759  0.3971 -1.5319
   46MOL   H125 6515   0.902   7.303   1.228 -0.5062 -0.9220 -0.1144
   46MOL   H126 6516   0.691   7.362   1.050  2.0854 -0.0011 -0.4425
   46MOL   H127 6517   0.599   7.279   1.177  0.4714 -1.0773  0.6403
   46MOL   C128 6518   0.713   7.126   0.964  0.4531  0.2753 -0.3388
   46MOL   C129 6519   0.717   6.974   0.941 -0.5415  0.0503  0.2663
   46MOL   O130 6520   0.602   6.913   0.998  0.1680 -0.2530 -0.4971
   46MOL   H131 6521   0.612   7.162   0.945  0.1490  0.3910  1.3967
   46MOL   H132 6522   0.780   7.176   0.893  1.8573  0.1949  0.9162
   46MOL   H133 6523   0.812   6.931   0.971  0.4086  1.6068 -0.4319
   46MOL   H134 6524   0.712   6.953   0.834  0.4615 -1.4606  0.4963
   46MOL   C135 6525   0.619   6.776   1.009  1.7179  0.2833 -0.0258
   46MOL   C136 6526   0.487   6.725   1.072  0.5786  1.1363 -0.3141
   46MOL   O137 6527   0.442   6.602   1.019  0.3596 -0.1602  0.0294
   46MOL   H138 6528   0.633   6.736   0.909 -0.1220 -1.4690  0.3886
   46MOL   H139 6529   0.704   6.753   1.074 -0.0219  0.0560  2.2173
   46MOL   H140 6530   0.400   6.789   1.057  0.7693  1.2809 -0.8072
   46MOL   H141 6531   0.492   6.709   1.180  1.7438  0.6692 -0.4350
   46MOL   H142 6532   0.354   6.602   0.983 -0.1243 -1.7003  1.2060
   47MOL     C1 6533   5.542   2.321   4.305 -0.1023 -0.4210 -0.4155
   47MOL     C2 6534   5.625   2.198   4.250  0.5739 -0.1434  0.1315
   47MOL     O3 6535   5.639   2.232   4.116 -0.4120  0.3635 -0.1582
   47MOL     H4 6536   5.520   2.312   4.411  2.2860 -0.8455  0.0730
   47MOL     H5 6537   5.440   2.322   4.266 -0.9684  0.4691  1.7890
   47MOL     H6 6538   5.581   2.102   4.278  0.2842  0.3548  1.4505
   47MOL     H7 6539   5.727   2.189   4.288  0.5417 -0.5041  0.1349
   47MOL     H8 6540   5.594   2.416   4.288 -1.9611  0.3039 -2.2941
   47MOL     C9 6541   5.702   2.137   4.037 -0.2840  0.0081 -0.2113
   47MOL    C10 6542   5.723   2.192   3.895  0.0687 -0.2180  0.4252
   47MOL    O11 6543   5.603   2.199   3.823 -0.3217 -0.3215  0.1917
   47MOL    H12 6544   5.796   2.105   4.082 -0.0516  1.6325  0.4904
   47MOL    H13 6545   5.631   2.055   4.045  0.2479 -0.2622  2.1275
   47MOL    H14 6546   5.796   2.135   3.838  0.3474  0.1189  0.4366
   47MOL    H15 6547   5.750   2.297   3.910 -0.6065 -0.0427  0.3973
   47MOL    C16 6548   5.613   2.283   3.702 -0.3535 -0.4852 -0.2034
   47MOL    C17 6549   5.483   2.291   3.622  0.2672  0.3810  0.8092
   47MOL    O18 6550   5.502   2.399   3.532 -0.9402  0.2304  0.8897
   47MOL    H19 6551   5.638   2.384   3.735  0.5809 -0.2330 -1.6434
   47MOL    H20 6552   5.693   2.252   3.634 -1.5665  0.7023 -2.2285
   47MOL    H21 6553   5.395   2.299   3.686 -1.0636 -0.6018 -0.8323
   47MOL    H22 6554   5.456   2.197   3.574 -0.8217  0.6676  0.8341
   47MOL    C23 6555   5.459   2.380   3.397  0.5390  0.4267  0.5577
   47MOL    C24 6556   5.553   2.296   3.311  0.4303  0.5108  0.3805
   47MOL    O25 6557   5.498   2.170   3.295 -0.4120  0.3193 -0.2604
   47MOL    H26 6558   5.362   2.331   3.403  0.9292 -0.6993 -1.9837
   47MOL    H27 6559   5.432   2.478   3.358 -1.7293 -0.1135  0.6954
   47MOL    H28 6560   5.652   2.291   3.356 -0.2263 -1.3174  1.7003
   47MOL    H29 6561   5.542   2.348   3.216  3.3562 -0.2244 -0.3930
   47MOL    C30 6562   5.565   2.085   3.204 -0.6219  0.1272 -0.2999
   47MOL    C31 6563   5.469   1.984   3.148  0.0438 -0.4445  0.3853
   47MOL    O32 6564   5.453   1.877   3.243 -0.1841 -0.1492  0.1353
   47MOL    H33 6565   5.601   2.149   3.123  2.0678  0.4383  1.1042
   47MOL    H34 6566   5.649   2.041   3.257 -0.6492 -0.6233 -0.8658
   47MOL    H35 6567   5.524   1.946   3.062 -1.3411 -0.8926 -0.3159
   47MOL    H36 6568   5.375   2.027   3.114  1.3897  0.9473 -1.7111
   47MOL    C37 6569   5.333   1.883   3.322 -0.4505  0.6948 -0.7651
   47MOL    C38 6570   5.322   1.766   3.429 -0.3565  0.5451 -0.3367
   47MOL    O39 6571   5.408   1.790   3.539 -0.2501  0.5302  0.1226
   47MOL    H40 6572   5.332   1.973   3.384  0.3345 -1.2405  2.1476
   47MOL    H41 6573   5.240   1.896   3.267 -1.1839 -1.8701 -0.1707
   47MOL    H42 6574   5.345   1.668   3.389 -2.4093 -1.0759  2.2983
   47MOL    H43 6575   5.219   1.757   3.462  0.5759 -0.6097  2.3703
   47MOL    C44 6576   5.365   1.893   3.630  0.5063  0.0976 -0.1174
   47MOL    C45 6577   5.466   1.897   3.743 -0.0631  0.4060  0.0767
   47MOL    O46 6578   5.447   1.780   3.828  0.1569  0.0332 -0.2587
   47MOL    H47 6579   5.372   1.989   3.578 -0.0115 -0.7444 -1.7900
   47MOL    H48 6580   5.266   1.874   3.671  1.9237 -3.7649  1.7467
   47MOL    H49 6581   5.449   1.987   3.802  1.9867 -0.4238  2.0478
   47MOL    H50 6582   5.568   1.915   3.707 -0.2687 -0.2708 -0.8440
   47MOL    C51 6583   5.554   1.772   3.922  0.3879  0.0743 -0.1485
   47MOL    C52 6584   5.521   1.657   4.019  0.2302  0.2169 -1.0221
   47MOL    O53 6585   5.448   1.704   4.142  0.2737 -0.1618 -0.6963
   47MOL    H54 6586   5.645   1.756   3.863 -0.3221  1.7504 -1.7762
   47MOL    H55 6587   5.577   1.864   3.976  1.0319  0.8738 -1.7283
   47MOL    H56 6588   5.613   1.605   4.045 -0.1388  0.0523 -0.0239
   47MOL    H57 6589   5.476   1.580   3.957 -1.0779 -0.5383  0.8205
   47MOL    C58 6590   5.322   1.753   4.105  0.8043 -0.4439  0.3004
   47MOL    C59 6591   5.226   1.777   4.226 -0.2325  0.0200  0.1623
   47MOL    O60 6592   5.203   1.653   4.280  0.7866  0.5245  0.4364
   47MOL    H61 6593   5.326   1.847   4.050  4.0843 -0.4816  0.4209
   47MOL    H62 6594   5.266   1.679   4.048  0.3676  1.1442 -1.3834
   47MOL    H63 6595   5.135   1.830   4.200 -0.1995 -0.4058 -0.8260
   47MOL    H64 6596   5.274   1.845   4.297  0.8823  0.3596 -0.8828
   47MOL    C65 6597   5.119   1.654   4.386  0.0817 -0.7759  0.5381
   47MOL    C66 6598   5.092   1.513   4.438 -1.0415  0.1944  0.1750
   47MOL    O67 6599   5.213   1.469   4.503  0.2421  0.0271 -0.3884
   47MOL    H68 6600   5.159   1.723   4.460 -0.4822  0.2720 -0.1207
   47MOL    H69 6601   5.020   1.691   4.357  0.8799  0.4893 -0.6251
   47MOL    H70 6602   5.060   1.445   4.359  0.2472 -0.3908  0.1523
   47MOL    H71 6603   5.010   1.511   4.511 -0.9241 -2.4236  0.2766
   47MOL    C72 6604   5.208   1.360   4.592  0.0336 -0.5144 -0.0388
   47MOL    C73 6605   5.286   1.392   4.712  0.5052  0.1962  0.3408
   47MOL    O74 6606   5.425   1.387   4.679  0.0719 -0.3231 -0.2294
   47MOL    H75 6607   5.103   1.340   4.611  0.2610 -0.1043  1.7004
   47MOL    H76 6608   5.237   1.263   4.550 -1.4677 -1.2924  0.6914
   47MOL    H77 6609   5.261   1.334   4.801  0.6071  1.2945  1.0892
   47MOL    H78 6610   5.255   1.493   4.739 -1.8957  0.2771 -2.4583
   47MOL    C79 6611   5.506   1.423   4.789 -0.3224  0.5312 -0.5410
   47MOL    C80 6612   5.661   1.415   4.753 -0.4838 -0.3895 -0.1419
   47MOL    O81 6613   5.696   1.280   4.727  0.2829 -0.3551 -0.1879
   47MOL    H82 6614   5.489   1.529   4.804 -2.4642  0.0351  0.8350
   47MOL    H83 6615   5.469   1.365   4.874  0.0515  0.4848 -0.4081
   47MOL    H84 6616   5.735   1.441   4.829  0.2791  0.6622 -1.2202
   47MOL    H85 6617   5.683   1.482   4.669 -1.0298  0.3264  0.2725
   47MOL    C86 6618   5.796   1.241   4.635 -0.0715  0.3136  0.8064
   47MOL    C87 6619   5.931   1.239   4.699  0.6595 -0.9181  0.3551
   47MOL    O88 6620   5.972   1.371   4.739  0.1691 -0.4859  0.0535
   47MOL    H89 6621   5.763   1.148   4.589 -1.2754  0.0345  2.2029
   47MOL    H90 6622   5.792   1.312   4.552 -1.7985 -1.7003 -0.9102
   47MOL    H91 6623   6.005   1.215   4.623 -0.7456 -0.1988 -1.2954
   47MOL    H92 6624   5.934   1.170   4.783 -1.5997  0.7273  1.8771
   47MOL    C93 6625   6.070   1.370   4.835 -0.0423 -0.3970 -0.6962
   47MOL    C94 6626   6.008   1.357   4.980  0.0672  0.0790  0.1445
   47MOL    O95 6627   5.951   1.227   5.006 -0.7356 -0.0524 -0.3750
   47MOL    H96 6628   6.147   1.297   4.809 -1.6340 -2.1887 -0.4084
   47MOL    H97 6629   6.121   1.466   4.831 -0.3506 -0.2239 -0.4155
   47MOL    H98 6630   5.925   1.426   4.993 -3.1148 -2.4919 -4.8631
   47MOL    H99 6631   6.076   1.392   5.057  1.3969  1.8602 -1.7901
   47MOL   C100 6632   5.874   1.231   5.127  0.4738  0.4041 -0.4502
   47MOL   C101 6633   5.865   1.086   5.194  0.0150 -0.6518 -0.1024
   47MOL   O102 6634   5.744   1.083   5.267 -0.1571 -0.7104 -0.3548
   47MOL   H103 6635   5.904   1.315   5.189  0.8245 -0.0347 -0.0251
   47MOL   H104 6636   5.772   1.262   5.104  0.1087  1.1389  2.0792
   47MOL   H105 6637   5.947   1.065   5.261  0.7304  0.5881 -0.5720
   47MOL   H106 6638   5.868   1.006   5.119 -0.4120  0.6939 -1.5916
   47MOL   C107 6639   5.735   0.976   5.362  0.1028 -0.7117 -0.6159
   47MOL   C108 6640   5.785   1.020   5.504  0.0812  0.1424  0.2503
   47MOL   O109 6641   5.920   1.058   5.515  0.0891  0.1685  0.1572
   47MOL   H110 6642   5.626   0.970   5.370 -0.0231  0.0059 -1.6793
   47MOL   H111 6643   5.788   0.888   5.326  0.0491 -0.6406 -0.8701
   47MOL   H112 6644   5.757   0.942   5.575 -1.2570 -1.7713 -2.2793
   47MOL   H113 6645   5.720   1.105   5.522 -1.6938 -0.8056 -1.4680
   47MOL   C114 6646   5.962   1.090   5.647  0.4126 -0.1118  0.1405
   47MOL   C115 6647   5.923   1.229   5.700 -0.6528  0.4838 -0.0111
   47MOL   O116 6648   5.980   1.336   5.630 -0.3382  0.0311 -0.2544
   47MOL   H117 6649   5.918   1.015   5.713  2.9212 -1.1092  0.7162
   47MOL   H118 6650   6.069   1.075   5.650  0.5429  0.9430  1.2953
   47MOL   H119 6651   5.943   1.242   5.806 -2.5264 -1.1654  0.5823
   47MOL   H120 6652   5.815   1.244   5.693 -0.7804 -0.2269  0.3301
   47MOL   C121 6653   5.943   1.339   5.494  0.6600  0.5148 -1.0024
   47MOL   C122 6654   5.988   1.471   5.438 -0.3522  0.0063 -0.0381
   47MOL   O123 6655   6.116   1.467   5.384  0.2482  0.2658 -0.6092
   47MOL   H124 6656   5.995   1.267   5.431 -0.5429  0.2920 -1.7344
   47MOL   H125 6657   5.837   1.322   5.475  0.0961  0.0998  2.2695
   47MOL   H126 6658   5.976   1.551   5.511  0.7272  0.9554 -0.8749
   47MOL   H127 6659   5.916   1.494   5.359 -0.6853 -0.6838  0.0684
   47MOL   C128 6660   6.155   1.585   5.302  0.0892 -0.1436 -0.1850
   47MOL   C129 6661   6.300   1.574   5.233  0.0955  0.5524 -0.1054
   47MOL   O130 6662   6.283   1.605   5.096 -0.5916  0.6259 -0.1403
   47MOL   H131 6663   6.082   1.602   5.222  1.0363  0.5481 -0.9219
   47MOL   H132 6664   6.129   1.672   5.361  1.6859  0.2910 -0.0897
   47MOL   H133 6665   6.349   1.477   5.241 -0.7533  0.1511  0.2596
   47MOL   H134 6666   6.370   1.644   5.279  0.7464 -0.1751  0.0069
   47MOL   C135 6667   6.413   1.582   5.034 -0.1984 -0.1451 -0.4096
   47MOL   C136 6668   6.407   1.574   4.885 -0.0378  0.3155  0.3774
   47MOL   O137 6669   6.424   1.702   4.834 -0.3998 -0.5468  0.4005
   47MOL   H138 6670   6.481   1.660   5.067  0.8901 -0.5122 -1.7440
   47MOL   H139 6671   6.463   1.491   5.070  0.9416  1.6116  2.6144
   47MOL   H140 6672   6.314   1.536   4.842 -0.8260  0.9403  1.5244
   47MOL   H141 6673   6.481   1.503   4.847 -0.4072  0.1552 -0.0488
   47MOL   H142 6674   6.370   1.755   4.891  4.0784  0.8408  3.6251
   48MOL     C1 6675   5.327   0.562   6.973  0.7149  0.7224 -0.2635
   48MOL     C2 6676   5.176   0.526   6.935  0.4701 -0.3073 -0.7302
   48MOL     O3 6677   5.130   0.440   7.041 -0.0820 -0.5843  0.0670
   48MOL     H4 6678   5.367   0.650   6.925  4.7819 -1.1247 -0.4809
   48MOL     H5 6679   5.390   0.475   6.953  0.2779  0.0153  1.3122
   48MOL     H6 6680   5.188   0.474   6.840  0.9229 -1.1592 -0.2140
   48MOL     H7 6681   5.112   0.614   6.942  0.7702 -0.2747  2.7465
   48MOL     H8 6682   5.332   0.577   7.081 -1.2436  0.2837 -0.0849
   48MOL     C9 6683   5.014   0.370   7.005 -0.1955 -0.2998  0.3933
   48MOL    C10 6684   5.015   0.224   7.063 -0.4168 -0.1198 -0.7385
   48MOL    O11 6685   5.108   0.149   6.987  0.8127  0.0864 -0.4458
   48MOL    H12 6686   4.929   0.433   7.030  2.0401  3.4309 -1.0433
   48MOL    H13 6687   5.002   0.367   6.897 -1.4993 -0.0780  0.5271
   48MOL    H14 6688   4.912   0.188   7.070 -0.8451  1.0446 -0.9547
   48MOL    H15 6689   5.046   0.241   7.166 -0.1316 -0.2981 -0.7955
   48MOL    C16 6690   5.075   0.014   6.988  0.5142 -0.5527 -0.3751
   48MOL    C17 6691   5.202   7.717   6.942  0.9680  0.5207  0.2930
   48MOL    O18 6692   5.217   7.745   6.800 -0.1821 -0.4080 -0.1793
   48MOL    H19 6693   5.038   7.752   7.085  1.1678  0.6694  0.3048
   48MOL    H20 6694   4.990   7.759   6.925 -0.7766  1.8656  0.2835
   48MOL    H21 6695   5.183   7.611   6.956  1.0213  0.7592  2.4160
   48MOL    H22 6696   5.286   7.735   7.009  1.1191 -0.0715  0.2646
   48MOL    C23 6697   5.336   7.675   6.749 -0.5247  0.3964  0.6886
   48MOL    C24 6698   5.353   7.710   6.599 -0.3658 -0.2976 -0.0673
   48MOL    O25 6699   5.404   0.068   6.593  0.0799  0.1602  0.1478
   48MOL    H26 6700   5.423   7.720   6.797 -1.3162  1.7268  0.8991
   48MOL    H27 6701   5.335   7.567   6.768  2.7118  0.5134  1.7727
   48MOL    H28 6702   5.259   7.699   6.545 -0.1282 -1.4522 -0.2595
   48MOL    H29 6703   5.423   7.639   6.556 -0.3856  0.3749 -1.2480
   48MOL    C30 6704   5.319   0.168   6.547  0.3708 -0.1974  1.2503
   48MOL    C31 6705   5.351   0.199   6.399 -0.3114  0.0819 -0.5437
   48MOL    O32 6706   5.460   0.288   6.367 -0.6421  0.4320 -0.7756
   48MOL    H33 6707   5.213   0.141   6.557  0.3029  0.1726  1.5523
   48MOL    H34 6708   5.324   0.265   6.596 -1.7281  0.2164  0.7176
   48MOL    H35 6709   5.260   0.248   6.364 -1.4673 -1.5007  0.1519
   48MOL    H36 6710   5.364   0.105   6.346 -1.0421 -0.5609  0.3984
   48MOL    C37 6711   5.586   0.227   6.380  0.1236  0.2734  0.0580
   48MOL    C38 6712   5.690   0.343   6.366 -0.0198 -0.1218  0.2173
   48MOL    O39 6713   5.684   0.439   6.467 -0.2468  0.6623 -0.6030
   48MOL    H40 6714   5.583   0.198   6.485  1.4396 -0.9937 -0.2363
   48MOL    H41 6715   5.580   0.144   6.309 -2.2847  0.1587  0.3418
   48MOL    H42 6716   5.693   0.378   6.262 -0.8106 -0.4568  0.0794
   48MOL    H43 6717   5.792   0.305   6.373 -0.0894 -0.6770 -1.5195
   48MOL    C44 6718   5.763   0.548   6.461  0.0017  0.4612 -0.1436
   48MOL    C45 6719   5.714   0.645   6.581  0.3336  0.1471 -0.8607
   48MOL    O46 6720   5.740   0.575   6.703  0.2778 -0.1232  0.0753
   48MOL    H47 6721   5.864   0.518   6.487 -0.4131 -2.0523 -1.2959
   48MOL    H48 6722   5.753   0.596   6.364 -0.0627  1.4861  0.3678
   48MOL    H49 6723   5.610   0.675   6.572  0.5688  1.1633 -0.2062
   48MOL    H50 6724   5.775   0.734   6.569 -0.0212  0.2790 -1.7466
   48MOL    C51 6725   5.680   0.652   6.807  0.1029 -0.2124 -0.2463
   48MOL    C52 6726   5.726   0.586   6.939 -0.4369 -0.0558  0.3648
   48MOL    O53 6727   5.817   0.675   7.001 -0.3487 -0.1355  0.2383
   48MOL    H54 6728   5.694   0.760   6.803 -1.0246 -0.0396  0.1616
   48MOL    H55 6729   5.572   0.638   6.806  0.2411 -1.6356  1.5569
   48MOL    H56 6730   5.772   0.489   6.922 -0.9960 -0.2758  0.1028
   48MOL    H57 6731   5.642   0.571   7.007 -0.2074 -2.3083  0.1827
   48MOL    C58 6732   5.852   0.648   7.138 -0.5069 -0.4115 -0.9310
   48MOL    C59 6733   5.964   0.737   7.187  0.1496 -0.3995 -0.0049
   48MOL    O60 6734   5.892   0.861   7.220 -0.0816 -0.3807  0.2459
   48MOL    H61 6735   5.765   0.652   7.203  1.8164 -0.1973  2.2740
   48MOL    H62 6736   5.883   0.543   7.131 -2.0626 -1.0579  1.1331
   48MOL    H63 6737   6.046   0.747   7.116  0.1538  1.0046  0.1822
   48MOL    H64 6738   5.997   0.697   7.283 -0.0263 -1.5120 -0.4022
   48MOL    C65 6739   5.981   0.968   7.259  0.4766  0.0682 -0.2667
   48MOL    C66 6740   5.899   1.082   7.314  0.6166 -0.2375  0.3731
   48MOL    O67 6741   5.964   1.204   7.278  0.2573 -0.4783  0.3593
   48MOL    H68 6742   6.058   0.943   7.331  1.3661 -0.8934 -1.5151
   48MOL    H69 6743   6.027   1.000   7.165 -1.3262  0.5158 -1.0292
   48MOL    H70 6744   5.877   1.065   7.419 -2.5303 -1.3836 -0.4254
   48MOL    H71 6745   5.797   1.080   7.274  0.1281 -1.0667  1.6590
   48MOL    C72 6746   5.906   1.331   7.320  0.1973  0.1070 -0.4898
   48MOL    C73 6747   5.995   1.449   7.284 -0.0419 -0.2133 -0.2322
   48MOL    O74 6748   6.058   1.500   7.398  0.4095 -0.2346 -0.4388
   48MOL    H75 6749   5.808   1.346   7.275 -0.9062  1.2094  2.2569
   48MOL    H76 6750   5.896   1.332   7.428  1.2362 -2.0628 -0.3323
   48MOL    H77 6751   5.939   1.519   7.221 -0.5540  1.6029  2.1763
   48MOL    H78 6752   6.072   1.410   7.217  0.9797  0.7772  0.3555
   48MOL    C79 6753   6.074   1.640   7.390 -0.8217 -0.4569 -0.7070
   48MOL    C80 6754   6.179   1.686   7.498  0.7299 -0.0486  0.5413
   48MOL    O81 6755   6.301   1.617   7.481  0.0704 -0.8046 -0.3642
   48MOL    H82 6756   6.130   1.659   7.298  1.1321  0.0265  0.5449
   48MOL    H83 6757   5.980   1.688   7.415 -1.0139 -1.3004  0.2103
   48MOL    H84 6758   6.141   1.675   7.599 -2.0841 -1.6316 -0.6395
   48MOL    H85 6759   6.192   1.794   7.493  1.0578 -0.1029  0.1209
   48MOL    C86 6760   6.411   1.679   7.547 -0.6013 -0.4461 -0.1437
   48MOL    C87 6761   6.396   1.675   7.700 -0.1026 -0.0111 -0.1519
   48MOL    O88 6762   6.403   1.541   7.737  0.4791  0.1743  0.1846
   48MOL    H89 6763   6.503   1.631   7.513 -0.2342 -1.2740  1.9528
   48MOL    H90 6764   6.414   1.784   7.517  0.9085 -0.8435 -1.4635
   48MOL    H91 6765   6.303   1.725   7.726  0.4712  0.4874  1.0102
   48MOL    H92 6766   6.479   1.730   7.745 -0.1125 -0.7304  0.7576
   48MOL    C93 6767   6.413   1.505   0.102  0.5627  0.1386  0.0845
   48MOL    C94 6768   6.401   1.355   0.110  0.4189 -0.4444 -0.4049
   48MOL    O95 6769   6.372   1.311   0.241  0.0339 -0.3446  0.0350
   48MOL    H96 6770   6.501   1.544   0.154 -0.1010  1.2128  0.4049
   48MOL    H97 6771   6.330   1.543   0.161  0.6964 -1.9698  1.7195
   48MOL    H98 6772   6.490   1.303   0.073 -0.0535 -1.4050 -0.2011
   48MOL    H99 6773   6.320   1.322   0.045 -1.2769  2.5040  0.1347
   48MOL   C100 6774   6.358   1.165   0.242 -0.3780 -0.6794  0.3341
   48MOL   C101 6775   6.314   1.120   0.387  0.6935 -0.4454  0.0951
   48MOL   O102 6776   6.421   1.146   0.470 -0.3778  0.0247 -0.2184
   48MOL   H103 6777   6.269   1.148   0.182 -0.4603  1.4338 -0.1795
   48MOL   H104 6778   6.446   1.114   0.201 -0.5857  0.3012 -1.3565
   48MOL   H105 6779   6.307   1.011   0.386 -0.6645 -0.3722  1.1966
   48MOL   H106 6780   6.218   1.163   0.416  0.8696 -1.4661  2.2547
   48MOL   C107 6781   6.427   1.273   0.537 -0.3760  0.3458 -0.3428
   48MOL   C108 6782   6.538   1.266   0.643 -0.2247  0.2703 -0.0262
   48MOL   O109 6783   6.475   1.214   0.763  0.5459 -0.8404  0.3060
   48MOL   H110 6784   6.451   1.356   0.469 -0.0680  1.3339  0.9509
   48MOL   H111 6785   6.336   1.304   0.588 -0.6834 -1.9600  0.5736
   48MOL   H112 6786   6.565   1.368   0.670  1.4700  0.1944 -1.3377
   48MOL   H113 6787   6.624   1.207   0.613  1.0001  1.0898  1.8151
   48MOL   C114 6788   6.559   1.187   0.866  0.1230 -0.0714  0.6702
   48MOL   C115 6789   6.659   1.073   0.830  0.1519 -0.2399  0.6571
   48MOL   O116 6790   6.782   1.127   0.795  0.6233 -0.2747 -0.1085
   48MOL   H117 6791   6.617   1.274   0.896  0.5069  0.7114 -2.2699
   48MOL   H118 6792   6.491   1.166   0.949  1.9479  0.5777  2.3763
   48MOL   H119 6793   6.620   1.000   0.760 -0.2631 -0.2079  0.8541
   48MOL   H120 6794   6.677   1.023   0.925  0.9036 -2.1843 -0.4737
   48MOL   C121 6795   6.887   1.035   0.774  0.0894 -0.1252  0.0487
   48MOL   C122 6796   7.028   1.104   0.789  0.4886  0.2501 -0.7615
   48MOL   O123 6797   7.075   1.096   0.929  0.6232 -0.0657 -0.4454
   48MOL   H124 6798   6.883   0.953   0.845 -1.5747 -0.8013 -0.7769
   48MOL   H125 6799   6.887   0.977   0.681  1.1033  0.7513 -0.5092
   48MOL   H126 6800   7.027   1.207   0.752  0.6322 -0.5272 -3.0191
   48MOL   H127 6801   7.109   1.060   0.731 -0.1765 -1.4358 -0.4360
   48MOL   C128 6802   6.998   1.175   1.025  0.2863 -0.0585 -0.2781
   48MOL   C129 6803   7.022   1.324   1.004 -0.5072 -0.5491  0.1543
   48MOL   O130 6804   6.925   1.363   0.906  0.4052 -0.3511 -0.6478
   48MOL   H131 6805   6.893   1.148   1.020  0.1240  0.8333 -1.9789
   48MOL   H132 6806   7.017   1.146   1.129 -1.4092  0.1367  0.0971
   48MOL   H133 6807   7.116   1.344   0.952 -1.1953 -1.3649 -1.4549
   48MOL   H134 6808   7.018   1.388   1.092  0.3949  1.2735 -1.0849
   48MOL   C135 6809   6.928   1.497   0.855  0.3568  0.0162  0.1299
   48MOL   C136 6810   6.808   1.511   0.760 -0.1861 -0.0012  0.0725
   48MOL   O137 6811   6.836   1.420   0.656  0.1311  0.3665  0.0634
   48MOL   H138 6812   6.903   1.556   0.944 -1.7641  0.8968 -1.0232
   48MOL   H139 6813   7.020   1.535   0.810  0.0909 -1.0775 -1.3639
   48MOL   H140 6814   6.819   1.616   0.732  1.5141 -0.5846 -1.5689
   48MOL   H141 6815   6.713   1.487   0.807 -0.1626  3.1503  1.9044
   48MOL   H142 6816   6.845   1.337   0.700 -2.4494 -0.2358 -0.4822
   49MOL     C1 6817   2.808   0.932   4.136 -0.5896  0.1831 -0.6027
   49MOL     C2 6818   2.762   0.820   4.051 -0.2948 -0.3290  0.9019
   49MOL     O3 6819   2.755   0.700   4.129 -0.0123  0.3456 -0.2242
   49MOL     H4 6820   2.800   1.025   4.080 -0.6568 -0.0158 -0.9255
   49MOL     H5 6821   2.916   0.922   4.140 -0.6783 -0.2510  1.0608
   49MOL     H6 6822   2.827   0.807   3.965 -1.0586  0.7514  0.1473
   49MOL     H7 6823   2.667   0.857   4.012 -0.7603  1.2022  3.3871
   49MOL     H8 6824   2.764   0.926   4.235 -1.2346 -0.5524 -0.9260
   49MOL     C9 6825   2.713   0.593   4.045 -0.0835  0.5332  0.4946
   49MOL    C10 6826   2.691   0.465   4.125  0.6957 -0.2565  0.0876
   49MOL    O11 6827   2.573   0.473   4.201  0.2805  0.3958 -0.1496
   49MOL    H12 6828   2.627   0.619   3.983 -0.2324  0.8224  0.8246
   49MOL    H13 6829   2.794   0.570   3.975 -0.4133  0.8368  0.0072
   49MOL    H14 6830   2.778   0.443   4.188  0.6614  0.0205  0.2336
   49MOL    H15 6831   2.683   0.378   4.060 -1.5478 -0.3666  0.4849
   49MOL    C16 6832   2.535   0.354   4.273 -0.2463 -0.5393  0.0879
   49MOL    C17 6833   2.407   0.376   4.347  0.2161  0.9307  0.0075
   49MOL    O18 6834   2.278   0.362   4.277  0.4629  0.2477  0.0793
   49MOL    H19 6835   2.519   0.273   4.202 -1.3583  0.4271 -0.7935
   49MOL    H20 6836   2.609   0.321   4.345  0.2171 -0.9502 -0.5748
   49MOL    H21 6837   2.405   0.480   4.380  2.0069  1.3777 -1.2633
   49MOL    H22 6838   2.395   0.314   4.436 -0.6860 -1.1578 -1.5363
   49MOL    C23 6839   2.270   0.401   4.134 -0.1554  1.0018  0.9560
   49MOL    C24 6840   2.152   0.323   4.066  0.6618  0.5693  0.1599
   49MOL    O25 6841   2.024   0.397   4.062  0.0696  0.5106 -0.5445
   49MOL    H26 6842   2.261   0.508   4.118 -3.6398  0.6228 -0.0249
   49MOL    H27 6843   2.361   0.371   4.082 -1.8575 -0.8424 -1.0686
   49MOL    H28 6844   2.137   0.228   4.117 -0.0384  0.7422  0.2873
   49MOL    H29 6845   2.192   0.297   3.968 -0.6804 -0.4570 -0.1295
   49MOL    C30 6846   1.915   0.329   4.006 -0.1312  0.6249 -0.6109
   49MOL    C31 6847   1.797   0.422   4.009  0.2733 -0.0186 -0.3424
   49MOL    O32 6848   1.810   0.518   3.905  0.4820  0.0476 -0.0428
   49MOL    H33 6849   1.949   0.306   3.905 -0.7463  0.5531 -0.8038
   49MOL    H34 6850   1.878   0.244   4.062 -1.7075  2.3984  1.1251
   49MOL    H35 6851   1.794   0.474   4.105  1.7896  0.7568 -0.6976
   49MOL    H36 6852   1.701   0.372   3.997  0.4013 -0.0019 -1.4644
   49MOL    C37 6853   1.724   0.629   3.918 -0.3571  0.0754 -0.8911
   49MOL    C38 6854   1.574   0.597   3.886  0.3104 -0.2398  0.0122
   49MOL    O39 6855   1.517   0.532   3.996  0.7025 -0.4015 -0.1220
   49MOL    H40 6856   1.742   0.665   4.020  0.9889  1.3999 -1.5690
   49MOL    H41 6857   1.752   0.709   3.849  1.6117 -0.3164 -0.5777
   49MOL    H42 6858   1.566   0.541   3.792 -1.5204  0.9746 -0.5829
   49MOL    H43 6859   1.516   0.688   3.871 -0.1565 -0.7887 -1.6308
   49MOL    C44 6860   1.385   0.490   3.974  0.6374  0.4602  0.5173
   49MOL    C45 6861   1.339   0.411   4.102 -0.3904 -0.2086  0.0813
   49MOL    O46 6862   1.406   0.290   4.118  0.4400 -0.1696 -0.4957
   49MOL    H47 6863   1.319   0.570   3.940 -2.0085 -1.1109  1.8083
   49MOL    H48 6864   1.381   0.417   3.894  0.0187  0.3451  0.6502
   49MOL    H49 6865   1.234   0.387   4.090 -0.2758 -0.0939 -1.2724
   49MOL    H50 6866   1.351   0.472   4.191  1.1347 -1.6815  0.9320
   49MOL    C51 6867   1.382   0.222   4.244  0.1439  0.2257  0.0535
   49MOL    C52 6868   1.409   0.075   4.207 -0.3896  0.4776  0.7209
   49MOL    O53 6869   1.532   0.063   4.140  0.0326 -0.5898  0.1803
   49MOL    H54 6870   1.447   0.263   4.321 -0.9109 -0.6079  1.4240
   49MOL    H55 6871   1.280   0.245   4.276  0.0152  0.6962 -0.7006
   49MOL    H56 6872   1.337   0.042   4.133  3.1660 -0.7803 -2.3520
   49MOL    H57 6873   1.397   0.016   4.298  0.0242 -1.1827 -0.2887
   49MOL    C58 6874   1.571   7.695   4.141 -0.2895 -0.2387  0.6727
   49MOL    C59 6875   1.658   7.667   4.257 -0.1536  0.2065  0.4930
   49MOL    O60 6876   1.590   7.647   4.383 -1.0022  0.1167 -0.0528
   49MOL    H61 6877   1.490   7.626   4.121  0.1493 -0.2107 -1.2827
   49MOL    H62 6878   1.634   7.697   4.052  2.6259  0.8956  2.6526
   49MOL    H63 6879   1.727   7.751   4.261  0.4396 -0.1989 -0.9492
   49MOL    H64 6880   1.717   7.577   4.235  1.7910  0.5592  3.9006
   49MOL    C65 6881   1.670   7.636   4.498  0.0481 -0.6331  0.1621
   49MOL    C66 6882   1.750   7.763   4.546  0.2190 -0.3391 -0.1475
   49MOL    O67 6883   1.871   0.003   4.475  0.0709  0.1093  0.0342
   49MOL    H68 6884   1.599   7.612   4.577 -0.4943  2.2268  0.5981
   49MOL    H69 6885   1.728   7.548   4.470  1.2254 -0.0146  0.6313
   49MOL    H70 6886   1.765   7.765   4.654  2.0152  0.5963 -0.3842
   49MOL    H71 6887   1.687   0.075   4.516 -1.3314 -0.5296  2.4744
   49MOL    C72 6888   1.955   0.121   4.498 -0.9824 -0.4135  0.7068
   49MOL    C73 6889   1.889   0.246   4.427  0.6002 -0.7987 -0.1128
   49MOL    O74 6890   1.768   0.296   4.486 -0.2276  0.0646  0.4338
   49MOL    H75 6891   1.976   0.136   4.604 -0.3832  1.0303  0.4038
   49MOL    H76 6892   2.052   0.110   4.450 -0.1794  1.6589  1.7742
   49MOL    H77 6893   1.871   0.227   4.321 -0.5557 -0.4613  0.0139
   49MOL    H78 6894   1.957   0.331   4.427  1.2381 -1.3020  1.2964
   49MOL    C79 6895   1.707   0.392   4.410  0.7869 -0.5969 -0.0559
   49MOL    C80 6896   1.618   0.452   4.512 -0.4391 -0.2928 -0.7227
   49MOL    O81 6897   1.528   0.555   4.468 -0.3815 -0.6224  0.2224
   49MOL    H82 6898   1.775   0.464   4.364  0.0569  0.3346  0.3192
   49MOL    H83 6899   1.658   0.348   4.324  1.0708 -1.3942  0.1863
   49MOL    H84 6900   1.673   0.488   4.599 -1.2405 -0.8829  0.0262
   49MOL    H85 6901   1.551   0.386   4.566  0.4557 -0.1897  0.5314
   49MOL    C86 6902   1.449   0.606   4.577 -0.3987 -0.5824  0.3353
   49MOL    C87 6903   1.344   0.703   4.523  0.1624  0.5748 -0.5668
   49MOL    O88 6904   1.232   0.621   4.475 -0.2933 -0.7846 -0.4488
   49MOL    H89 6905   1.417   0.531   4.649  2.5141 -1.2066  1.0135
   49MOL    H90 6906   1.514   0.676   4.629 -0.1092 -0.1576 -0.5732
   49MOL    H91 6907   1.393   0.755   4.440  0.8803  0.0961 -0.4508
   49MOL    H92 6908   1.314   0.773   4.600 -0.2496  0.7393 -0.8713
   49MOL    C93 6909   1.122   0.701   4.422 -0.3069  0.2428  0.0991
   49MOL    C94 6910   1.136   0.698   4.269  0.1302  0.1438 -0.8021
   49MOL    O95 6911   1.042   0.794   4.212 -0.0044 -0.1440  0.4277
   49MOL    H96 6912   1.028   0.655   4.453  0.1964 -1.0670 -0.2730
   49MOL    H97 6913   1.124   0.807   4.447 -3.1742  0.4545 -0.4007
   49MOL    H98 6914   1.130   0.600   4.221  0.3703  0.3536 -1.2701
   49MOL    H99 6915   1.235   0.736   4.247  0.3282  0.3461  0.4429
   49MOL   C100 6916   1.060   0.811   4.070 -0.1595  0.3949 -0.3417
   49MOL   C101 6917   0.969   0.715   3.999  0.8598 -0.6978 -0.1737
   49MOL   O102 6918   1.028   0.583   3.969 -0.6065  0.1960 -0.1575
   49MOL   H103 6919   1.029   0.911   4.039 -2.0338  0.9133  2.9716
   49MOL   H104 6920   1.165   0.796   4.045 -0.5263  1.3471 -2.5992
   49MOL   H105 6921   0.927   0.756   3.907 -1.1209  0.4601  1.1951
   49MOL   H106 6922   0.877   0.705   4.057  0.1232  0.0733 -1.1828
   49MOL   C107 6923   0.933   0.511   3.896 -0.2740 -0.3196 -0.5761
   49MOL   C108 6924   0.961   0.366   3.905 -0.0871  0.0709 -0.4525
   49MOL   O109 6925   1.056   0.325   3.801  0.4029 -0.2425  0.6568
   49MOL   H110 6926   0.836   0.525   3.942 -0.6543  0.2001 -1.5331
   49MOL   H111 6927   0.931   0.541   3.791 -2.4162 -0.8029 -0.7006
   49MOL   H112 6928   0.869   0.308   3.915  1.2413 -2.1218 -0.5851
   49MOL   H113 6929   1.004   0.358   4.005  2.3123  1.7479 -1.2971
   49MOL   C114 6930   1.098   0.191   3.820 -0.2223  0.1580 -0.0422
   49MOL   C115 6931   1.202   0.140   3.721  0.2234 -1.0265 -0.2979
   49MOL   O116 6932   1.325   0.199   3.729 -0.0007 -0.1348 -0.8079
   49MOL   H117 6933   1.140   0.178   3.920  1.4282  0.1062 -0.7153
   49MOL   H118 6934   1.014   0.123   3.820  1.4790 -2.0094  1.5919
   49MOL   H119 6935   1.165   0.169   3.623 -1.3992 -0.6313  0.4076
   49MOL   H120 6936   1.204   0.031   3.723 -0.1759 -1.0717 -1.9914
   49MOL   C121 6937   1.406   0.129   3.817 -0.5127 -0.3375  0.3836
   49MOL   C122 6938   1.540   0.196   3.817 -0.4831 -0.2608  0.4777
   49MOL   O123 6939   1.607   0.176   3.693 -0.2143  0.2376 -0.0414
   49MOL   H124 6940   1.356   0.131   3.914 -0.3602  1.7778  0.4471
   49MOL   H125 6941   1.414   0.022   3.799 -0.2863 -0.1391 -0.7323
   49MOL   H126 6942   1.602   0.145   3.890  2.0385 -0.1636 -1.4972
   49MOL   H127 6943   1.546   0.302   3.841 -1.2000 -0.4014  1.2558
   49MOL   C128 6944   1.750   0.196   3.693  0.6206 -0.2794 -0.8191
   49MOL   C129 6945   1.798   0.214   3.552 -0.6493  0.0099  0.5743
   49MOL   O130 6946   1.776   0.089   3.484 -0.3745  0.0124 -0.4915
   49MOL   H131 6947   1.793   0.276   3.754 -1.0098 -0.9678  1.2755
   49MOL   H132 6948   1.791   0.101   3.727  1.2190  0.2679 -0.0003
   49MOL   H133 6949   1.905   0.234   3.555 -0.3977 -0.2875 -3.4379
   49MOL   H134 6950   1.755   0.301   3.500 -0.1927 -0.8064 -1.2022
   49MOL   C135 6951   1.832   0.081   3.349  0.9325 -0.1757 -0.2533
   49MOL   C136 6952   1.832   7.702   3.310  0.2152 -0.4928  0.1508
   49MOL   O137 6953   1.822   7.699   3.166  0.3737 -0.3870  0.0202
   49MOL   H138 6954   1.766   0.145   3.290 -2.4007 -1.1587  2.2662
   49MOL   H139 6955   1.933   0.121   3.347  0.4754  0.9658 -0.9882
   49MOL   H140 6956   1.759   7.633   3.352 -1.0301 -0.6835 -2.2181
   49MOL   H141 6957   1.929   7.664   3.342 -0.5439 -3.2947 -0.7526
   49MOL   H142 6958   1.778   7.618   3.145  0.4918 -0.4592  0.0484
   50MOL     C1 6959   3.103   2.322   5.221 -0.3347  0.8093  0.0135
   50MOL     C2 6960   3.050   2.316   5.075 -0.6175 -0.4561 -0.0418
   50MOL     O3 6961   3.083   2.444   5.026  0.2733 -0.5144 -0.5771
   50MOL     H4 6962   3.208   2.351   5.226 -0.2313  0.3751  0.4343
   50MOL     H5 6963   3.073   2.238   5.284 -1.0911  0.8062 -0.3528
   50MOL     H6 6964   2.941   2.311   5.080 -0.6253 -0.4577 -0.1960
   50MOL     H7 6965   3.079   2.227   5.019  0.3805  0.8898 -1.7517
   50MOL     H8 6966   3.062   2.411   5.269  0.6768  1.5840 -0.5251
   50MOL     C9 6967   3.011   2.474   4.899  0.5196  0.5779 -0.7935
   50MOL    C10 6968   3.081   2.601   4.842 -0.1374 -0.0403 -0.8953
   50MOL    O11 6969   3.157   2.567   4.730 -0.6989  0.4763  0.2313
   50MOL    H12 6970   3.007   2.388   4.832  2.8686 -1.4776  1.6269
   50MOL    H13 6971   2.907   2.491   4.927  0.0698 -0.8263 -1.5768
   50MOL    H14 6972   3.141   2.656   4.915 -1.3455 -1.0959  0.9293
   50MOL    H15 6973   3.018   2.670   4.786  1.0190  1.0732 -0.8665
   50MOL    C16 6974   3.222   2.677   4.665 -0.0547  0.5943  0.1779
   50MOL    C17 6975   3.314   2.625   4.555  0.1771  0.5691 -0.6987
   50MOL    O18 6976   3.235   2.577   4.445 -0.1585 -0.2850 -0.4904
   50MOL    H19 6977   3.159   2.755   4.621 -0.3457  0.6782  0.7301
   50MOL    H20 6978   3.279   2.725   4.744  1.8608  1.0531 -1.4602
   50MOL    H21 6979   3.387   2.563   4.607  0.4020 -0.2159 -1.9361
   50MOL    H22 6980   3.365   2.709   4.507 -1.2604  2.0159  0.2814
   50MOL    C23 6981   3.326   2.498   4.357  0.1871  0.2625  0.2410
   50MOL    C24 6982   3.412   2.581   4.253  0.0507  0.1170 -0.6920
   50MOL    O25 6983   3.524   2.649   4.310 -0.5209 -0.0726  0.5770
   50MOL    H26 6984   3.372   2.439   4.436 -0.4907  0.4357  0.7702
   50MOL    H27 6985   3.267   2.427   4.298  0.0044 -0.6937  1.5573
   50MOL    H28 6986   3.348   2.655   4.205  0.2438 -0.2441 -1.5194
   50MOL    H29 6987   3.455   2.510   4.182 -0.4456  0.2961 -1.1731
   50MOL    C30 6988   3.596   2.727   4.210 -0.3605 -0.5791 -1.0857
   50MOL    C31 6989   3.686   2.648   4.113 -0.5044  0.3622 -0.0995
   50MOL    O32 6990   3.615   2.596   3.997 -0.2791 -0.4757 -0.1545
   50MOL    H33 6991   3.536   2.795   4.149  0.6178  0.6012 -0.7543
   50MOL    H34 6992   3.668   2.784   4.268 -0.0369 -0.6622 -1.4058
   50MOL    H35 6993   3.736   2.562   4.158 -0.7810  1.2610  1.9797
   50MOL    H36 6994   3.764   2.714   4.074  1.0550 -0.2463  1.9278
   50MOL    C37 6995   3.691   2.507   3.916  0.8585  0.1646 -0.5439
   50MOL    C38 6996   3.612   2.483   3.788 -0.6324  0.1593 -0.1978
   50MOL    O39 6997   3.623   2.595   3.705 -0.1844  0.1696  0.1345
   50MOL    H40 6998   3.790   2.547   3.895  0.9426  0.1730 -0.1378
   50MOL    H41 6999   3.694   2.412   3.969  0.5620 -0.9219 -2.4182
   50MOL    H42 7000   3.509   2.457   3.810  0.0208 -1.4011  1.0986
   50MOL    H43 7001   3.665   2.406   3.732  0.7363  1.5426 -0.8600
   50MOL    C44 7002   3.511   2.678   3.721 -0.1128 -0.5571 -0.0759
   50MOL    C45 7003   3.548   2.824   3.693 -0.6092 -0.1175 -0.4576
   50MOL    O46 7004   3.533   2.862   3.553  0.1781 -0.6750  0.1504
   50MOL    H47 7005   3.438   2.637   3.651 -0.0248 -1.2367  0.2255
   50MOL    H48 7006   3.471   2.672   3.822 -0.9626 -1.4798 -0.4525
   50MOL    H49 7007   3.649   2.858   3.717 -0.6063  0.5467 -1.3811
   50MOL    H50 7008   3.484   2.893   3.747  1.9911  1.3898  0.7991
   50MOL    C51 7009   3.522   3.006   3.545  0.8398 -0.3645 -0.8258
   50MOL    C52 7010   3.549   3.076   3.410  0.1377 -0.0392 -0.3251
   50MOL    O53 7011   3.430   3.098   3.331 -0.5157  0.0965  0.0438
   50MOL    H54 7012   3.428   3.041   3.588  0.4754 -0.9685 -1.1183
   50MOL    H55 7013   3.610   3.045   3.596  0.6132 -0.2194 -0.5418
   50MOL    H56 7014   3.626   3.018   3.359  0.4870  0.7017 -0.6458
   50MOL    H57 7015   3.586   3.177   3.429  0.8370 -0.4385  0.4630
   50MOL    C58 7016   3.453   3.149   3.208 -0.3378  0.7641  0.2464
   50MOL    C59 7017   3.473   3.297   3.201  0.1669  0.6251  0.4253
   50MOL    O60 7018   3.598   3.350   3.236  0.3214  0.1788  0.2077
   50MOL    H61 7019   3.536   3.094   3.163 -2.5180 -1.2257 -1.4991
   50MOL    H62 7020   3.363   3.120   3.154  0.5083  0.9554 -1.3336
   50MOL    H63 7021   3.402   3.353   3.261  1.3342  1.4508  1.0424
   50MOL    H64 7022   3.458   3.330   3.098 -0.4461 -0.7596  0.0548
   50MOL    C65 7023   3.616   3.484   3.210  0.4061  0.3509  0.2288
   50MOL    C66 7024   3.765   3.517   3.187 -0.6742  0.7847 -0.0160
   50MOL    O67 7025   3.799   3.518   3.048 -0.0981 -0.2792  0.2078
   50MOL    H68 7026   3.554   3.538   3.138 -0.6613 -0.8759  0.2159
   50MOL    H69 7027   3.582   3.538   3.299 -0.0371 -1.2582  1.0423
   50MOL    H70 7028   3.831   3.451   3.244 -1.8209  0.4009  0.8972
   50MOL    H71 7029   3.787   3.613   3.233 -0.6815  0.2773  1.0615
   50MOL    C72 7030   3.802   3.392   2.981  0.4363 -0.0649  0.4140
   50MOL    C73 7031   3.876   3.416   2.850  0.3528  0.4003  0.6291
   50MOL    O74 7032   4.012   3.381   2.860  0.7570 -0.4097 -0.3988
   50MOL    H75 7033   3.859   3.326   3.047  0.9456 -0.4833 -0.4425
   50MOL    H76 7034   3.703   3.352   2.965  0.6204 -0.1536 -0.5380
   50MOL    H77 7035   3.856   3.520   2.821 -2.5736 -0.3784 -0.3634
   50MOL    H78 7036   3.816   3.355   2.783  0.6478  0.5835  0.1980
   50MOL    C79 7037   4.083   3.373   2.742 -0.1564  0.2791  0.3588
   50MOL    C80 7038   4.083   3.232   2.690  0.3031  0.7504  0.5010
   50MOL    O81 7039   4.034   3.232   2.555  0.6409  0.1577 -0.0532
   50MOL    H82 7040   4.060   3.443   2.662 -2.1682 -1.7357 -0.9101
   50MOL    H83 7041   4.190   3.381   2.762  0.4203 -2.6430 -1.2577
   50MOL    H84 7042   4.025   3.167   2.755  0.5952 -1.9410 -1.8277
   50MOL    H85 7043   4.186   3.197   2.678  0.4831  1.4923 -0.1410
   50MOL    C86 7044   3.996   3.104   2.503 -0.0428 -0.2992 -0.2909
   50MOL    C87 7045   4.105   3.008   2.517  0.4122  0.3689 -0.4705
   50MOL    O88 7046   4.096   2.955   2.648  0.3703  0.1734  0.1278
   50MOL    H89 7047   3.902   3.080   2.553 -0.0130  1.0927  0.4558
   50MOL    H90 7048   3.978   3.127   2.398  0.5894  1.1320 -0.0976
   50MOL    H91 7049   4.196   3.064   2.499 -0.1923  1.7088  0.5823
   50MOL    H92 7050   4.083   2.928   2.446 -2.3118  0.0577  0.6825
   50MOL    C93 7051   4.199   2.864   2.671 -0.0462 -0.2202 -0.1418
   50MOL    C94 7052   4.171   2.798   2.809 -0.1325 -0.3397 -0.1153
   50MOL    O95 7053   4.069   2.700   2.782  0.2344  0.4469  0.7572
   50MOL    H96 7054   4.199   2.783   2.598  2.4853 -0.4447  0.0680
   50MOL    H97 7055   4.301   2.902   2.677  0.2614 -1.4472  3.0315
   50MOL    H98 7056   4.144   2.867   2.889  0.5771  1.8846 -1.7476
   50MOL    H99 7057   4.261   2.747   2.842 -0.7935 -2.6130 -1.7377
   50MOL   C100 7058   3.935   2.754   2.792  0.0929 -0.3351  0.6515
   50MOL   C101 7059   3.893   2.765   2.933 -0.6283 -0.5210  0.1621
   50MOL   O102 7060   3.913   2.896   2.976 -0.6931  0.3472  0.3744
   50MOL   H103 7061   3.907   2.836   2.726  0.0935 -0.4680  0.4870
   50MOL   H104 7062   3.882   2.669   2.748  0.2564 -0.2872  0.3573
   50MOL   H105 7063   3.944   2.687   2.988 -0.9165  0.1346  1.3961
   50MOL   H106 7064   3.787   2.742   2.946 -1.0712  0.6032 -1.3029
   50MOL   C107 7065   3.891   2.907   3.118 -0.4436  0.2025 -0.2362
   50MOL   C108 7066   3.926   3.057   3.158  0.7972  0.6816  0.2857
   50MOL   O109 7067   3.875   3.089   3.282 -0.1818  0.0551 -0.0999
   50MOL   H110 7068   3.786   2.883   3.136  0.4243 -0.6559  4.4841
   50MOL   H111 7069   3.955   2.843   3.179 -0.0359  0.7982 -0.0393
   50MOL   H112 7070   3.875   3.118   3.084 -0.0488  0.6963  0.8790
   50MOL   H113 7071   4.033   3.079   3.161  0.3960  2.6282  0.7753
   50MOL   C114 7072   3.916   3.205   3.356  0.7654 -0.3062 -0.0726
   50MOL   C115 7073   3.999   3.165   3.476  0.1699 -0.0441  0.2020
   50MOL   O116 7074   3.919   3.140   3.590  0.1722 -0.0579 -0.3609
   50MOL   H117 7075   3.973   3.275   3.295  0.4467 -0.8290 -0.9687
   50MOL   H118 7076   3.826   3.253   3.397  1.9835  0.9293  1.2539
   50MOL   H119 7077   4.090   3.225   3.483 -0.3796  0.9126 -0.6492
   50MOL   H120 7078   4.039   3.069   3.445  0.0228 -0.7426  2.1131
   50MOL   C121 7079   3.984   3.100   3.714  0.4984  0.2917  0.1535
   50MOL   C122 7080   4.050   3.225   3.776 -0.3201 -0.1941  0.2992
   50MOL   O123 7081   4.092   3.198   3.908 -0.5387 -0.4836  0.1419
   50MOL   H124 7082   3.901   3.062   3.774 -0.2010 -1.5809 -1.9244
   50MOL   H125 7083   4.059   3.023   3.696  0.4063  0.3701 -0.5704
   50MOL   H126 7084   3.976   3.305   3.784 -0.3357 -0.2587  0.7828
   50MOL   H127 7085   4.124   3.265   3.707 -2.8713  0.9794 -1.8591
   50MOL   C128 7086   4.164   3.304   3.964  0.0268 -0.0404  0.2629
   50MOL   C129 7087   4.232   3.264   4.095  0.2737  0.0008  0.0439
   50MOL   O130 7088   4.344   3.186   4.061  0.4453  0.1556 -0.1894
   50MOL   H131 7089   4.234   3.345   3.892 -0.9655  0.3887 -0.4647
   50MOL   H132 7090   4.100   3.386   3.997 -0.6748 -1.4977  2.7028
   50MOL   H133 7091   4.171   3.212   4.168  2.2195 -1.0936  0.9427
   50MOL   H134 7092   4.270   3.348   4.152  1.9656 -2.5891  2.9033
   50MOL   C135 7093   4.411   3.128   4.174 -0.0929 -0.2222  0.3795
   50MOL   C136 7094   4.548   3.060   4.140  0.5576 -0.1100 -0.3403
   50MOL   O137 7095   4.643   3.160   4.103 -0.5194  0.6050  0.2917
   50MOL   H138 7096   4.435   3.207   4.246  0.1069  1.1749 -1.1715
   50MOL   H139 7097   4.343   3.057   4.220 -0.0594 -0.6531 -0.2382
   50MOL   H140 7098   4.525   2.994   4.057 -0.1069  0.3364 -0.5144
   50MOL   H141 7099   4.582   2.998   4.223 -1.9591 -0.3496  0.5310
   50MOL   H142 7100   4.712   3.122   4.050  0.4992 -1.6284  3.0764
   51MOL     C1 7101   6.103   2.391   1.478 -0.1645 -0.1786  0.4209
   51MOL     C2 7102   6.116   2.510   1.385  0.2764  0.5061  0.1073
   51MOL     O3 7103   6.257   2.514   1.339 -0.0286 -0.1321  0.0996
   51MOL     H4 7104   6.176   2.401   1.558  3.2186  0.1112 -2.5704
   51MOL     H5 7105   6.121   2.293   1.435 -0.7194  0.4342 -1.2762
   51MOL     H6 7106   6.089   2.600   1.440  1.1192  0.0694  1.2703
   51MOL     H7 7107   6.053   2.511   1.297 -0.2756  0.7588  0.5038
   51MOL     H8 7108   6.002   2.380   1.517 -0.0946 -0.1426  0.6139
   51MOL     C9 7109   6.294   2.651   1.312  0.7930  0.1221 -0.7344
   51MOL    C10 7110   6.418   2.666   1.230  0.4755 -0.4159 -0.5752
   51MOL    O11 7111   6.452   2.801   1.250  0.2880 -0.4403  0.3856
   51MOL    H12 7112   6.209   2.707   1.271 -0.6336  0.1984  2.2108
   51MOL    H13 7113   6.309   2.694   1.411 -0.8904 -1.1663  0.1111
   51MOL    H14 7114   6.387   2.641   1.129 -1.5828  1.7542 -0.5425
   51MOL    H15 7115   6.495   2.604   1.276  0.5373  0.5835  0.6924
   51MOL    C16 7116   6.555   2.849   1.166  0.3481  0.2941  0.4624
   51MOL    C17 7117   6.687   2.772   1.178 -0.1127  0.0366 -0.8696
   51MOL    O18 7118   6.714   2.688   1.064  0.0421  0.3032  0.3384
   51MOL    H19 7119   6.518   2.842   1.064 -1.1735  1.6047  0.8968
   51MOL    H20 7120   6.576   2.954   1.186  4.2639  0.3665 -3.4323
   51MOL    H21 7121   6.700   2.719   1.272 -0.2281  1.0595 -0.2632
   51MOL    H22 7122   6.772   2.840   1.185 -0.2834  0.1068  0.8343
   51MOL    C23 7123   6.793   2.574   1.104  0.3667 -0.5652  0.0119
   51MOL    C24 7124   6.939   2.614   1.097 -0.7553 -0.2647  0.1318
   51MOL    O25 7125   6.985   2.592   0.967  0.1094  0.7857  0.1512
   51MOL    H26 7126   6.759   2.527   1.196  1.4802 -0.3980  0.5233
   51MOL    H27 7127   6.781   2.491   1.034  0.5609 -0.3013 -0.3372
   51MOL    H28 7128   6.995   2.556   1.170 -0.2406  1.6230  1.2630
   51MOL    H29 7129   6.955   2.717   1.128 -1.6490 -0.7855  2.3898
   51MOL    C30 7130   6.978   2.709   0.881 -0.0387 -0.0282 -0.2437
   51MOL    C31 7131   7.006   2.662   0.735 -0.7501  0.0096 -0.1424
   51MOL    O32 7132   7.143   2.622   0.743  0.3534  0.0828  0.0075
   51MOL    H33 7133   6.882   2.761   0.876 -1.6865 -3.1347 -2.1943
   51MOL    H34 7134   7.055   2.784   0.902 -1.2256  2.1881 -3.4890
   51MOL    H35 7135   6.990   2.748   0.670 -0.9333 -1.4521 -2.1111
   51MOL    H36 7136   6.933   2.584   0.710  0.4348 -1.2042  0.1295
   51MOL    C37 7137   7.183   2.556   0.626 -0.2179 -1.1973 -0.5250
   51MOL    C38 7138   7.315   2.481   0.655 -0.2297  0.4829  0.0045
   51MOL    O39 7139   7.343   2.423   0.525 -0.9189  0.4111  0.6693
   51MOL    H40 7140   7.105   2.490   0.588 -1.3593 -0.4479  0.4663
   51MOL    H41 7141   7.197   2.634   0.551 -0.4775 -1.0968 -0.4708
   51MOL    H42 7142   7.321   2.412   0.739 -2.8661  1.2034  0.8252
   51MOL    H43 7143   7.387   2.563   0.667  1.7228 -1.3112  0.7761
   51MOL    C44 7144   7.486   2.401   0.493 -0.2645 -0.0057 -0.0426
   51MOL    C45 7145   7.572   2.303   0.585  0.6016 -0.0897  0.5070
   51MOL    O46 7146   7.590   2.190   0.505 -0.5148  0.8863  0.4887
   51MOL    H47 7147   7.490   2.362   0.391 -0.8193 -0.3883  0.0818
   51MOL    H48 7148   7.543   2.493   0.504  2.2571 -1.7327  1.7684
   51MOL    H49 7149   7.524   2.271   0.677  0.0480 -1.0096 -0.0953
   51MOL    H50 7150   7.668   2.351   0.603 -0.1444  1.4123  0.5264
   51MOL    C51 7151   7.655   2.078   0.564  0.1650 -0.0180  0.0187
   51MOL    C52 7152   7.656   1.971   0.450  0.4383 -0.3856 -0.1100
   51MOL    O53 7153   7.756   1.992   0.357 -0.0981  0.1495  0.3567
   51MOL    H54 7154   7.757   2.095   0.598 -0.7037  3.4484  1.0265
   51MOL    H55 7155   7.601   2.047   0.654 -0.3711  0.2529 -0.2097
   51MOL    H56 7156   7.557   1.967   0.404  0.4956 -1.1002 -0.1810
   51MOL    H57 7157   7.666   1.871   0.492 -1.0120 -0.6908 -0.4642
   51MOL    C58 7158   7.759   1.895   0.255 -0.1083  0.8046 -0.4179
   51MOL    C59 7159   0.109   1.916   0.165  0.3002  0.4555 -0.2953
   51MOL    O60 7160   0.092   2.033   0.086 -0.0914  0.2013  0.5865
   51MOL    H61 7161   7.764   1.793   0.292  2.2650  0.8666 -0.4793
   51MOL    H62 7162   7.669   1.909   0.195 -0.8841 -1.8771  0.0744
   51MOL    H63 7163   0.118   1.817   0.119 -0.7519 -0.9096  2.3790
   51MOL    H64 7164   0.190   1.938   0.235 -2.4201  2.5954  2.2791
   51MOL    C65 7165   0.120   2.008   7.723 -0.0114 -0.4307  0.3682
   51MOL    C66 7166   0.094   2.134   7.645 -0.8319  0.2445  0.1893
   51MOL    O67 7167   0.194   2.237   7.656  0.4569 -0.3472  0.2611
   51MOL    H68 7168   0.220   1.969   7.705  0.7206  1.4674  0.1998
   51MOL    H69 7169   0.044   1.940   7.684 -1.1412  0.6211  0.6806
   51MOL    H70 7170   7.761   2.163   7.662 -1.2182 -1.2676  0.4750
   51MOL    H71 7171   0.109   2.114   7.539 -1.5033 -2.4893  0.5761
   51MOL    C72 7172   0.205   2.302   0.012  0.2470  0.0603  0.4476
   51MOL    C73 7173   0.304   2.418   0.006 -0.2229 -0.0786 -0.2833
   51MOL    O74 7174   0.232   2.536   7.742  0.0032  0.2830  0.4072
   51MOL    H75 7175   0.105   2.339   0.035 -0.4267 -1.6426  0.4018
   51MOL    H76 7176   0.240   2.230   0.087 -0.6939 -1.6495 -0.7096
   51MOL    H77 7177   0.394   2.402   7.718  0.2556 -0.8822  0.6593
   51MOL    H78 7178   0.335   2.425   0.111  0.5346 -3.7786 -0.1911
   51MOL    C79 7179   0.301   2.650   0.015  0.3257  0.2706  1.0134
   51MOL    C80 7180   0.214   2.774   7.771 -0.2761  0.0642  0.2658
   51MOL    O81 7181   0.151   2.824   0.119 -0.3857 -0.5201  1.0945
   51MOL    H82 7182   0.335   2.650   0.118 -0.4177  0.1207  1.2663
   51MOL    H83 7183   0.390   2.660   7.724  0.0750 -0.8679  0.4402
   51MOL    H84 7184   0.135   2.755   7.697 -1.5199  0.5650  1.4485
   51MOL    H85 7185   0.272   2.858   7.732  0.0029 -1.2056 -2.1490
   51MOL    C86 7186   0.043   2.908   0.084 -0.3357 -0.3961 -0.8188
   51MOL    C87 7187   7.730   2.950   0.206 -0.6090 -0.0588  0.2590
   51MOL    O88 7188   0.013   3.075   0.249  0.2902 -0.3109 -0.1110
   51MOL    H89 7189   0.074   2.995   0.026 -0.1639 -1.1148 -1.8309
   51MOL    H90 7190   7.749   2.845   0.023 -1.0313  0.8845 -1.4153
   51MOL    H91 7191   7.736   2.875   0.284 -0.8984 -0.7673 -0.3947
   51MOL    H92 7192   7.626   2.946   0.173 -0.3406 -1.7632 -0.3953
   51MOL    C93 7193   7.720   3.123   0.364  0.5980  0.4534  0.9351
   51MOL    C94 7194   0.012   3.254   0.398 -0.6116 -0.9985  0.1862
   51MOL    O95 7195   7.717   3.364   0.345 -0.2097 -0.3400 -0.9739
   51MOL    H96 7196   7.611   3.120   0.359  0.3869  3.0726  3.0336
   51MOL    H97 7197   7.744   3.048   0.439 -1.5285 -2.1802 -0.8929
   51MOL    H98 7198   0.116   3.252   0.364 -1.4570 -0.7620 -2.4905
   51MOL    H99 7199   0.004   3.269   0.506 -0.0782  0.8090 -0.0098
   51MOL   C100 7200   0.023   3.485   0.335 -0.1561 -0.9138 -0.2481
   51MOL   C101 7201   7.715   3.584   0.254  0.0859  0.3855  0.6901
   51MOL   O102 7202   7.629   3.664   0.334 -0.1426 -0.2845 -0.1051
   51MOL   H103 7203   0.040   3.527   0.434 -1.5871  0.3033 -0.5032
   51MOL   H104 7204   0.117   3.457   0.286 -0.4136  1.6581 -2.3469
   51MOL   H105 7205   7.651   3.535   0.180 -0.0665 -0.7114  1.5388
   51MOL   H106 7206   0.007   3.654   0.200 -1.2731  0.7207 -0.5050
   51MOL   C107 7207   7.562   3.762   0.259 -0.5783  0.2465  0.3590
   51MOL   C108 7208   7.517   3.870   0.353 -0.4246 -0.5103 -0.4096
   51MOL   O109 7209   7.379   3.852   0.396 -0.7027  0.2047  0.1445
   51MOL   H110 7210   7.630   3.794   0.180  0.8632 -2.7654  0.2929
   51MOL   H111 7211   7.480   3.722   0.200 -0.4453 -1.0725  1.0404
   51MOL   H112 7212   7.524   3.968   0.306  1.6719 -1.6281 -2.4733
   51MOL   H113 7213   7.580   3.876   0.442  1.8610  2.5262 -2.1298
   51MOL   C114 7214   7.327   3.930   0.494  0.2436 -0.2278  0.6618
   51MOL   C115 7215   7.364   3.862   0.628  0.2927 -0.0320 -0.0981
   51MOL   O116 7216   7.493   3.894   0.672  0.0288  0.8631 -0.0090
   51MOL   H117 7217   7.353   4.036   0.504 -1.0913  0.2453 -0.7554
   51MOL   H118 7218   7.218   3.927   0.494  0.0909  3.0285 -0.1371
   51MOL   H119 7219   7.344   3.755   0.621 -0.6659  0.1574 -0.2886
   51MOL   H120 7220   7.300   3.900   0.707 -0.9841 -3.1749  0.4540
   51MOL   C121 7221   7.509   3.846   0.808 -0.4225 -0.0351  0.1009
   51MOL   C122 7222   7.647   3.890   0.859 -0.4633 -0.3589  0.5320
   51MOL   O123 7223   7.753   3.807   0.813 -0.2626  0.0440  0.3085
   51MOL   H124 7224   7.431   3.903   0.860  0.5871  1.2572  0.2040
   51MOL   H125 7225   7.490   3.738   0.813  0.1365 -0.1873 -0.9019
   51MOL   H126 7226   7.643   3.887   0.968  0.7651  2.1538  0.6871
   51MOL   H127 7227   7.654   3.997   0.838 -1.3740 -0.2173  0.9485
   51MOL   C128 7228   0.017   3.825   0.675 -0.1615 -0.4175  0.1327
   51MOL   C129 7229   0.166   3.809   0.648 -0.4148  0.1107 -0.5011
   51MOL   O130 7230   0.206   3.683   0.696 -0.4781 -0.0626 -0.1596
   51MOL   H131 7231   7.727   3.750   0.624  0.9283 -1.2001 -0.0298
   51MOL   H132 7232   7.771   3.925   0.634 -0.9858  0.0223  1.5342
   51MOL   H133 7233   0.219   3.875   0.716 -0.7553  0.1504 -0.2756
   51MOL   H134 7234   0.191   3.829   0.544  0.0032  1.7614 -0.1061
   51MOL   C135 7235   0.343   3.642   0.692 -0.5033 -0.4964  1.2539
   51MOL   C136 7236   0.400   3.637   0.550 -0.9962  0.1167 -0.0489
   51MOL   O137 7237   0.521   3.564   0.564  0.1186  0.0181 -0.3159
   51MOL   H138 7238   0.405   3.713   0.746  4.7354 -3.1998 -0.9283
   51MOL   H139 7239   0.353   3.548   0.747  0.9477 -1.3169 -0.3722
   51MOL   H140 7240   0.424   3.729   0.496  0.2829  0.7101  1.5033
   51MOL   H141 7241   0.336   3.577   0.486 -0.9924  1.6915 -1.5638
   51MOL   H142 7242   0.583   3.606   0.506 -0.7577  0.6784 -0.8041
   52MOL     C1 7243   5.030   3.677   2.736 -0.0266  1.7409  0.1245
   52MOL     C2 7244   4.992   3.525   2.735  0.3546 -0.5802  0.3983
   52MOL     O3 7245   5.094   3.459   2.668 -0.0576 -0.3729 -0.5039
   52MOL     H4 7246   5.020   3.718   2.636 -1.3886  0.6069 -0.2223
   52MOL     H5 7247   5.135   3.698   2.756  0.8897 -2.4289  0.0204
   52MOL     H6 7248   4.899   3.524   2.677 -0.0098  0.1834  0.9440
   52MOL     H7 7249   4.988   3.485   2.836 -3.1494 -0.7751  0.2469
   52MOL     H8 7250   4.957   3.738   2.790 -1.2160  0.8541 -0.4605
   52MOL     C9 7251   5.082   3.321   2.684 -0.3579 -0.7349  0.1343
   52MOL    C10 7252   5.212   3.252   2.717 -0.1716 -0.0029  0.3139
   52MOL    O11 7253   5.214   3.214   2.863  0.6959 -0.3618 -0.1748
   52MOL    H12 7254   4.994   3.284   2.738 -0.6857 -0.5359 -0.2588
   52MOL    H13 7255   5.049   3.286   2.586  0.7595 -1.0999 -0.1108
   52MOL    H14 7256   5.300   3.307   2.684 -2.1089  2.3197 -1.2506
   52MOL    H15 7257   5.227   3.150   2.681  0.7675 -0.4389  1.9333
   52MOL    C16 7258   5.322   3.131   2.890  0.4004 -0.3186  0.6408
   52MOL    C17 7259   5.316   3.094   3.038  0.2394 -0.3475 -0.4166
   52MOL    O18 7260   5.342   3.202   3.125 -0.1022 -0.1008 -0.4921
   52MOL    H19 7261   5.317   3.039   2.832  0.7764 -0.9872  1.6362
   52MOL    H20 7262   5.418   3.173   2.862 -0.6754  1.1525 -0.9166
   52MOL    H21 7263   5.384   3.010   3.051  0.8895  0.0645 -1.1328
   52MOL    H22 7264   5.213   3.065   3.059  0.1127 -0.5120 -1.2234
   52MOL    C23 7265   5.380   3.161   3.255 -0.1270 -0.3500 -0.3897
   52MOL    C24 7266   5.362   3.275   3.359  0.0118 -0.3788  0.0838
   52MOL    O25 7267   5.222   3.294   3.389 -0.3120  0.1140 -0.2820
   52MOL    H26 7268   5.319   3.081   3.296 -2.6930  0.8775 -1.7021
   52MOL    H27 7269   5.487   3.142   3.253 -0.1548 -0.4108 -2.0197
   52MOL    H28 7270   5.398   3.372   3.328 -0.3343  0.2516  1.6176
   52MOL    H29 7271   5.422   3.250   3.447  1.4447  2.2259 -0.1373
   52MOL    C30 7272   5.176   3.356   3.508  0.3369  0.4181 -0.4188
   52MOL    C31 7273   5.020   3.361   3.499  0.6802 -0.3640 -0.4129
   52MOL    O32 7274   4.977   3.471   3.426 -0.3347 -0.0725 -1.4122
   52MOL    H33 7275   5.200   3.283   3.585  0.4662  1.4376  0.5087
   52MOL    H34 7276   5.226   3.452   3.521  2.7404 -0.5315 -2.4585
   52MOL    H35 7277   4.996   3.361   3.605 -0.9975 -1.2750 -0.7755
   52MOL    H36 7278   4.983   3.270   3.452  0.1814 -1.3345  1.7937
   52MOL    C37 7279   4.842   3.479   3.434  0.0901  0.2965  0.4087
   52MOL    C38 7280   4.796   3.607   3.361 -0.5737  0.0803  0.0126
   52MOL    O39 7281   4.685   3.667   3.432 -0.9502 -0.3316  0.0369
   52MOL    H40 7282   4.783   3.392   3.403 -0.3398  0.0547  1.8699
   52MOL    H41 7283   4.824   3.473   3.541 -2.9819 -0.2080 -0.0917
   52MOL    H42 7284   4.780   3.598   3.254 -2.5169  1.9920  0.1044
   52MOL    H43 7285   4.880   3.675   3.378 -0.0594 -0.7145  0.7209
   52MOL    C44 7286   4.553   3.636   3.389  0.5664 -0.3452  0.2269
   52MOL    C45 7287   4.522   3.492   3.366 -0.6304  0.2214 -0.2705
   52MOL    O46 7288   4.527   3.428   3.496 -0.4976 -0.3049  0.7609
   52MOL    H47 7289   4.489   3.674   3.469 -0.1697 -0.5634 -0.2560
   52MOL    H48 7290   4.538   3.700   3.302  0.3731 -2.0516 -1.0328
   52MOL    H49 7291   4.593   3.442   3.299  1.3485  2.4144  0.1302
   52MOL    H50 7292   4.420   3.486   3.327 -0.9709  0.7783  0.5250
   52MOL    C51 7293   4.482   3.292   3.490 -0.3509  0.0770  0.1324
   52MOL    C52 7294   4.492   3.247   3.631  0.0266 -0.4427 -0.8489
   52MOL    O53 7295   4.413   3.132   3.652  0.0207  0.2749 -0.4826
   52MOL    H54 7296   4.378   3.289   3.458 -0.1472  1.8853 -0.8120
   52MOL    H55 7297   4.542   3.238   3.418  0.1842 -0.0933  0.7066
   52MOL    H56 7298   4.468   3.330   3.698  3.4119 -0.5316  0.5799
   52MOL    H57 7299   4.593   3.223   3.666 -0.0167  0.4995 -0.0531
   52MOL    C58 7300   4.420   3.082   3.786  0.8386 -0.2267  0.3540
   52MOL    C59 7301   4.379   2.940   3.807 -0.1562 -0.1032  0.3336
   52MOL    O60 7302   4.488   2.854   3.768  0.8868  0.6020  0.8435
   52MOL    H61 7303   4.514   3.098   3.840  1.8113  1.2529 -1.6807
   52MOL    H62 7304   4.330   3.122   3.831 -0.0141  0.8284 -2.1524
   52MOL    H63 7305   4.289   2.923   3.748  0.3687 -1.9496  0.0444
   52MOL    H64 7306   4.356   2.915   3.910  0.4838  0.1731  0.5488
   52MOL    C65 7307   4.460   2.715   3.795  0.2284 -0.4694  0.2930
   52MOL    C66 7308   4.370   2.638   3.689 -0.3976 -0.1094  0.2501
   52MOL    O67 7309   4.232   2.652   3.729  0.3472 -0.6218  0.0031
   52MOL    H68 7310   4.558   2.670   3.814  0.5718  0.1604  0.0470
   52MOL    H69 7311   4.409   2.713   3.891  1.3426  2.9293  1.0455
   52MOL    H70 7312   4.391   2.532   3.707  0.6231  0.1597  0.6811
   52MOL    H71 7313   4.393   2.683   3.592  2.7383  0.0257  1.0000
   52MOL    C72 7314   4.149   2.586   3.642  0.4270 -0.3667  0.2792
   52MOL    C73 7315   4.029   2.683   3.612 -0.2807  0.6292  0.3482
   52MOL    O74 7316   3.954   2.625   3.505  0.7120 -0.1928 -0.4446
   52MOL    H75 7317   4.202   2.542   3.557  0.6261  0.2218  0.0907
   52MOL    H76 7318   4.118   2.505   3.707 -0.5146  1.7264  2.5205
   52MOL    H77 7319   4.064   2.781   3.579  0.2069 -0.3980 -2.3309
   52MOL    H78 7320   3.969   2.702   3.701 -0.7788 -0.9864  0.3741
   52MOL    C79 7321   3.842   2.696   3.466 -0.7386 -0.3554 -0.3961
   52MOL    C80 7322   3.736   2.604   3.398  0.5560 -0.3336 -0.5777
   52MOL    O81 7323   3.763   2.547   3.273  0.0325  0.7625 -0.6950
   52MOL    H82 7324   3.793   2.737   3.554  0.1566  2.3630 -1.1214
   52MOL    H83 7325   3.874   2.783   3.409  1.7596 -0.4650  0.7928
   52MOL    H84 7326   3.641   2.655   3.384 -0.0098 -0.8323  1.3058
   52MOL    H85 7327   3.723   2.519   3.466  0.2517  0.0524 -0.1509
   52MOL    C86 7328   3.876   2.465   3.261 -1.0249  0.0355  0.7298
   52MOL    C87 7329   3.851   2.355   3.160 -0.3537  0.1316 -0.5040
   52MOL    O88 7330   3.754   2.257   3.207  0.3656  0.1517 -0.1463
   52MOL    H89 7331   3.961   2.525   3.228 -0.6275 -1.9595 -2.0398
   52MOL    H90 7332   3.898   2.419   3.357  0.2473 -1.1774 -0.1282
   52MOL    H91 7333   3.944   2.302   3.137 -0.8649 -1.4882  1.0713
   52MOL    H92 7334   3.817   2.398   3.066 -3.6576  0.6764  0.8743
   52MOL    C93 7335   3.735   2.150   3.113  0.1476  0.1445 -0.3139
   52MOL    C94 7336   3.666   2.030   3.186 -0.3648 -0.4089  0.8051
   52MOL    O95 7337   3.754   1.967   3.276  0.2930 -0.6843  0.4869
   52MOL    H96 7338   3.682   2.180   3.023  0.7829 -0.7469 -0.9915
   52MOL    H97 7339   3.831   2.120   3.070  0.9957  1.0453  0.8904
   52MOL    H98 7340   3.640   1.962   3.105 -2.4156  0.4205  0.7361
   52MOL    H99 7341   3.571   2.056   3.233 -0.1072  0.8587  0.6384
   52MOL   C100 7342   3.699   1.851   3.331  0.2446  0.2099  0.1047
   52MOL   C101 7343   3.800   1.785   3.427  0.2663  0.7395  0.0540
   52MOL   O102 7344   3.769   1.655   3.457  0.2762 -0.0964  0.7464
   52MOL   H103 7345   3.617   1.884   3.394 -0.1458  1.2038 -0.9257
   52MOL   H104 7346   3.666   1.779   3.256 -0.8868  1.5097 -0.6481
   52MOL   H105 7347   3.818   1.841   3.518 -1.4764 -0.0864  0.9295
   52MOL   H106 7348   3.900   1.780   3.384  0.8634  1.3306  1.3470
   52MOL   C107 7349   3.643   1.627   3.517  0.1313  0.2594 -0.1672
   52MOL   C108 7350   3.655   1.470   3.534  0.3008  0.2913  0.5665
   52MOL   O109 7351   3.519   1.423   3.564 -0.3838  0.1497  0.3069
   52MOL   H110 7352   3.633   1.695   3.602 -2.4525 -0.3749  0.0787
   52MOL   H111 7353   3.558   1.653   3.454 -0.0519  1.2832  0.4865
   52MOL   H112 7354   3.735   1.446   3.604  0.2308 -0.3892  0.4083
   52MOL   H113 7355   3.683   1.421   3.441 -1.1633  2.3117 -0.9959
   52MOL   C114 7356   3.467   1.442   3.695 -0.1271  0.4215  0.3521
   52MOL   C115 7357   3.558   1.415   3.814 -0.8780 -0.3320 -0.2979
   52MOL   O116 7358   3.637   1.531   3.832 -0.1502  0.3753  0.4131
   52MOL   H117 7359   3.417   1.539   3.700  0.9583  1.0395 -0.6904
   52MOL   H118 7360   3.389   1.366   3.685  1.4349 -1.0743 -0.7428
   52MOL   H119 7361   3.606   1.317   3.823 -0.0077  0.0138 -1.1355
   52MOL   H120 7362   3.490   1.404   3.899  1.2705 -1.3768  1.3484
   52MOL   C121 7363   3.678   1.556   3.967  0.1550  0.1927  0.6820
   52MOL   C122 7364   3.779   1.661   3.967 -0.5288  0.1884 -1.0353
   52MOL   O123 7365   3.825   1.655   4.105  0.2401  0.2988  0.2809
   52MOL   H124 7366   3.595   1.588   4.030 -1.5517  0.2143 -1.5290
   52MOL   H125 7367   3.719   1.460   3.998 -2.2410 -1.1015 -0.0293
   52MOL   H126 7368   3.725   1.754   3.949  0.4986  1.3028  1.4644
   52MOL   H127 7369   3.865   1.647   3.902 -0.2382 -2.5005 -0.1351
   52MOL   C128 7370   3.921   1.759   4.131  0.0112 -0.4513 -0.0492
   52MOL   C129 7371   3.923   1.797   4.285  0.7688 -0.4108 -0.9233
   52MOL   O130 7372   3.977   1.694   4.369  0.4992 -0.0311  0.0366
   52MOL   H131 7373   4.021   1.739   4.094  0.9910  0.6417  1.8828
   52MOL   H132 7374   3.893   1.856   4.089 -0.5647  0.6405  2.6758
   52MOL   H133 7375   3.821   1.810   4.320  0.9547 -0.2012 -0.4458
   52MOL   H134 7376   3.976   1.891   4.304  0.3678 -0.0302 -1.6734
   52MOL   C135 7377   3.931   1.677   4.502  0.1550  0.7895  0.1409
   52MOL   C136 7378   4.004   1.777   4.582 -0.1092 -0.3684  0.0194
   52MOL   O137 7379   4.136   1.737   4.601 -0.4667 -0.0364  0.3294
   52MOL   H138 7380   3.835   1.729   4.498 -0.7818 -0.8628  0.5295
   52MOL   H139 7381   3.930   1.575   4.541  3.2688 -0.1229 -1.9658
   52MOL   H140 7382   3.958   1.788   4.680 -2.4693  1.9804 -1.2873
   52MOL   H141 7383   4.010   1.878   4.542  1.4034 -1.5551 -2.8944
   52MOL   H142 7384   4.156   1.709   4.513 -1.5469 -0.9227  0.3518
   53MOL     C1 7385   5.931   0.725   0.494  0.1597  0.1769  0.1422
   53MOL     C2 7386   6.054   0.769   0.420  0.3128 -0.0730  0.5364
   53MOL     O3 7387   6.018   0.890   0.348  0.0520 -0.0367 -0.2939
   53MOL     H4 7388   5.910   0.783   0.584 -0.4054  0.6790 -0.3108
   53MOL     H5 7389   5.940   0.621   0.524 -0.7503  0.8327  2.7998
   53MOL     H6 7390   6.109   0.700   0.355 -0.9963 -2.1692  1.5951
   53MOL     H7 7391   6.124   0.781   0.502 -0.8420 -0.5666  1.6103
   53MOL     H8 7392   5.836   0.724   0.441  0.4435  0.9873 -0.4017
   53MOL     C9 7393   5.951   0.868   0.228  0.2598  0.1003  0.2867
   53MOL    C10 7394   5.946   0.998   0.146  0.7111  0.1583  0.3452
   53MOL    O11 7395   6.051   0.991   0.050  0.7448  0.2006 -0.4274
   53MOL    H12 7396   5.988   0.784   0.168 -2.9555 -1.5347  0.5137
   53MOL    H13 7397   5.847   0.845   0.250  0.6206 -1.3718  0.5597
   53MOL    H14 7398   5.960   1.085   0.210 -0.3642  1.6502 -1.3779
   53MOL    H15 7399   5.854   1.005   0.088  0.8550  1.9904  0.2986
   53MOL    C16 7400   6.050   1.102   7.736  0.0474  0.3168  0.3100
   53MOL    C17 7401   6.141   1.069   7.618  0.2801  1.1625 -0.2139
   53MOL    O18 7402   6.168   1.198   7.572 -0.3150  0.3094  0.2616
   53MOL    H19 7403   5.947   1.117   7.704 -0.5850  0.0240  2.1502
   53MOL    H20 7404   6.088   1.185   0.024  0.1774 -0.3248  1.1445
   53MOL    H21 7405   6.091   1.004   7.546 -0.9266  0.6304  1.0788
   53MOL    H22 7406   6.237   1.029   7.650 -1.0018 -1.9386 -0.0425
   53MOL    C23 7407   6.268   1.194   7.473  0.1799  0.3729 -0.2103
   53MOL    C24 7408   6.378   1.283   7.531 -0.0690  0.4844  0.2163
   53MOL    O25 7409   6.489   1.211   7.579  0.3529  0.1378  0.4524
   53MOL    H26 7410   6.306   1.095   7.445 -1.7734 -0.4070 -0.1786
   53MOL    H27 7411   6.211   1.239   7.392 -1.4898 -2.0962 -0.4637
   53MOL    H28 7412   6.327   1.352   7.599  0.7597 -0.6506  2.0098
   53MOL    H29 7413   6.406   1.348   7.448 -0.6113 -0.6752 -0.8916
   53MOL    C30 7414   6.599   1.300   7.586 -0.1334  0.2294 -0.0498
   53MOL    C31 7415   6.720   1.239   7.665  0.7835 -0.2941 -0.2003
   53MOL    O32 7416   6.796   1.153   7.581 -0.2059  0.1642  0.0619
   53MOL    H33 7417   6.644   1.323   7.489 -0.2397 -0.8617 -0.3652
   53MOL    H34 7418   6.574   1.393   7.638 -0.4916  0.5165 -0.7156
   53MOL    H35 7419   6.686   1.185   7.753  3.3832  0.2933  1.2266
   53MOL    H36 7420   6.778   1.320   7.708 -0.9581  1.0532 -0.3408
   53MOL    C37 7421   6.924   1.115   7.639  0.9421  0.4461 -0.9697
   53MOL    C38 7422   7.028   1.188   7.558  0.5570 -0.5116  0.8532
   53MOL    O39 7423   7.042   1.323   7.586 -0.4628 -0.5191  0.7242
   53MOL    H40 7424   6.928   1.145   7.744  0.4166 -0.4806 -0.6792
   53MOL    H41 7425   6.936   1.007   7.647 -1.2321  0.2416  0.0079
   53MOL    H42 7426   7.000   1.184   7.453  0.8349  2.7492  0.6116
   53MOL    H43 7427   7.125   1.143   7.578 -0.5724 -2.7903  1.3968
   53MOL    C44 7428   7.137   1.394   7.508  0.6128 -0.2312  0.3280
   53MOL    C45 7429   7.286   1.357   7.516  0.4031 -0.5943 -0.4904
   53MOL    O46 7430   7.327   1.269   7.416  0.0722 -0.0014 -0.1334
   53MOL    H47 7431   7.116   1.384   7.402  1.2412  2.4498 -0.0937
   53MOL    H48 7432   7.123   1.497   7.543  0.6097 -0.0398 -0.2454
   53MOL    H49 7433   7.301   1.334   7.621 -0.0150  1.0850 -0.0376
   53MOL    H50 7434   7.343   1.450   7.508  2.5259 -1.9310 -1.0428
   53MOL    C51 7435   7.467   1.267   7.401  0.2322 -0.1557  0.0273
   53MOL    C52 7436   7.506   1.144   7.316 -0.2188  0.4905  0.1518
   53MOL    O53 7437   7.545   1.034   7.391 -0.2577 -0.3179 -0.8012
   53MOL    H54 7438   7.485   1.359   7.345  2.3332  1.3609  3.0502
   53MOL    H55 7439   7.510   1.277   7.501  3.4358  2.0453 -1.4828
   53MOL    H56 7440   7.583   1.181   7.248 -1.4946 -0.6680 -1.9632
   53MOL    H57 7441   7.423   1.122   7.248  0.5292 -1.4979 -0.1321
   53MOL    C58 7442   7.624   0.942   7.312 -0.6635  0.0370  0.8337
   53MOL    C59 7443   7.657   0.819   7.395  0.3717 -0.5454  0.4928
   53MOL    O60 7444   7.551   0.728   7.371  0.3298  0.1169  0.1842
   53MOL    H61 7445   7.564   0.911   7.227 -0.6513  1.9843  0.1024
   53MOL    H62 7446   7.722   0.973   7.276 -0.1338 -0.9900  1.3694
   53MOL    H63 7447   7.665   0.856   7.497  0.4447  0.1913  0.2274
   53MOL    H64 7448   7.752   0.775   7.365  0.9430  0.9095  0.1057
   53MOL    C65 7449   7.566   0.612   7.447 -0.2058  0.9962  0.1646
   53MOL    C66 7450   7.461   0.507   7.420 -0.4159 -0.0400 -0.5090
   53MOL    O67 7451   7.512   0.388   7.466 -0.3623 -0.2170  0.3229
   53MOL    H68 7452   7.657   0.563   7.412 -0.2688  0.7866  0.2923
   53MOL    H69 7453   7.565   0.624   7.556 -2.6442 -1.6448  0.4960
   53MOL    H70 7454   7.451   0.505   7.312  0.5124 -0.2291 -0.5952
   53MOL    H71 7455   7.364   0.533   7.463  0.0423 -1.1084  1.2258
   53MOL    C72 7456   7.433   0.272   7.424  0.3283 -0.0026  0.3273
   53MOL    C73 7457   7.524   0.141   7.445  0.5574 -0.4598  0.3689
   53MOL    O74 7458   7.616   0.129   7.340 -0.5720  0.4172  0.6178
   53MOL    H75 7459   7.340   0.277   7.480  1.0861 -0.3594  1.6223
   53MOL    H76 7460   7.407   0.287   7.319 -1.9631 -1.5071  0.6367
   53MOL    H77 7461   7.458   0.055   7.434 -0.1978 -0.3880  3.7888
   53MOL    H78 7462   7.576   0.143   7.540 -0.5440  0.6953  0.9698
   53MOL    C79 7463   7.693   0.009   7.334 -0.5013 -0.4789 -0.2226
   53MOL    C80 7464   0.061   0.049   7.272  0.2970  0.9231 -0.0574
   53MOL    O81 7465   0.057   0.048   7.133 -0.2829  0.3630  0.1960
   53MOL    H82 7466   7.710   7.743   7.435 -0.0692  0.7648  0.1714
   53MOL    H83 7467   7.637   7.709   7.274  0.3060 -0.3071 -1.1848
   53MOL    H84 7468   0.123   7.739   7.310 -0.9480  0.3659  0.8447
   53MOL    H85 7469   0.094   0.149   7.301  2.7772  0.3299 -0.7143
   53MOL    C86 7470   0.183   0.098   7.079  0.3291  0.3126  0.8195
   53MOL    C87 7471   0.220   0.014   6.957  0.5147 -0.7641  0.0902
   53MOL    O88 7472   0.324   0.070   6.881  0.1816  0.0402  0.4008
   53MOL    H89 7473   0.167   0.201   7.046 -0.2447 -0.8478 -2.7335
   53MOL    H90 7474   0.262   0.090   7.154 -0.0073  1.2319  1.2893
   53MOL    H91 7475   0.124   0.005   6.906  0.3456  1.7458 -0.0760
   53MOL    H92 7476   0.245   7.685   6.992 -1.5151 -1.6659 -0.9407
   53MOL    C93 7477   0.408   7.737   6.832 -0.3254 -0.6354  0.5955
   53MOL    C94 7478   0.521   0.006   6.740  0.0666 -0.1736  0.0805
   53MOL    O95 7479   0.616   7.665   6.760  0.2814 -0.0313 -0.2915
   53MOL    H96 7480   0.450   7.689   6.920  1.3079  0.4773  0.4389
   53MOL    H97 7481   0.350   7.659   6.783  1.1512 -0.7028 -1.1433
   53MOL    H98 7482   0.583   0.091   6.769 -1.2017  1.7578 -2.6456
   53MOL    H99 7483   0.493   0.019   6.635 -0.5239  1.1092  0.3899
   53MOL   C100 7484   0.708   7.643   6.655  0.2024  0.2235 -0.1093
   53MOL   C101 7485   0.780   7.514   6.696 -0.2844  0.3372 -0.0310
   53MOL   O102 7486   0.681   7.413   6.680 -0.1071  0.5951  0.1576
   53MOL   H103 7487   0.659   7.620   6.560 -1.4703  1.9037  0.3076
   53MOL   H104 7488   0.775   7.729   6.650  0.7079 -0.1853 -0.3276
   53MOL   H105 7489   0.810   7.525   6.800  0.3414 -2.0306  0.0519
   53MOL   H106 7490   0.875   7.509   6.643  0.5153  0.2945  1.3803
   53MOL   C107 7491   0.714   7.321   6.575 -0.8029 -1.1952  0.0349
   53MOL   C108 7492   0.806   7.208   6.617 -0.3711  0.7127 -0.3014
   53MOL   O109 7493   0.938   7.255   6.596 -0.3972 -0.5310 -0.6143
   53MOL   H110 7494   0.620   7.274   6.546 -1.5170  0.9590 -1.2166
   53MOL   H111 7495   0.735   7.371   6.481 -0.0947 -0.3876  0.6084
   53MOL   H112 7496   0.801   7.121   6.552  2.7764  0.2559 -0.0376
   53MOL   H113 7497   0.797   7.173   6.720  1.7304  3.1190  0.7911
   53MOL   C114 7498   0.994   7.256   6.463  0.0810 -0.2241 -0.0416
   53MOL   C115 7499   1.090   7.378   6.443 -0.5270  0.0469  0.7365
   53MOL   O116 7500   1.020   7.486   6.422 -0.0402 -0.7778 -0.7172
   53MOL   H117 7501   1.049   7.169   6.429 -0.4627 -0.8155  0.5862
   53MOL   H118 7502   0.916   7.263   6.387  1.8336 -3.2925 -2.1949
   53MOL   H119 7503   1.152   7.370   6.353 -0.2661 -1.5467  1.0374
   53MOL   H120 7504   1.160   7.372   6.527  3.0678  0.8906 -2.0546
   53MOL   C121 7505   1.090   7.606   6.466  0.8647  0.1589  0.3380
   53MOL   C122 7506   1.003   7.732   6.462  0.3174 -0.1219  1.2194
   53MOL   O123 7507   0.983   7.768   6.325 -0.4651 -0.2646  0.4264
   53MOL   H124 7508   1.129   7.593   6.567  1.0285 -0.8682  0.1487
   53MOL   H125 7509   1.173   7.627   6.398  0.7210 -0.1957  0.0547
   53MOL   H126 7510   1.022   0.057   6.510 -0.7782 -0.0014  1.4359
   53MOL   H127 7511   0.906   7.701   6.500  0.2673 -2.3686 -0.6234
   53MOL   C128 7512   0.875   0.092   6.320 -0.4950 -0.5665 -0.2203
   53MOL   C129 7513   0.832   0.117   6.177 -0.5068  0.1795 -0.1204
   53MOL   O130 7514   0.952   0.162   6.110  0.1676  0.2243  0.3351
   53MOL   H131 7515   0.785   0.069   6.377 -0.1330 -0.4734  0.3987
   53MOL   H132 7516   0.897   0.190   6.362 -4.0594  0.3094 -0.2445
   53MOL   H133 7517   0.749   0.187   6.169  0.9258  1.6987 -2.3469
   53MOL   H134 7518   0.803   0.023   6.128  0.0242  0.3166 -0.7160
   53MOL   C135 7519   0.948   0.140   5.971 -0.4795  0.1096  0.6920
   53MOL   C136 7520   1.077   0.177   5.898 -0.0367  0.1239  0.2389
   53MOL   O137 7521   1.042   0.257   5.779  0.4663 -0.2292 -0.0625
   53MOL   H138 7522   0.933   0.033   5.954  1.2534 -0.4820  2.6190
   53MOL   H139 7523   0.869   0.200   5.925 -0.3747 -0.8673 -0.8075
   53MOL   H140 7524   1.130   0.090   5.859 -0.6673 -0.0207 -0.3127
   53MOL   H141 7525   1.137   0.229   5.973 -1.4393  1.1301  0.6877
   53MOL   H142 7526   1.112   0.318   5.760 -0.9356  2.6078  3.4615
   54MOL     C1 7527   2.950   5.600   0.177 -1.0052  0.1631 -0.3059
   54MOL     C2 7528   2.944   5.745   0.157 -0.8094  0.3563  0.1426
   54MOL     O3 7529   2.873   5.797   0.272 -0.0377  0.7646 -0.2028
   54MOL     H4 7530   2.847   5.566   0.187 -0.6009 -1.0063  0.0030
   54MOL     H5 7531   2.994   5.574   0.274  0.1243 -0.9032 -1.0967
   54MOL     H6 7532   2.889   5.774   0.068  2.0929  1.3652 -1.3888
   54MOL     H7 7533   3.036   5.802   0.147  0.4068 -1.2973  1.5411
   54MOL     H8 7534   3.000   5.552   0.093  0.0214  0.4191  0.1530
   54MOL     C9 7535   2.837   5.939   0.262 -0.2345  0.2539 -0.1077
   54MOL    C10 7536   2.729   5.953   0.370  0.2780  0.3404 -0.2117
   54MOL    O11 7537   2.785   5.928   0.496 -0.0004 -0.0012  0.3321
   54MOL    H12 7538   2.920   6.004   0.288  1.2412 -1.5228 -0.3312
   54MOL    H13 7539   2.818   5.964   0.158  0.1526 -1.0753 -0.5129
   54MOL    H14 7540   2.653   5.877   0.351  0.5430  0.4755 -1.8703
   54MOL    H15 7541   2.687   6.054   0.372  1.5246  0.9733 -3.4473
   54MOL    C16 7542   2.698   5.955   0.606  0.4814  0.4107  0.2492
   54MOL    C17 7543   2.783   5.942   0.729  0.1099  0.3469 -0.9287
   54MOL    O18 7544   2.762   6.058   0.812 -0.6849 -0.0926  0.2118
   54MOL    H19 7545   2.663   6.058   0.591  0.6696  0.3757 -0.4789
   54MOL    H20 7546   2.611   5.890   0.599 -0.8551  2.2719 -0.9789
   54MOL    H21 7547   2.887   5.918   0.712  0.2810  0.8217 -0.5738
   54MOL    H22 7548   2.743   5.853   0.778  2.4511  0.5069  1.3787
   54MOL    C23 7549   2.709   6.019   0.941  0.4531 -0.0134 -0.2161
   54MOL    C24 7550   2.555   5.980   0.930 -0.1766 -0.4216  0.4596
   54MOL    O25 7551   2.538   5.842   0.902 -0.5002 -0.4926 -0.1918
   54MOL    H26 7552   2.774   5.940   0.977  0.5485  0.6546  1.0976
   54MOL    H27 7553   2.723   6.102   1.009 -0.1260 -0.8060  0.8781
   54MOL    H28 7554   2.508   6.041   0.852 -0.1437  1.4729  1.8761
   54MOL    H29 7555   2.498   6.024   1.012 -1.3859  1.3158 -1.2658
   54MOL    C30 7556   2.408   5.791   0.898 -0.3193 -0.5147 -0.3149
   54MOL    C31 7557   2.383   5.692   0.785  0.4731 -0.0267  0.0844
   54MOL    O32 7558   2.270   5.708   0.699 -0.3048 -0.3724 -0.0183
   54MOL    H33 7559   2.391   5.754   0.999 -1.9158  1.5500  0.2100
   54MOL    H34 7560   2.340   5.873   0.877 -0.5186 -0.1946  1.5072
   54MOL    H35 7561   2.377   5.595   0.833  0.5575 -0.5343 -0.9233
   54MOL    H36 7562   2.471   5.692   0.719  0.6368 -1.7732  0.2989
   54MOL    C37 7563   2.287   5.806   0.597 -0.6201  0.3165 -0.4064
   54MOL    C38 7564   2.149   5.845   0.544  0.1215  0.5226  0.1239
   54MOL    O39 7565   2.151   5.961   0.455  0.0868  0.3538 -0.7010
   54MOL    H40 7566   2.330   5.899   0.634  2.7345 -1.3381  0.0080
   54MOL    H41 7567   2.354   5.778   0.517 -1.3184 -0.0579 -0.8654
   54MOL    H42 7568   2.095   5.873   0.634 -1.9131 -0.5292 -0.7443
   54MOL    H43 7569   2.094   5.762   0.500 -2.4574  1.9204  0.5990
   54MOL    C44 7570   2.017   5.983   0.414 -0.4043 -0.6648 -0.0666
   54MOL    C45 7571   2.028   6.110   0.323  0.3445  0.6923  0.0229
   54MOL    O46 7572   1.921   6.123   0.243  0.3454  0.1584 -0.0807
   54MOL    H47 7573   1.978   5.895   0.364  0.2808 -2.1027  1.8392
   54MOL    H48 7574   1.948   6.005   0.496  2.2636  1.1417  1.7804
   54MOL    H49 7575   2.114   6.094   0.259 -0.7151 -0.5201 -1.1223
   54MOL    H50 7576   2.049   6.198   0.384  0.0899 -0.1987  1.4483
   54MOL    C51 7577   1.923   6.245   0.164 -0.1284 -0.5886  0.4140
   54MOL    C52 7578   1.790   6.250   0.079 -0.4455 -0.6552 -0.0817
   54MOL    O53 7579   1.792   6.175   7.727  0.0735  0.2240  0.0879
   54MOL    H54 7580   1.920   6.328   0.234  2.3201 -1.1179  1.1796
   54MOL    H55 7581   2.003   6.247   0.090  1.4166 -0.8956  2.0556
   54MOL    H56 7582   1.765   6.355   0.067  1.3443 -0.4057 -1.8821
   54MOL    H57 7583   1.705   6.206   0.131 -0.6742  1.3413  1.2920
   54MOL    C58 7584   1.685   6.190   7.642  0.2170  0.3005  0.7374
   54MOL    C59 7585   1.732   6.133   7.505  0.1315  0.6372  0.6164
   54MOL    O60 7586   1.826   6.217   7.435 -0.2693  0.2009  0.1282
   54MOL    H61 7587   1.598   6.135   7.676  1.8647 -1.2463  2.5402
   54MOL    H62 7588   1.654   6.295   7.640 -0.4084  0.1013 -0.6649
   54MOL    H63 7589   1.640   6.139   7.446  0.9766 -1.1065 -0.9287
   54MOL    H64 7590   1.756   6.027   7.512 -1.6035  0.1882  0.0920
   54MOL    C65 7591   1.858   6.158   7.307 -0.1357  0.1750 -0.4147
   54MOL    C66 7592   1.917   6.266   7.213  0.2337  0.3992  0.3650
   54MOL    O67 7593   1.805   6.328   7.138  0.0174 -0.2708  0.1215
   54MOL    H68 7594   1.930   6.078   7.321 -1.6577 -0.8920  1.6525
   54MOL    H69 7595   1.773   6.112   7.256  0.2309  0.7198 -1.5464
   54MOL    H70 7596   1.973   6.211   7.138  0.0830 -1.9475  1.9038
   54MOL    H71 7597   1.993   6.327   7.262  1.0780 -0.2426 -0.1450
   54MOL    C72 7598   1.842   6.426   7.042 -0.7559 -0.3604  0.3726
   54MOL    C73 7599   1.917   6.545   7.105  0.5414  0.0214 -0.1619
   54MOL    O74 7600   2.057   6.531   7.095 -0.1077 -0.8215  0.3218
   54MOL    H75 7601   1.904   6.385   6.962 -2.2093  0.5298 -1.2556
   54MOL    H76 7602   1.760   6.465   6.981  1.1363  0.8794 -1.4362
   54MOL    H77 7603   1.886   6.560   7.209  1.0376 -0.5232  0.0627
   54MOL    H78 7604   1.889   6.633   7.047  0.9564  0.7782  0.7579
   54MOL    C79 7605   2.120   6.625   7.187  0.3314  0.7675 -0.0304
   54MOL    C80 7606   2.278   6.615   7.164  0.4353 -0.4239  0.7471
   54MOL    O81 7607   2.333   6.706   7.069 -0.4324 -0.3789  0.1173
   54MOL    H82 7608   2.069   6.721   7.199 -1.9621 -0.5070  0.6021
   54MOL    H83 7609   2.102   6.585   7.287  2.7926 -0.3168  0.0047
   54MOL    H84 7610   2.306   6.512   7.141 -2.0855 -0.8544 -0.5777
   54MOL    H85 7611   2.326   6.633   7.260 -1.4760  0.7154  1.5220
   54MOL    C86 7612   2.268   6.696   6.938  0.3314 -0.0831 -0.2773
   54MOL    C87 7613   2.359   6.757   6.826 -0.5091  0.3345  0.2162
   54MOL    O88 7614   2.348   6.899   6.842 -0.1218  0.4920  0.3295
   54MOL    H89 7615   2.263   6.589   6.916  2.8222 -0.1173 -0.7932
   54MOL    H90 7616   2.170   6.745   6.934 -0.0897 -1.0781 -3.8213
   54MOL    H91 7617   2.319   6.720   6.731 -0.6284  3.2322 -0.9081
   54MOL    H92 7618   2.464   6.730   6.819 -0.3209  1.5190 -2.2679
   54MOL    C93 7619   2.386   6.980   6.736  0.0244 -0.1475 -0.0721
   54MOL    C94 7620   2.371   7.136   6.771 -0.3458 -0.3620 -0.1891
   54MOL    O95 7621   2.237   7.187   6.780 -0.0319  0.5195 -0.0962
   54MOL    H96 7622   2.488   6.958   6.705  1.4664  2.2421  2.7657
   54MOL    H97 7623   2.326   6.952   6.649 -2.4481  0.3700  1.4306
   54MOL    H98 7624   2.417   7.183   6.684 -1.1768 -0.2521 -0.5726
   54MOL    H99 7625   2.439   7.175   6.846 -0.6892  0.3928 -0.2712
   54MOL   C100 7626   2.229   7.321   6.742  0.7128  0.1882 -0.0133
   54MOL   C101 7627   2.091   7.375   6.770 -0.2727  0.1322  0.3309
   54MOL   O102 7628   2.067   7.487   6.683 -0.5022  0.4457  0.2299
   54MOL   H103 7629   2.304   7.371   6.803  1.2190  0.1190 -0.5780
   54MOL   H104 7630   2.248   7.319   6.635 -2.2609 -2.4288 -0.5862
   54MOL   H105 7631   2.090   7.399   6.876 -0.2515  0.7321  0.1942
   54MOL   H106 7632   2.020   7.293   6.759 -1.0210  0.7095  0.8714
   54MOL   C107 7633   1.999   7.585   6.738  0.5207  0.4459  0.3460
   54MOL   C108 7634   1.846   7.549   6.740 -0.0619 -0.0117 -0.0707
   54MOL   O109 7635   1.803   7.526   6.874 -0.0904 -0.3574  0.9355
   54MOL   H110 7636   2.042   7.619   6.831  1.7600 -0.9200  0.2812
   54MOL   H111 7637   2.007   7.676   6.679  0.2502  1.8312  2.4308
   54MOL   H112 7638   1.836   7.466   6.670  1.1817  0.5222 -0.9056
   54MOL   H113 7639   1.791   7.630   6.692 -0.6077 -0.9682 -1.0502
   54MOL   C114 7640   1.670   7.504   6.903 -0.1585  0.4532  0.2709
   54MOL   C115 7641   1.612   7.379   6.836  0.8536  0.3934  0.6997
   54MOL   O116 7642   1.582   7.418   6.702 -0.3559 -0.3878 -0.1985
   54MOL   H117 7643   1.669   7.490   7.011  0.0096 -1.6199  0.0174
   54MOL   H118 7644   1.612   7.591   6.871  0.9125  0.8986 -0.4771
   54MOL   H119 7645   1.515   7.350   6.877  1.0685 -1.3617  0.0292
   54MOL   H120 7646   1.686   7.299   6.839 -0.7078 -1.0543  1.6487
   54MOL   C121 7647   1.566   7.307   6.614 -0.0881 -0.1659  0.0791
   54MOL   C122 7648   1.525   7.344   6.477  0.2670 -0.0810  0.4686
   54MOL   O123 7649   1.508   7.237   6.385 -0.1121  0.1146 -0.2986
   54MOL   H124 7650   1.657   7.248   6.605  0.2278  0.6028 -2.1343
   54MOL   H125 7651   1.488   7.247   6.660  0.4601 -1.5060 -0.7192
   54MOL   H126 7652   1.589   7.425   6.442  1.3052 -0.5333  1.2850
   54MOL   H127 7653   1.426   7.390   6.478  0.5972  0.6413  0.0969
   54MOL   C128 7654   1.441   7.285   6.267  0.1039  0.1877 -0.8896
   54MOL   C129 7655   1.452   7.179   6.158 -0.3163 -0.1591 -0.1933
   54MOL   O130 7656   1.351   7.090   6.184  0.3764 -0.0193 -0.4858
   54MOL   H131 7657   1.335   7.304   6.281  0.0363  0.1757 -1.3792
   54MOL   H132 7658   1.479   7.382   6.235 -1.2721  0.9510 -0.2018
   54MOL   H133 7659   1.552   7.136   6.155  0.2713  1.2408 -1.3598
   54MOL   H134 7660   1.430   7.225   6.061  0.1059  0.0944 -0.1705
   54MOL   C135 7661   1.334   6.986   6.092 -0.6225 -0.5406  0.1893
   54MOL   C136 7662   1.207   6.925   6.145  0.0509  0.5139 -0.2246
   54MOL   O137 7663   1.091   7.007   6.126  0.2699 -0.5190  0.0692
   54MOL   H138 7664   1.330   7.021   5.989  0.2987  3.3487  1.3863
   54MOL   H139 7665   1.421   6.921   6.105  0.4917  1.1220  1.2502
   54MOL   H140 7666   1.215   6.895   6.250 -0.3865 -1.1111 -0.6440
   54MOL   H141 7667   1.186   6.838   6.083  0.2652  0.5028 -0.2789
   54MOL   H142 7668   1.116   7.095   6.103 -2.7366  1.0099  2.3525
   55MOL     C1 7669   0.772   5.183   6.539  0.7552 -0.6266  0.5731
   55MOL     C2 7670   0.691   5.300   6.482 -1.2721  0.3327 -0.1142
   55MOL     O3 7671   0.626   5.261   6.359  0.1953  0.1128 -0.4187
   55MOL     H4 7672   0.856   5.162   6.473  0.8031  2.2952 -0.3663
   55MOL     H5 7673   0.713   5.097   6.571 -0.6748  0.4041  0.7853
   55MOL     H6 7674   0.749   5.392   6.470  0.1029 -0.0579  2.9213
   55MOL     H7 7675   0.618   5.323   6.560 -1.3472  0.1125 -0.1194
   55MOL     H8 7676   0.837   5.200   6.625 -0.0821  0.6588  0.9706
   55MOL     C9 7677   0.710   5.283   6.245  0.3264 -0.8078  1.2446
   55MOL    C10 7678   0.634   5.241   6.121 -0.0717  0.0034 -0.2871
   55MOL    O11 7679   0.726   5.211   6.017 -0.1181  0.7005  0.8439
   55MOL    H12 7680   0.739   5.386   6.226 -0.9965  0.0013  3.4015
   55MOL    H13 7681   0.788   5.208   6.252  1.4160  0.2403  0.4363
   55MOL    H14 7682   0.559   5.314   6.091  0.0593  0.0203 -0.5804
   55MOL    H15 7683   0.571   5.156   6.147 -1.4937  0.6367 -1.5876
   55MOL    C16 7684   0.643   5.225   5.890  0.1163 -0.4111 -0.0704
   55MOL    C17 7685   0.719   5.200   5.764 -0.1162 -0.0437 -0.2278
   55MOL    O18 7686   0.810   5.308   5.752 -0.4910 -0.1404 -0.2084
   55MOL    H19 7687   0.568   5.146   5.897 -0.6555  0.0963 -2.1923
   55MOL    H20 7688   0.589   5.317   5.871  0.4422 -0.4992 -1.5304
   55MOL    H21 7689   0.650   5.202   5.680 -1.2068  1.3001  0.6667
   55MOL    H22 7690   0.762   5.101   5.775  0.2874  0.2694  1.1526
   55MOL    C23 7691   0.922   5.284   5.668  0.2970  0.4494 -0.4867
   55MOL    C24 7692   0.899   5.280   5.521 -0.3129 -0.2870 -0.1859
   55MOL    O25 7693   0.806   5.184   5.481 -0.1600 -0.1861 -0.3463
   55MOL    H26 7694   0.985   5.370   5.690 -0.5404  0.7912  0.6385
   55MOL    H27 7695   0.970   5.195   5.710 -0.2029  1.0544  1.4330
   55MOL    H28 7696   0.999   5.266   5.480 -0.7641  1.1612 -1.8707
   55MOL    H29 7697   0.865   5.375   5.479  1.9231  0.5178 -0.2574
   55MOL    C30 7698   0.774   5.176   5.346  0.7953 -0.2630  0.2184
   55MOL    C31 7699   0.661   5.274   5.325 -0.7446  0.2353  0.0282
   55MOL    O32 7700   0.535   5.222   5.384 -0.0812  0.1267  0.2763
   55MOL    H33 7701   0.865   5.200   5.292 -0.4139  1.4466 -1.0975
   55MOL    H34 7702   0.746   5.076   5.315  2.0448 -0.9935  1.3464
   55MOL    H35 7703   0.635   5.294   5.221 -1.0738  1.9578  0.4249
   55MOL    H36 7704   0.687   5.372   5.366 -1.7629 -0.2095  1.8273
   55MOL    C37 7705   0.430   5.319   5.409 -0.0659  0.3448  0.5453
   55MOL    C38 7706   0.306   5.239   5.462  0.5428 -0.1146 -0.4817
   55MOL    O39 7707   0.196   5.287   5.384  0.4026 -0.2895  0.2935
   55MOL    H40 7708   0.454   5.397   5.481  1.8957  0.8740 -0.6362
   55MOL    H41 7709   0.401   5.368   5.316 -2.0278 -1.1967  0.3077
   55MOL    H42 7710   0.285   5.270   5.564  2.3366  0.5426 -0.3023
   55MOL    H43 7711   0.315   5.131   5.449  0.5866 -0.2058  0.3299
   55MOL    C44 7712   0.078   5.222   5.428  0.2018 -0.2278 -0.6546
   55MOL    C45 7713   7.731   5.260   5.348 -0.5378 -0.2469  0.5217
   55MOL    O46 7714   7.717   5.196   5.221 -0.0134  0.0810 -0.1542
   55MOL    H47 7715   0.093   5.115   5.443  1.5294 -0.2948 -2.3338
   55MOL    H48 7716   0.058   5.261   5.528 -1.2896 -0.3274 -0.9154
   55MOL    H49 7717   7.752   5.366   5.336  1.5839 -0.6302  0.6666
   55MOL    H50 7718   7.635   5.258   5.400 -1.5895  3.1831 -1.2046
   55MOL    C51 7719   7.598   5.235   5.141 -0.3334 -0.1680  0.4887
   55MOL    C52 7720   7.599   5.163   5.002  0.8653 -0.2091  0.2458
   55MOL    O53 7721   7.717   5.199   4.925 -0.3321 -0.7289 -0.3857
   55MOL    H54 7722   7.511   5.202   5.198  0.8027 -3.8628  0.2194
   55MOL    H55 7723   7.595   5.343   5.131  2.4307  0.0070  1.1350
   55MOL    H56 7724   7.508   5.200   4.954  0.2863 -1.4948  0.3351
   55MOL    H57 7725   7.613   5.059   5.029 -0.3239  0.1312  2.2973
   55MOL    C58 7726   7.746   5.097   4.830  0.1785  0.1131  0.0223
   55MOL    C59 7727   0.112   5.129   4.761 -0.5718 -0.4112  0.3856
   55MOL    O60 7728   0.221   5.065   4.830 -0.1104 -1.1158  0.3864
   55MOL    H61 7729   7.750   4.996   4.871  1.7146  1.4538  3.3088
   55MOL    H62 7730   7.669   5.098   4.752 -0.0082 -1.7087  0.1729
   55MOL    H63 7731   0.125   5.237   4.749  0.2466 -0.2574  2.4087
   55MOL    H64 7732   0.106   5.084   4.662 -1.4346  2.6078 -0.9811
   55MOL    C65 7733   0.252   5.129   4.954 -0.4102  0.4306 -0.1121
   55MOL    C66 7734   0.371   5.046   5.011 -0.2377 -0.1505 -0.4184
   55MOL    O67 7735   0.490   5.049   4.939 -0.2585  0.2660 -0.0912
   55MOL    H68 7736   0.277   5.233   4.934  2.5665  0.1864  2.0658
   55MOL    H69 7737   0.161   5.127   5.014 -0.9613 -3.3262 -0.9144
   55MOL    H70 7738   0.354   4.940   5.032  1.9841 -0.1441  1.5686
   55MOL    H71 7739   0.390   5.071   5.115  2.0628 -0.7136 -0.6676
   55MOL    C72 7740   0.602   4.984   5.005 -0.6677  0.0280  0.2141
   55MOL    C73 7741   0.736   5.008   4.932 -0.2289 -0.5960 -0.6104
   55MOL    O74 7742   0.800   5.130   4.966 -0.1666 -0.7210 -0.4074
   55MOL    H75 7743   0.608   5.017   5.109  0.3583  0.9423 -0.1242
   55MOL    H76 7744   0.579   4.879   5.020 -1.2491  0.1054 -0.0865
   55MOL    H77 7745   0.721   4.998   4.825  1.3919  0.8894 -0.9936
   55MOL    H78 7746   0.809   4.928   4.947  0.3820  0.1802  0.5712
   55MOL    C79 7747   0.756   5.233   4.888  0.5927 -0.4416 -0.8599
   55MOL    C80 7748   0.803   5.376   4.943 -0.3921  0.2780 -0.4478
   55MOL    O81 7749   0.707   5.438   5.029 -0.6525  0.3625  0.0231
   55MOL    H82 7750   0.785   5.230   4.783 -0.8596 -0.5528 -1.2670
   55MOL    H83 7751   0.649   5.238   4.872  0.2188 -0.4594  1.4187
   55MOL    H84 7752   0.822   5.438   4.855 -0.5634  1.3246  0.2453
   55MOL    H85 7753   0.893   5.371   5.004 -0.2025  1.2010 -0.6394
   55MOL    C86 7754   0.765   5.548   5.097 -0.4204  0.5627 -0.4672
   55MOL    C87 7755   0.657   5.601   5.189 -0.2749  0.5520  0.1099
   55MOL    O88 7756   0.718   5.700   5.276 -0.0427  0.6434  0.1634
   55MOL    H89 7757   0.845   5.516   5.163 -2.0677  0.7742  1.6741
   55MOL    H90 7758   0.801   5.621   5.024  2.3807  1.3392  1.6103
   55MOL    H91 7759   0.608   5.521   5.245  1.3504 -0.2337  0.4628
   55MOL    H92 7760   0.590   5.650   5.119  0.8966  0.5055 -1.0707
   55MOL    C93 7761   0.759   5.646   5.406  0.0195 -0.0418  0.3122
   55MOL    C94 7762   0.802   5.757   5.506  0.0891 -0.1810  0.7795
   55MOL    O95 7763   0.893   5.711   5.596  0.4059 -0.1086  0.6729
   55MOL    H96 7764   0.681   5.582   5.445  0.7494  1.0573  3.8175
   55MOL    H97 7765   0.850   5.587   5.393 -1.3130 -2.1677  0.4228
   55MOL    H98 7766   0.714   5.793   5.559  2.1020 -1.1983  4.9809
   55MOL    H99 7767   0.843   5.839   5.447 -0.0587 -1.4926 -1.1876
   55MOL   C100 7768   0.934   5.801   5.704  0.6562  0.0213 -0.3333
   55MOL   C101 7769   0.971   5.726   5.830  0.4161  0.3070  0.0318
   55MOL   O102 7770   0.850   5.701   5.904  0.0271  0.4726 -0.1064
   55MOL   H103 7771   1.019   5.852   5.657  0.5026 -0.1765 -0.8284
   55MOL   H104 7772   0.874   5.888   5.730 -1.2788 -1.5359  0.4555
   55MOL   H105 7773   1.048   5.780   5.886  1.2440 -0.6224 -0.1989
   55MOL   H106 7774   1.013   5.631   5.799  1.0063  0.7885 -0.6802
   55MOL   C107 7775   0.805   5.808   5.979  0.6251  0.0092  0.0109
   55MOL   C108 7776   0.691   5.759   6.072  0.0457 -0.1822 -0.0696
   55MOL   O109 7777   0.566   5.732   6.011  0.2749 -0.0790  0.6292
   55MOL   H110 7778   0.884   5.844   6.045  0.3185  0.3465  0.1904
   55MOL   H111 7779   0.757   5.888   5.923  0.3394 -0.6782 -0.7376
   55MOL   H112 7780   0.693   5.821   6.161  0.6417 -0.2518 -0.0358
   55MOL   H113 7781   0.728   5.663   6.109  1.9720  0.8842  0.7994
   55MOL   C114 7782   0.558   5.603   5.943  0.1626 -0.3927  0.8731
   55MOL   C115 7783   0.578   5.619   5.786  0.4845 -0.2823 -0.2490
   55MOL   O116 7784   0.458   5.597   5.723  0.2003 -0.4791  0.4031
   55MOL   H117 7785   0.639   5.540   5.978  0.6264  0.5938  1.6248
   55MOL   H118 7786   0.465   5.559   5.978  0.2712 -0.3061  1.2761
   55MOL   H119 7787   0.650   5.547   5.748  0.5060 -0.9319  1.0009
   55MOL   H120 7788   0.624   5.717   5.769 -3.3181  1.3621 -1.8412
   55MOL   C121 7789   0.355   5.701   5.758 -0.1603 -0.5655  0.1402
   55MOL   C122 7790   0.233   5.700   5.655 -0.5420 -0.5477 -0.4749
   55MOL   O123 7791   0.249   5.777   5.544 -0.0746  0.0017  0.5360
   55MOL   H124 7792   0.328   5.688   5.863 -2.4136 -1.9338 -0.5676
   55MOL   H125 7793   0.411   5.794   5.744  0.7753 -1.3867 -1.7705
   55MOL   H126 7794   0.153   5.747   5.713 -1.9527 -1.1565 -1.8696
   55MOL   H127 7795   0.206   5.599   5.624 -1.9563 -0.3647  0.1095
   55MOL   C128 7796   0.353   5.733   5.456  0.5633 -0.1053 -0.4515
   55MOL   C129 7797   0.389   5.839   5.353 -0.7032 -0.0461  0.1169
   55MOL   O130 7798   0.447   5.944   5.437  0.5142 -0.4132 -0.3644
   55MOL   H131 7799   0.443   5.724   5.517  1.2467 -1.0703 -1.5673
   55MOL   H132 7800   0.325   5.639   5.410 -1.0264  0.8709 -1.5270
   55MOL   H133 7801   0.306   5.872   5.291  0.1916 -0.7893 -1.5147
   55MOL   H134 7802   0.472   5.797   5.296 -1.7601  0.2971 -1.7047
   55MOL   C135 7803   0.483   6.055   5.367 -0.3846  0.2670  0.2969
   55MOL   C136 7804   0.563   6.130   5.462  0.3145  0.7248 -0.4558
   55MOL   O137 7805   0.609   6.248   5.414 -0.4469 -0.2195 -0.5430
   55MOL   H138 7806   0.533   6.029   5.273 -0.0977 -0.7794  0.7336
   55MOL   H139 7807   0.392   6.103   5.331 -0.5661 -1.4323 -1.6104
   55MOL   H140 7808   0.657   6.076   5.474  1.1795  1.4928 -3.4061
   55MOL   H141 7809   0.519   6.147   5.560  2.9744  0.0413  0.8811
   55MOL   H142 7810   0.550   6.320   5.431  1.7831  1.4202  0.4343
   56MOL     C1 7811   7.577   6.142   5.272  0.3708  0.0244  0.6528
   56MOL     C2 7812   7.560   6.282   5.216  0.5501 -0.0646  0.0794
   56MOL     O3 7813   7.572   6.388   5.315 -0.0597 -0.5181  0.0952
   56MOL     H4 7814   7.486   6.095   5.308 -0.2914 -0.3816 -1.5024
   56MOL     H5 7815   7.655   6.135   5.349 -0.8139  0.1925  1.8839
   56MOL     H6 7816   7.465   6.315   5.172  0.9037 -0.4495 -0.9875
   56MOL     H7 7817   7.626   6.300   5.132 -0.5777  0.8473 -0.6397
   56MOL     H8 7818   7.618   6.079   5.193 -1.0781  0.4917 -0.4856
   56MOL     C9 7819   7.639   6.505   5.259  0.6683  0.0130 -0.8240
   56MOL    C10 7820   7.608   6.631   5.342 -0.1844 -0.3013  0.0348
   56MOL    O11 7821   7.680   6.624   5.468  0.3347  0.1232  0.2191
   56MOL    H12 7822   7.746   6.489   5.249  0.7513 -0.0457  0.1038
   56MOL    H13 7823   7.591   6.518   5.162  0.3517 -1.3559 -0.8617
   56MOL    H14 7824   7.502   6.634   5.368  0.2856 -0.1108  1.9976
   56MOL    H15 7825   7.622   6.722   5.284  0.2129 -0.7498 -0.5845
   56MOL    C16 7826   7.675   6.744   5.530  0.7783 -0.1877  0.0349
   56MOL    C17 7827   7.561   6.759   5.635 -0.1308 -0.4510 -0.5906
   56MOL    O18 7828   7.573   6.683   5.751  0.1962  0.2813  0.2400
   56MOL    H19 7829   7.763   6.754   5.593  0.6633  2.2460 -0.1291
   56MOL    H20 7830   7.690   6.831   5.466  1.9024  1.0696  1.9470
   56MOL    H21 7831   7.462   6.742   5.592 -0.7632  1.4107  0.1074
   56MOL    H22 7832   7.555   6.863   5.667  1.4389 -0.4252 -0.3704
   56MOL    C23 7833   7.527   6.553   5.736 -0.0724  0.6751  0.8120
   56MOL    C24 7834   7.560   6.482   5.865 -0.6583  0.1812  0.3282
   56MOL    O25 7835   7.449   6.503   5.955  0.4190  0.6352  0.4828
   56MOL    H26 7836   7.418   6.555   5.730 -0.1395 -1.2983  1.1620
   56MOL    H27 7837   7.562   6.504   5.645  0.3715  2.9803 -0.3079
   56MOL    H28 7838   7.656   6.525   5.897  0.8559 -0.6703 -2.8705
   56MOL    H29 7839   7.584   6.378   5.843 -1.0544  0.1310  0.1483
   56MOL    C30 7840   7.484   6.459   6.091  0.1745  0.1510 -0.5705
   56MOL    C31 7841   7.382   6.475   6.197  0.4725 -0.3968  0.3586
   56MOL    O32 7842   7.285   6.371   6.185  0.0801  0.1379 -0.5503
   56MOL    H33 7843   7.532   6.363   6.110  2.0117  1.5940  2.4555
   56MOL    H34 7844   7.556   6.531   6.129 -0.8813  1.2658 -0.6411
   56MOL    H35 7845   7.326   6.569   6.192  1.8345  0.4556  0.7332
   56MOL    H36 7846   7.413   6.478   6.302 -1.2433 -1.5809  0.9163
   56MOL    C37 7847   7.174   6.397   6.096 -0.3146 -0.0449 -0.2686
   56MOL    C38 7848   7.170   6.284   5.996 -0.0647  0.3022 -0.1310
   56MOL    O39 7849   7.057   6.290   5.913 -0.0455 -0.0858  0.3038
   56MOL    H40 7850   7.076   6.395   6.142 -0.3918 -2.6842 -0.4776
   56MOL    H41 7851   7.180   6.487   6.036  0.2988 -2.2655 -3.7054
   56MOL    H42 7852   7.164   6.194   6.058 -0.0392  0.6761  0.4234
   56MOL    H43 7853   7.262   6.279   5.938  1.4176 -2.0037  2.2639
   56MOL    C44 7854   7.058   6.184   5.817  0.2827  0.2779 -0.0814
   56MOL    C45 7855   6.954   6.196   5.699  0.9880  0.1284 -0.0886
   56MOL    O46 7856   6.826   6.157   5.753 -0.4812  0.3083  0.0499
   56MOL    H47 7857   7.156   6.172   5.772  1.0373  2.6865  0.8765
   56MOL    H48 7858   7.031   6.091   5.868 -1.7674 -0.5643 -2.5572
   56MOL    H49 7859   6.982   6.132   5.615  1.8508  1.4792 -0.8638
   56MOL    H50 7860   6.968   6.295   5.654 -2.3180  0.5022 -0.4366
   56MOL    C51 7861   6.723   6.209   5.671  0.2307 -0.0577  0.3248
   56MOL    C52 7862   6.723   6.139   5.533 -0.9267 -0.1398 -0.6293
   56MOL    O53 7863   6.804   6.220   5.443  0.7339 -0.3919  0.1708
   56MOL    H54 7864   6.628   6.201   5.722  0.1136  1.3570  0.3343
   56MOL    H55 7865   6.722   6.316   5.652 -0.4350 -0.1328 -0.0868
   56MOL    H56 7866   6.617   6.134   5.510 -1.4008 -0.0701  1.4162
   56MOL    H57 7867   6.748   6.033   5.537 -0.7201 -0.0724 -0.1008
   56MOL    C58 7868   6.861   6.134   5.341 -0.7723 -0.6384  0.0719
   56MOL    C59 7869   6.975   6.200   5.261  0.2766  0.7169  0.1140
   56MOL    O60 7870   7.059   6.246   5.363 -0.2375  0.0891 -0.3837
   56MOL    H61 7871   6.890   6.039   5.387  0.3931 -0.9505 -1.2484
   56MOL    H62 7872   6.792   6.096   5.266 -1.1034 -0.1134  0.1110
   56MOL    H63 7873   6.942   6.280   5.196 -1.3494  0.3075  0.3963
   56MOL    H64 7874   7.023   6.124   5.200 -0.5346 -0.2399  0.6477
   56MOL    C65 7875   7.185   6.292   5.312 -0.1248  0.8277 -0.1284
   56MOL    C66 7876   7.272   6.339   5.425  0.5320  0.2901 -0.1109
   56MOL    O67 7877   7.328   6.217   5.481  0.1223 -1.1788 -0.1372
   56MOL    H68 7878   7.235   6.223   5.244 -0.2760 -0.2376  0.8453
   56MOL    H69 7879   7.161   6.378   5.249 -1.9899  0.8759  0.6358
   56MOL    H70 7880   7.210   6.380   5.504  0.1388 -0.2891 -0.1210
   56MOL    H71 7881   7.344   6.417   5.398  2.5670 -1.1700  0.9139
   56MOL    C72 7882   7.408   6.260   5.583 -0.8953  0.2365 -0.2028
   56MOL    C73 7883   7.483   6.141   5.645 -0.2377  0.4122 -0.4538
   56MOL    O74 7884   7.382   6.069   5.715  0.0882 -0.6703 -0.1950
   56MOL    H75 7885   7.485   6.324   5.539  1.5612 -2.2620  0.3222
   56MOL    H76 7886   7.346   6.316   5.653 -0.3679 -0.3780  0.7734
   56MOL    H77 7887   7.552   6.188   5.715 -1.4917 -0.7376  1.6016
   56MOL    H78 7888   7.535   6.069   5.582 -2.3379 -1.6642  0.0940
   56MOL    C79 7889   7.437   5.967   5.794  0.1267 -0.1441 -0.0262
   56MOL    C80 7890   7.322   5.876   5.835  0.1591 -0.3963 -0.0656
   56MOL    O81 7891   7.246   5.944   5.932  0.3543  0.1080 -0.2156
   56MOL    H82 7892   7.511   5.906   5.743  0.1623 -0.0662 -0.0671
   56MOL    H83 7893   7.494   5.993   5.883  1.0386 -0.8821 -0.3922
   56MOL    H84 7894   7.369   5.788   5.881  2.1360 -0.2248 -1.6976
   56MOL    H85 7895   7.278   5.835   5.744  1.6565  0.1459 -1.0518
   56MOL    C86 7896   7.147   5.860   5.996  0.1298  0.2099 -0.3724
   56MOL    C87 7897   7.204   5.754   6.098 -0.0284 -1.1061 -0.3166
   56MOL    O88 7898   7.253   5.631   6.050  0.2609 -0.5933  0.3440
   56MOL    H89 7899   7.080   5.931   6.044  1.5985  1.5202 -0.2202
   56MOL    H90 7900   7.080   5.807   5.929 -0.9120 -0.0530  0.8494
   56MOL    H91 7901   7.121   5.729   6.165 -1.9427  3.9049 -0.6142
   56MOL    H92 7902   7.273   5.814   6.158 -0.8817 -0.7765  0.3430
   56MOL    C93 7903   7.328   5.568   6.160  0.1316  0.0285  0.3543
   56MOL    C94 7904   7.383   5.429   6.120  0.4749  0.3039 -0.2012
   56MOL    O95 7905   7.311   5.318   6.171  0.3176 -0.3031 -0.1384
   56MOL    H96 7906   7.417   5.625   6.186  0.3679 -0.7511  1.3323
   56MOL    H97 7907   7.272   5.553   6.253 -1.3212  0.2232 -0.4682
   56MOL    H98 7908   7.486   5.423   6.155  0.4225 -0.6262 -0.1915
   56MOL    H99 7909   7.389   5.428   6.011 -0.0266 -0.9953 -0.2311
   56MOL   C100 7910   7.325   5.189   6.115 -0.5334 -0.3873 -0.4553
   56MOL   C101 7911   7.456   5.121   6.162  0.3663  0.1329  0.4641
   56MOL   O102 7912   7.563   5.201   6.102 -0.2032  0.7293  0.1507
   56MOL   H103 7913   7.251   5.121   6.156 -0.9417 -0.7114 -1.6857
   56MOL   H104 7914   7.324   5.188   6.006 -0.8528  1.2572 -0.4790
   56MOL   H105 7915   7.449   5.021   6.121  1.3238  0.7117 -1.1430
   56MOL   H106 7916   7.455   5.125   6.271  1.0014  0.4534  0.4639
   56MOL   C107 7917   7.688   5.165   6.152 -0.4378  0.1251  0.4746
   56MOL   C108 7918   0.038   5.255   6.131 -0.4593  0.9887 -0.0427
   56MOL   O109 7919   0.092   5.254   5.996 -0.1813  0.2893 -0.1639
   56MOL   H110 7920   7.667   5.166   6.259  0.6984 -0.9695  0.7233
   56MOL   H111 7921   7.708   5.061   6.126 -1.0654  0.1494 -0.1395
   56MOL   H112 7922   0.117   5.209   6.191 -1.5450  0.2813  0.8466
   56MOL   H113 7923   0.012   5.353   6.171  1.3877  1.7146 -0.5707
   56MOL   C114 7924   0.226   5.287   5.984 -0.5300  0.6018  0.2264
   56MOL   C115 7925   0.256   5.279   5.827 -0.0768  0.1927  0.4204
   56MOL   O116 7926   0.297   5.155   5.771 -0.2177 -0.2630 -0.4563
   56MOL   H117 7927   0.243   5.394   5.996 -1.2119  0.6890  0.4227
   56MOL   H118 7928   0.284   5.222   6.050  0.2820  1.7631  0.6617
   56MOL   H119 7929   0.336   5.351   5.812 -1.1626  1.1629 -0.7830
   56MOL   H120 7930   0.179   5.331   5.770  0.6422 -1.3329 -2.0417
   56MOL   C121 7931   0.185   5.068   5.756 -0.0461 -0.2174  0.9094
   56MOL   C122 7932   0.222   4.934   5.689  0.2383 -0.2027 -0.3224
   56MOL   O123 7933   0.114   4.874   5.613  0.2490  0.1816 -0.5190
   56MOL   H124 7934   0.131   5.054   5.850  0.3277 -1.3828  0.9610
   56MOL   H125 7935   0.122   5.122   5.685  0.8640 -0.4555 -0.1009
   56MOL   H126 7936   0.264   4.874   5.769  1.9454 -0.1056 -1.1103
   56MOL   H127 7937   0.304   4.956   5.621 -0.8143  0.0853 -1.5276
   56MOL   C128 7938   0.153   4.742   5.580 -0.2479  0.6668 -0.5313
   56MOL   C129 7939   0.049   4.693   5.480 -0.7987 -0.3334 -0.3776
   56MOL   O130 7940   0.046   4.781   5.370 -0.5362  0.2381  0.2016
   56MOL   H131 7941   0.254   4.730   5.540  0.0928 -0.3691  0.5991
   56MOL   H132 7942   0.158   4.681   5.670 -1.7306 -1.9994 -2.1806
   56MOL   H133 7943   7.723   4.711   5.526 -1.0410 -0.6289 -0.7724
   56MOL   H134 7944   0.055   4.587   5.458  0.0548 -0.4287  0.2916
   56MOL   C135 7945   0.077   4.724   5.243  0.2914 -0.7549  0.0698
   56MOL   C136 7946   0.087   4.838   5.150 -0.3574 -0.2437 -0.2968
   56MOL   O137 7947   0.138   4.795   5.021  0.3166 -0.1375 -0.3297
   56MOL   H138 7948   0.166   4.662   5.239  1.3556  0.6049  1.8098
   56MOL   H139 7949   0.001   4.657   5.202  0.9463 -0.9798 -0.7998
   56MOL   H140 7950   0.155   4.915   5.186  1.2719 -0.7073 -2.2980
   56MOL   H141 7951   7.765   4.894   5.138 -0.2606 -0.1235 -0.4991
   56MOL   H142 7952   0.150   4.871   4.966  0.3103 -0.3740 -0.6556
   57MOL     C1 7953   5.587   5.528   2.822  0.3931  0.6065 -1.1959
   57MOL     C2 7954   5.555   5.577   2.968  0.5772 -0.0736  0.5032
   57MOL     O3 7955   5.586   5.711   2.979  1.0443 -0.3873  0.1989
   57MOL     H4 7956   5.512   5.560   2.750 -1.7143 -0.7622  0.3222
   57MOL     H5 7957   5.598   5.420   2.827 -1.1289  0.5110  4.8454
   57MOL     H6 7958   5.615   5.524   3.041 -1.8238 -1.6133  1.4195
   57MOL     H7 7959   5.448   5.568   2.986  0.2174  2.0255 -0.3587
   57MOL     H8 7960   5.691   5.550   2.797  0.7494  1.6227  1.0259
   57MOL     C9 7961   5.563   5.747   3.116  0.0296  0.1252 -0.4246
   57MOL    C10 7962   5.557   5.897   3.134  0.1223 -0.0556  0.3364
   57MOL    O11 7963   5.433   5.943   3.076 -0.0080  0.4586  0.2139
   57MOL    H12 7964   5.464   5.717   3.150 -0.7509 -0.6225 -3.1757
   57MOL    H13 7965   5.643   5.705   3.177 -0.8286 -2.6824 -1.1732
   57MOL    H14 7966   5.643   5.937   3.079 -1.0130 -0.0271 -1.4497
   57MOL    H15 7967   5.566   5.918   3.241 -1.7343 -0.2162  0.5320
   57MOL    C16 7968   5.425   6.082   3.071  0.2648  0.2460 -0.4092
   57MOL    C17 7969   5.311   6.116   2.977 -0.4183 -0.0220 -0.3720
   57MOL    O18 7970   5.179   6.124   3.046 -0.6317 -0.4973 -0.0483
   57MOL    H19 7971   5.411   6.137   3.164 -1.2477  1.7884 -1.5308
   57MOL    H20 7972   5.514   6.119   3.021  0.2768  0.3868 -0.2832
   57MOL    H21 7973   5.322   6.055   2.888  1.9792  0.6389 -0.5611
   57MOL    H22 7974   5.337   6.217   2.943  0.3204 -0.4797 -1.1871
   57MOL    C23 7975   5.070   6.137   2.958 -0.8518  0.0726  1.0208
   57MOL    C24 7976   4.935   6.172   3.027  0.0887 -0.2119 -0.1798
   57MOL    O25 7977   4.915   6.309   3.044  0.3994 -0.3543  0.0647
   57MOL    H26 7978   5.104   6.205   2.880 -1.1414  0.0668  0.8879
   57MOL    H27 7979   5.061   6.043   2.904 -1.0657  0.1459  0.9296
   57MOL    H28 7980   4.936   6.112   3.119 -1.1413  0.2873  0.1619
   57MOL    H29 7981   4.851   6.151   2.961 -1.2628  1.3449  1.0165
   57MOL    C30 7982   4.878   6.334   3.173  0.1006 -0.2782 -0.0367
   57MOL    C31 7983   4.807   6.478   3.165 -0.4316 -0.1340  0.4522
   57MOL    O32 7984   4.905   6.569   3.199  0.2203 -1.3545  0.2175
   57MOL    H33 7985   4.811   6.266   3.227  2.3428  0.3663  3.7744
   57MOL    H34 7986   4.960   6.352   3.242 -0.0735  1.8780 -0.3467
   57MOL    H35 7987   4.745   6.470   3.254  2.7155  2.3749  3.0010
   57MOL    H36 7988   4.746   6.499   3.077  0.2210  1.5639  0.3826
   57MOL    C37 7989   4.860   6.700   3.171  0.3100  0.1539  0.2903
   57MOL    C38 7990   4.965   6.798   3.244  0.5814 -0.4101 -0.1033
   57MOL    O39 7991   4.951   6.768   3.385 -0.3939  0.4409 -0.2490
   57MOL    H40 7992   4.861   6.712   3.062 -1.5920 -0.4243  0.2026
   57MOL    H41 7993   4.761   6.720   3.211  0.6766  2.7396 -0.0213
   57MOL    H42 7994   4.936   6.901   3.223  1.7605 -0.1566 -0.5164
   57MOL    H43 7995   5.063   6.777   3.201  0.3683 -2.9445  0.5323
   57MOL    C44 7996   5.027   6.858   3.463  0.7233 -0.0899  0.1201
   57MOL    C45 7997   5.055   6.796   3.602 -0.0474 -0.6147 -0.2482
   57MOL    O46 7998   5.161   6.712   3.574  0.1146 -0.0746  0.2620
   57MOL    H47 7999   5.118   6.891   3.414  0.1399 -0.0439 -0.9460
   57MOL    H48 8000   4.963   6.944   3.482 -0.2751 -0.6327 -0.7616
   57MOL    H49 8001   4.967   6.751   3.648  1.6308 -1.9428  1.7440
   57MOL    H50 8002   5.085   6.875   3.670  1.4521 -0.0346 -1.5678
   57MOL    C51 8003   5.196   6.626   3.678 -0.0402  0.2644  0.7297
   57MOL    C52 8004   5.327   6.550   3.646  0.3278  0.4063 -0.0793
   57MOL    O53 8005   5.298   6.417   3.598  0.5480 -0.3722 -0.3771
   57MOL    H54 8006   5.216   6.679   3.771 -1.2949  1.8891  0.1006
   57MOL    H55 8007   5.116   6.557   3.705 -0.4191  0.6274  0.5325
   57MOL    H56 8008   5.382   6.535   3.739  0.3061  0.6112 -0.0332
   57MOL    H57 8009   5.388   6.606   3.576 -1.0488  1.0915 -0.7445
   57MOL    C58 8010   5.232   6.422   3.476  0.0977 -0.7405 -0.5451
   57MOL    C59 8011   5.248   6.283   3.403 -0.6181  0.7141 -0.3691
   57MOL    O60 8012   5.152   6.195   3.459 -0.5352  0.0360 -0.1235
   57MOL    H61 8013   5.127   6.451   3.476 -0.0118 -1.1359 -0.6005
   57MOL    H62 8014   5.283   6.496   3.414 -0.0006  0.3437  0.6566
   57MOL    H63 8015   5.353   6.258   3.413 -0.3216  1.0895 -2.3173
   57MOL    H64 8016   5.244   6.279   3.294  2.5064 -0.4712 -0.4896
   57MOL    C65 8017   5.176   6.057   3.423  0.3571  0.5588  0.1793
   57MOL    C66 8018   5.298   5.994   3.491 -0.2743  0.7075 -0.0333
   57MOL    O67 8019   5.281   6.005   3.632  0.8768  0.6246  0.2482
   57MOL    H68 8020   5.084   6.004   3.445  1.0797 -1.4770 -1.5234
   57MOL    H69 8021   5.188   6.050   3.315 -0.5389  0.3386  0.0911
   57MOL    H70 8022   5.390   6.046   3.463  2.0086 -2.1990  1.7415
   57MOL    H71 8023   5.309   5.896   3.443 -1.5037  1.8018 -2.6511
   57MOL    C72 8024   5.381   5.935   3.703  0.2054  0.0063  0.7521
   57MOL    C73 8025   5.374   5.988   3.846  0.2903  0.0460  0.0871
   57MOL    O74 8026   5.450   6.106   3.869  0.1501 -0.3809 -0.2694
   57MOL    H75 8027   5.341   5.834   3.717  1.0704 -0.2735  1.2588
   57MOL    H76 8028   5.484   5.944   3.667 -0.4466  1.8931 -0.7738
   57MOL    H77 8029   5.414   5.915   3.916 -1.3236 -2.1082 -1.1599
   57MOL    H78 8030   5.271   5.996   3.883  0.2924  0.3938  0.0273
   57MOL    C79 8031   5.391   6.227   3.812 -0.2977  0.5113  0.0560
   57MOL    C80 8032   5.260   6.277   3.883 -0.5871  0.4502 -0.6573
   57MOL    O81 8033   5.299   6.303   4.012  0.3973  0.4819 -0.5524
   57MOL    H82 8034   5.468   6.303   3.820  0.9308 -0.7521  0.6644
   57MOL    H83 8035   5.376   6.226   3.704 -0.2178  1.5717  0.0326
   57MOL    H84 8036   5.174   6.211   3.873 -0.1208 -0.3088  0.3115
   57MOL    H85 8037   5.226   6.370   3.838 -0.0855  1.0983  0.2916
   57MOL    C86 8038   5.190   6.354   4.088 -0.6348  0.1249  0.1940
   57MOL    C87 8039   5.225   6.420   4.224  0.6080 -0.1299  0.0255
   57MOL    O88 8040   5.249   6.553   4.198  0.7811 -0.0486  0.3034
   57MOL    H89 8041   5.143   6.429   4.025  1.5950  1.3155 -0.1052
   57MOL    H90 8042   5.121   6.270   4.096  1.9693 -2.0650  0.4076
   57MOL    H91 8043   5.306   6.357   4.262  1.2734  0.1045 -0.9801
   57MOL    H92 8044   5.131   6.409   4.279  1.1546 -0.2180  0.9541
   57MOL    C93 8045   5.261   6.624   4.321  0.1992 -0.2978  0.2472
   57MOL    C94 8046   5.261   6.777   4.300  0.5884 -0.0724 -0.6303
   57MOL    O95 8047   5.133   6.820   4.343  0.3573 -0.3363 -0.3567
   57MOL    H96 8048   5.195   6.582   4.397 -0.3679 -3.7171 -2.0407
   57MOL    H97 8049   5.361   6.594   4.352 -0.4297  0.5960  3.3328
   57MOL    H98 8050   5.272   6.803   4.194  0.1694 -0.0752 -0.6744
   57MOL    H99 8051   5.332   6.823   4.369 -1.0375  0.7492  0.5251
   57MOL   C100 8052   5.114   6.961   4.348 -0.6387  0.3394  0.1333
   57MOL   C101 8053   4.973   6.985   4.393 -0.1991 -0.2963  0.4225
   57MOL   O102 8054   4.986   6.964   4.535 -0.8971 -0.0662 -0.1648
   57MOL   H103 8055   5.191   7.002   4.414  0.4556  0.8123 -1.3794
   57MOL   H104 8056   5.142   7.010   4.254 -0.7929 -0.2407 -0.2180
   57MOL   H105 8057   4.912   6.920   4.330  0.5489 -1.2971  0.7107
   57MOL   H106 8058   4.940   7.088   4.379 -1.3079 -0.5406  1.1682
   57MOL   C107 8059   4.856   6.961   4.593  0.1234 -0.1104  0.4764
   57MOL   C108 8060   4.861   6.906   4.737 -0.5577  0.1500 -0.0681
   57MOL   O109 8061   4.890   6.772   4.746 -0.5050  0.4987  0.0766
   57MOL   H110 8062   4.810   7.060   4.590  0.1811 -0.0751  0.7523
   57MOL   H111 8063   4.786   6.895   4.541  1.2295 -2.2696  1.6481
   57MOL   H112 8064   4.767   6.933   4.785 -1.3216 -0.8806 -0.9482
   57MOL   H113 8065   4.945   6.965   4.774 -1.2467  0.0533  1.6865
   57MOL   C114 8066   4.902   6.712   4.872 -0.1072  0.0807 -0.1982
   57MOL   C115 8067   4.898   6.569   4.846  0.0937  0.5448  0.4785
   57MOL   O116 8068   5.024   6.519   4.794  0.1691  0.2135  0.2038
   57MOL   H117 8069   4.993   6.740   4.925 -0.2326 -0.8265  0.5150
   57MOL   H118 8070   4.810   6.728   4.929  1.0648  3.8149  0.8569
   57MOL   H119 8071   4.815   6.543   4.781  1.4533  0.4873 -1.2570
   57MOL   H120 8072   4.875   6.515   4.938 -0.2497  0.3253  0.2654
   57MOL   C121 8073   5.048   6.527   4.655 -0.4221  0.6825  0.2672
   57MOL   C122 8074   5.010   6.396   4.577  0.4673  0.6330  0.2340
   57MOL   O123 8075   5.111   6.295   4.603  0.0214  0.3708  0.5497
   57MOL   H124 8076   4.997   6.609   4.605 -0.0205  1.6969  1.5076
   57MOL   H125 8077   5.153   6.548   4.635 -0.1762 -0.8235 -0.1384
   57MOL   H126 8078   5.010   6.422   4.471  0.9900 -0.1158  0.0477
   57MOL   H127 8079   4.911   6.359   4.604  0.3327 -0.7316 -2.0434
   57MOL   C128 8080   5.108   6.186   4.507  0.8049 -0.4691 -0.1860
   57MOL   C129 8081   4.977   6.108   4.508  0.5040  0.1650  0.0458
   57MOL   O130 8082   4.884   6.170   4.420  0.9699  0.8113 -0.0040
   57MOL   H131 8083   5.127   6.219   4.404  0.5207  2.4799  0.6580
   57MOL   H132 8084   5.195   6.126   4.533  1.7169  1.0128  0.2612
   57MOL   H133 8085   4.927   6.115   4.604  0.5993 -1.0217  0.1931
   57MOL   H134 8086   4.987   6.001   4.489  1.1390 -0.4753  3.7321
   57MOL   C135 8087   4.810   6.075   4.343  0.0490 -0.0415 -0.0542
   57MOL   C136 8088   4.719   6.161   4.251 -0.2871 -0.6870  0.1889
   57MOL   O137 8089   4.621   6.220   4.335  0.2707 -0.1416 -0.0683
   57MOL   H138 8090   4.878   6.009   4.289  0.8066 -0.1995  1.0555
   57MOL   H139 8091   4.752   6.019   4.416 -1.5360  1.1392 -0.3857
   57MOL   H140 8092   4.673   6.094   4.179  1.6712  1.2953 -3.0124
   57MOL   H141 8093   4.773   6.237   4.195  1.8938 -1.4059  1.2436
   57MOL   H142 8094   4.669   6.289   4.378  0.5489 -1.0578  1.1182
   58MOL     C1 8095   2.144   4.231   0.177  0.0216 -0.2121 -0.1643
   58MOL     C2 8096   2.277   4.186   0.124 -0.0328  0.0432 -0.4077
   58MOL     O3 8097   2.379   4.223   0.218  0.3634 -0.4409 -0.1891
   58MOL     H4 8098   2.146   4.329   0.224 -3.3046 -1.2204  2.2450
   58MOL     H5 8099   2.107   4.182   0.267  0.9396  0.8684  0.8190
   58MOL     H6 8100   2.296   4.219   0.022 -0.2305  0.2331 -0.3823
   58MOL     H7 8101   2.286   4.077   0.122  1.7910  0.1886 -2.2918
   58MOL     H8 8102   2.063   4.239   0.106 -1.0050  2.0510  1.2249
   58MOL     C9 8103   2.512   4.207   0.175  0.2413 -0.1056  0.4461
   58MOL    C10 8104   2.605   4.142   0.276  0.1946 -0.3933  0.0144
   58MOL    O11 8105   2.539   4.025   0.328 -0.2360  0.7384  0.4852
   58MOL    H12 8106   2.515   4.149   0.083  0.0312 -1.1347  1.0756
   58MOL    H13 8107   2.550   4.302   0.137  2.0454 -1.5710 -1.5100
   58MOL    H14 8108   2.617   4.209   0.361  0.3561  0.0622 -0.3671
   58MOL    H15 8109   2.703   4.112   0.238  0.5667 -1.0456  1.4359
   58MOL    C16 8110   2.617   3.961   0.424 -0.2488  0.4876 -0.0981
   58MOL    C17 8111   2.566   3.815   0.436 -0.0156  0.3061  0.1630
   58MOL    O18 8112   2.598   3.735   0.327 -1.2480  0.0555  0.6436
   58MOL    H19 8113   2.723   3.954   0.397 -0.3291  0.9119 -0.5346
   58MOL    H20 8114   2.613   4.019   0.516  1.0022 -2.2597  1.7722
   58MOL    H21 8115   2.458   3.815   0.453  0.2754  1.1426  2.2963
   58MOL    H22 8116   2.604   3.767   0.526 -1.0106  0.2864  0.5871
   58MOL    C23 8117   2.526   3.611   0.320  0.1046 -0.5267  0.1112
   58MOL    C24 8118   2.550   3.537   0.193  0.2024  0.0031 -0.5889
   58MOL    O25 8119   2.686   3.486   0.193  0.1065  0.1315  0.2418
   58MOL    H26 8120   2.547   3.550   0.407  1.0631 -1.9118 -1.0672
   58MOL    H27 8121   2.420   3.639   0.328  0.7259  1.6765  1.1198
   58MOL    H28 8122   2.523   3.609   0.116 -2.3360  0.2757  0.5256
   58MOL    H29 8123   2.477   3.456   0.183 -0.5923  0.3595  2.0661
   58MOL    C30 8124   2.729   3.443   0.070  0.1398  0.0421  0.2377
   58MOL    C31 8125   2.658   3.315   0.015  0.4576 -0.3871  0.1220
   58MOL    O32 8126   2.525   3.342   7.734 -0.1387 -0.2827 -0.2155
   58MOL    H33 8127   2.714   3.525   0.000 -1.1467  0.0815  0.5446
   58MOL    H34 8128   2.835   3.421   0.064  0.6887  1.8740  2.6553
   58MOL    H35 8129   2.644   3.242   0.095 -1.1438 -1.4426 -1.0796
   58MOL    H36 8130   2.717   3.264   7.710  1.3178 -0.9332  1.1412
   58MOL    C37 8131   2.433   3.226   7.733  0.7219  0.4481 -0.1932
   58MOL    C38 8132   2.449   3.123   7.621  0.0340  0.1090  1.4113
   58MOL    O39 8133   2.572   3.047   7.631 -0.0061  0.0546 -0.3154
   58MOL    H40 8134   2.430   3.189   0.065 -1.8386  3.1676  0.7780
   58MOL    H41 8135   2.331   3.265   7.728  1.2866  2.4147  2.6151
   58MOL    H42 8136   2.437   3.184   7.532 -2.6461  0.4707  1.9761
   58MOL    H43 8137   2.365   3.053   7.627 -0.3539  0.6496  2.4096
   58MOL    C44 8138   2.618   2.991   7.506  0.3035  0.7177 -0.4666
   58MOL    C45 8139   2.728   2.884   7.523  0.1783  0.1498 -0.6470
   58MOL    O46 8140   2.856   2.940   7.491  0.1408 -0.2680 -0.0098
   58MOL    H47 8141   2.532   2.939   7.463  1.1140  1.1986 -2.7114
   58MOL    H48 8142   2.644   3.066   7.431  0.3859  1.3941  0.2271
   58MOL    H49 8143   2.705   2.795   7.464  0.7711 -0.9989  0.8029
   58MOL    H50 8144   2.731   2.849   7.626 -0.1867  0.4232 -0.5455
   58MOL    C51 8145   2.963   2.841   7.471  1.3988 -0.1301 -0.6481
   58MOL    C52 8146   3.076   2.919   7.405 -0.3710  0.2394 -0.1360
   58MOL    O53 8147   3.167   2.986   7.490 -0.0420  0.1314 -0.2184
   58MOL    H54 8148   2.986   2.794   7.566  1.1121  1.5223  0.2505
   58MOL    H55 8149   2.932   2.768   7.396  0.2624 -0.7720  0.4227
   58MOL    H56 8150   3.033   2.993   7.337 -2.8250 -0.0212  1.0683
   58MOL    H57 8151   3.139   2.853   7.344 -0.8261  1.2880 -1.7814
   58MOL    C58 8152   3.271   2.905   7.544 -0.6359  0.5875  0.1815
   58MOL    C59 8153   3.377   2.977   7.629 -0.6705 -0.3458  0.0447
   58MOL    O60 8154   3.496   2.897   7.646  0.0057  0.1434 -0.3023
   58MOL    H61 8155   3.232   2.818   7.597 -0.5559  0.7630  0.5312
   58MOL    H62 8156   3.324   2.862   7.459  0.1670 -2.9214  2.3560
   58MOL    H63 8157   3.333   3.001   7.725  1.0424  0.4944  0.6460
   58MOL    H64 8158   3.419   3.069   7.588  1.0267 -0.5742  1.2171
   58MOL    C65 8159   3.584   2.882   7.537  0.0958  0.1502 -0.2048
   58MOL    C66 8160   3.698   2.786   7.556  0.2051  0.2361  0.5353
   58MOL    O67 8161   3.645   2.650   7.564  0.2335  0.5216 -0.5890
   58MOL    H68 8162   3.530   2.834   7.455 -0.0213 -0.4779  0.2365
   58MOL    H69 8163   3.623   2.979   7.505  2.1737 -0.2793  0.9793
   58MOL    H70 8164   3.766   2.806   7.639 -0.4800  1.6295  0.7883
   58MOL    H71 8165   3.773   2.799   7.478 -0.4046  0.0449 -0.0893
   58MOL    C72 8166   3.751   2.554   7.571 -0.1085 -1.0656 -0.1965
   58MOL    C73 8167   3.698   2.415   7.574 -0.1553  0.4000 -1.0446
   58MOL    O74 8168   3.687   2.364   7.708 -0.0851  0.2797  0.0684
   58MOL    H75 8169   3.814   2.580   7.487  2.5083 -2.6367  1.1963
   58MOL    H76 8170   3.808   2.579   7.661 -0.9153  1.9959 -0.4775
   58MOL    H77 8171   3.766   2.349   7.521  1.4603  0.0597  1.3977
   58MOL    H78 8172   3.604   2.420   7.518 -1.3090  1.2186  0.9227
   58MOL    C79 8173   3.620   2.237   7.718 -0.1207 -0.5832 -0.3984
   58MOL    C80 8174   3.637   2.149   0.072 -0.0777  0.1661 -0.2315
   58MOL    O81 8175   3.545   2.183   0.175  0.1618  0.8453  0.3610
   58MOL    H82 8176   3.519   2.252   7.682 -0.9763 -1.5097  1.5738
   58MOL    H83 8177   3.660   2.174   7.638  0.8032 -0.2978 -0.1764
   58MOL    H84 8178   3.742   2.145   0.099  0.3537  0.7154 -1.7829
   58MOL    H85 8179   3.614   2.052   0.028  0.6012  0.0885 -0.4212
   58MOL    C86 8180   3.597   2.262   0.282  0.2866  0.1235  1.2133
   58MOL    C87 8181   3.483   2.328   0.362  0.1128 -0.0145 -0.5109
   58MOL    O88 8182   3.444   2.242   0.459 -0.1285  0.1223 -0.0575
   58MOL    H89 8183   3.667   2.208   0.346  0.1908 -0.7440  0.5981
   58MOL    H90 8184   3.658   2.341   0.237 -1.1991 -0.0249 -1.1456
   58MOL    H91 8185   3.397   2.352   0.300  1.0418  1.3440 -1.3025
   58MOL    H92 8186   3.522   2.419   0.408 -1.0898  1.1879 -1.8293
   58MOL    C93 8187   3.363   2.304   0.559 -0.4811 -0.3845 -0.1461
   58MOL    C94 8188   3.311   2.217   0.672 -0.2209 -0.1555  0.3763
   58MOL    O95 8189   3.219   2.124   0.623 -0.0496  0.8568  0.2932
   58MOL    H96 8190   3.417   2.391   0.595 -0.9542 -0.3642  0.5102
   58MOL    H97 8191   3.277   2.343   0.506 -1.3330  0.5079  1.8697
   58MOL    H98 8192   3.259   2.269   0.752  0.6597 -0.2028  0.9843
   58MOL    H99 8193   3.395   2.169   0.721 -0.5426 -0.4215  0.6666
   58MOL   C100 8194   3.168   2.032   0.717  0.1392  0.5918 -0.4990
   58MOL   C101 8195   3.062   1.944   0.642 -1.0733  0.5887 -0.7948
   58MOL   O102 8196   3.040   1.820   0.700  0.1680  0.0376 -0.1983
   58MOL   H103 8197   3.235   1.959   0.762 -1.3729  0.1181  1.0478
   58MOL   H104 8198   3.122   2.083   0.803  0.6983  0.2268  0.0169
   58MOL   H105 8199   3.106   1.932   0.543 -0.4270  2.7077 -0.7995
   58MOL   H106 8200   2.968   1.993   0.620 -1.5658  0.3299  0.6723
   58MOL   C107 8201   2.971   1.815   0.818 -0.0226 -0.1873  0.1395
   58MOL   C108 8202   2.961   1.670   0.864 -0.3640  0.4777 -0.5769
   58MOL   O109 8203   3.095   1.645   0.924 -0.0336 -0.1448  0.3018
   58MOL   H110 8204   3.005   1.875   0.903  1.1978 -3.9870  2.4245
   58MOL   H111 8205   2.867   1.839   0.796  0.5654  1.3782 -1.0026
   58MOL   H112 8206   2.945   1.599   0.782  1.4385 -0.6299  0.0088
   58MOL   H113 8207   2.883   1.660   0.939 -1.1665  0.3008 -1.4294
   58MOL   C114 8208   3.090   1.520   0.993  1.0776  0.3791 -0.1399
   58MOL   C115 8209   3.229   1.478   1.044 -0.4309 -0.3485  0.1160
   58MOL   O116 8210   3.329   1.415   0.963  0.2950 -0.1127  0.4354
   58MOL   H117 8211   3.016   1.547   1.069 -1.2184  1.7957 -2.7747
   58MOL   H118 8212   3.042   1.438   0.940  1.9519  1.3727 -2.5836
   58MOL   H119 8213   3.206   1.401   1.119  0.2749 -2.0554 -1.3726
   58MOL   H120 8214   3.266   1.572   1.084  0.5200 -0.1027 -1.3202
   58MOL   C121 8215   3.386   1.495   0.860 -0.4805  0.2491  0.1947
   58MOL   C122 8216   3.468   1.411   0.769 -0.5911 -0.0271 -0.0851
   58MOL   O123 8217   3.586   1.374   0.842 -0.2214  0.1633 -0.6358
   58MOL   H124 8218   3.299   1.516   0.797  0.8773 -0.4261 -1.9853
   58MOL   H125 8219   3.435   1.589   0.886  0.3452  0.5919 -2.4011
   58MOL   H126 8220   3.500   1.465   0.680  1.8234 -0.7962  0.2789
   58MOL   H127 8221   3.403   1.327   0.744 -1.1738  1.5422 -4.2723
   58MOL   C128 8222   3.647   1.262   0.789  0.2144  0.6363  0.4130
   58MOL   C129 8223   3.783   1.240   0.848 -0.1479  0.2495  0.3556
   58MOL   O130 8224   3.856   1.348   0.806  0.0947  0.1457 -0.1904
   58MOL   H131 8225   3.580   1.178   0.806 -1.1554  1.8718  1.2298
   58MOL   H132 8226   3.653   1.268   0.680 -1.8035  1.4717  0.3249
   58MOL   H133 8227   3.829   1.154   0.798 -0.4452  0.2545  0.0733
   58MOL   H134 8228   3.777   1.229   0.956 -0.6484 -1.3611  0.1801
   58MOL   C135 8229   3.981   1.353   0.876 -0.7429  0.1513  0.5824
   58MOL   C136 8230   4.091   1.433   0.785 -0.2101  0.5081  0.5451
   58MOL   O137 8231   4.043   1.568   0.768  0.0863  0.5271  0.1134
   58MOL   H138 8232   3.965   1.379   0.981 -0.0395  0.7030  0.5585
   58MOL   H139 8233   4.012   1.249   0.883  3.0985  1.1282 -0.8321
   58MOL   H140 8234   4.102   1.370   0.697  2.3529 -0.6972  1.6815
   58MOL   H141 8235   4.190   1.424   0.829  0.1646  1.4203 -0.0965
   58MOL   H142 8236   3.950   1.565   0.754  0.3796 -0.5180 -1.7231
   59MOL     C1 8237   4.163   1.937   3.130  0.2776 -0.5946  0.3261
   59MOL     C2 8238   4.169   2.046   3.026  0.2178  0.9469  0.1648
   59MOL     O3 8239   4.220   1.997   2.906 -0.4478  0.1887 -0.2702
   59MOL     H4 8240   4.081   1.944   3.201 -0.1339 -1.5410 -0.0477
   59MOL     H5 8241   4.246   1.927   3.200  1.1611  0.2112 -0.5842
   59MOL     H6 8242   4.220   2.129   3.074 -1.0854  1.7802  0.1555
   59MOL     H7 8243   4.070   2.093   3.020 -0.6415 -0.9713 -1.1413
   59MOL     H8 8244   4.144   1.840   3.085 -0.9329 -0.7861  1.2287
   59MOL     C9 8245   4.220   2.101   2.814 -0.9511 -0.3186 -0.5485
   59MOL    C10 8246   4.252   2.053   2.675  0.0556  0.7995  0.2979
   59MOL    O11 8247   4.396   2.063   2.652  0.2340 -0.0820  1.2340
   59MOL    H12 8248   4.122   2.149   2.811  0.2940  2.2869 -0.1500
   59MOL    H13 8249   4.280   2.187   2.841  1.7646 -1.7248 -1.9351
   59MOL    H14 8250   4.199   2.113   2.602 -1.3871  0.9016  1.4190
   59MOL    H15 8251   4.217   1.950   2.664 -0.0751  0.8140  0.5775
   59MOL    C16 8252   4.436   1.996   2.533  0.2787 -0.0437 -0.5445
   59MOL    C17 8253   4.460   1.839   2.562  0.5698 -0.1084 -0.6169
   59MOL    O18 8254   4.452   1.762   2.441 -0.0404 -0.5424 -0.2621
   59MOL    H19 8255   4.355   2.011   2.461  0.3257  0.5246 -0.4798
   59MOL    H20 8256   4.526   2.046   2.497 -0.0409  0.2319 -0.9656
   59MOL    H21 8257   4.383   1.794   2.624  0.9172  0.3125  0.1268
   59MOL    H22 8258   4.547   1.814   2.622  2.3189  0.0645 -3.0316
   59MOL    C23 8259   4.451   1.621   2.468 -0.0971  0.6053  0.2155
   59MOL    C24 8260   4.417   1.553   2.334  0.2725 -0.4477 -0.0054
   59MOL    O25 8261   4.429   1.413   2.339 -0.1056  0.2278 -0.2574
   59MOL    H26 8262   4.546   1.584   2.506 -0.5069 -0.8492 -0.1356
   59MOL    H27 8263   4.385   1.591   2.550 -1.3736  0.8582 -0.6917
   59MOL    H28 8264   4.500   1.585   2.271  0.0095  0.4671  0.1167
   59MOL    H29 8265   4.326   1.593   2.288 -0.4180 -0.0144  1.6840
   59MOL    C30 8266   4.454   1.357   2.211  0.4199  0.1704  0.1319
   59MOL    C31 8267   4.460   1.204   2.232 -0.4956  0.5850  0.4808
   59MOL    O32 8268   4.596   1.187   2.275 -0.3121  0.2140  0.2849
   59MOL    H33 8269   4.366   1.377   2.150 -0.2480 -1.6512  0.4826
   59MOL    H34 8270   4.547   1.385   2.160 -0.5939  0.3972 -1.6465
   59MOL    H35 8271   4.446   1.151   2.137 -0.5199 -1.2035  1.4526
   59MOL    H36 8272   4.384   1.164   2.299  0.4969 -1.6184  0.3271
   59MOL    C37 8273   4.635   1.053   2.314  0.0667  0.2589  0.0678
   59MOL    C38 8274   4.780   1.062   2.365 -0.1805  0.2528 -0.4167
   59MOL    O39 8275   4.878   1.075   2.263  0.3825  1.1628 -0.3907
   59MOL    H40 8276   4.560   1.012   2.383  2.3038 -2.7427  0.8464
   59MOL    H41 8277   4.621   0.977   2.237 -0.9600  0.1351  0.3611
   59MOL    H42 8278   4.803   0.978   2.429  0.7191  1.2938  0.6596
   59MOL    H43 8279   4.780   1.145   2.436 -2.4897  0.3049 -0.4263
   59MOL    C44 8280   5.017   1.066   2.311 -0.3537  0.1966 -0.1662
   59MOL    C45 8281   5.125   1.105   2.209 -0.1906  0.1021  0.2492
   59MOL    O46 8282   5.109   1.002   2.111  0.0678  0.1972 -0.1163
   59MOL    H47 8283   5.035   1.117   2.406 -0.5200 -0.7140  0.3507
   59MOL    H48 8284   5.035   0.961   2.334  0.1216 -0.3360 -2.7764
   59MOL    H49 8285   5.225   1.117   2.251 -0.2800 -1.4393  0.9258
   59MOL    H50 8286   5.101   1.201   2.162  0.7950 -0.6269 -1.8339
   59MOL    C51 8287   5.157   1.047   1.989 -0.2746  0.2044 -0.7826
   59MOL    C52 8288   5.137   0.937   1.876  0.4613  0.3035  0.2712
   59MOL    O53 8289   5.228   0.822   1.888 -0.0085  0.1131 -0.3088
   59MOL    H54 8290   5.088   1.127   1.961 -1.4485 -0.8790 -1.0398
   59MOL    H55 8291   5.259   1.086   1.992  0.0776 -0.6313 -1.5567
   59MOL    H56 8292   5.133   0.985   1.779 -1.0064 -2.0737 -0.9037
   59MOL    H57 8293   5.038   0.891   1.877  0.4269  0.3603 -0.6487
   59MOL    C58 8294   5.198   0.724   1.985  0.2614 -0.3633  0.1240
   59MOL    C59 8295   5.326   0.668   2.045  0.4769 -0.5198  0.2842
   59MOL    O60 8296   5.384   0.577   1.954  0.0737 -0.2328  0.2626
   59MOL    H61 8297   5.144   0.768   2.070  0.1194  2.4334 -1.3384
   59MOL    H62 8298   5.127   0.655   1.940 -0.1432 -1.0189  1.7336
   59MOL    H63 8299   5.304   0.626   2.143  0.1165 -0.7848  0.0934
   59MOL    H64 8300   5.386   0.754   2.076  1.3608 -1.6604  1.8446
   59MOL    C65 8301   5.486   0.492   1.999 -0.4500 -0.1428  0.0214
   59MOL    C66 8302   5.608   0.571   2.039  0.0321 -0.6207 -0.0642
   59MOL    O67 8303   5.603   0.603   2.174 -0.0263  0.8963  0.1017
   59MOL    H68 8304   5.460   0.425   2.081 -0.2160  0.8646  0.9363
   59MOL    H69 8305   5.501   0.424   1.915  0.1127  0.7625 -0.6185
   59MOL    H70 8306   5.608   0.662   1.979 -1.9324 -0.4975  0.0732
   59MOL    H71 8307   5.687   0.499   2.018  1.4290 -0.4549  4.1458
   59MOL    C72 8308   5.728   0.651   2.210 -0.0765 -0.6493  0.1873
   59MOL    C73 8309   5.738   0.677   2.363  1.0087  1.0591 -0.0737
   59MOL    O74 8310   5.763   0.546   2.420  0.2387 -0.8788 -0.1405
   59MOL    H75 8311   5.813   0.592   2.176 -1.5788 -3.0042  0.4366
   59MOL    H76 8312   5.747   0.748   2.164 -1.7834 -0.7553 -0.7851
   59MOL    H77 8313   5.657   0.738   2.403  0.6823 -0.0054  0.9088
   59MOL    H78 8314   5.834   0.729   2.373  0.4137  2.1567 -0.0368
   59MOL    C79 8315   5.710   0.515   2.552 -1.2056  0.0482 -0.4654
   59MOL    C80 8316   5.678   0.369   2.554 -0.7915 -0.1640  0.6928
   59MOL    O81 8317   5.553   0.331   2.500  0.3895  0.5264 -0.6183
   59MOL    H82 8318   5.784   0.536   2.629 -1.1803 -1.5027 -0.0571
   59MOL    H83 8319   5.625   0.579   2.573 -0.4660  0.5748  0.9810
   59MOL    H84 8320   5.660   0.354   2.661 -2.2028  1.5838  0.7301
   59MOL    H85 8321   5.761   0.306   2.523 -0.1867  0.7948  0.3574
   59MOL    C86 8322   5.527   0.312   2.360 -0.9483 -0.2993  0.5675
   59MOL    C87 8323   5.410   0.210   2.345 -0.1326 -0.3231  0.1622
   59MOL    O88 8324   5.433   0.123   2.230 -0.1918  0.0061  0.4065
   59MOL    H89 8325   5.505   0.407   2.312 -2.6188 -1.4436 -0.9964
   59MOL    H90 8326   5.621   0.276   2.319 -0.3451  0.1589  1.5140
   59MOL    H91 8327   5.316   0.265   2.348  0.2979  0.4806 -0.7412
   59MOL    H92 8328   5.423   0.163   2.442  1.5685 -0.5185 -0.1473
   59MOL    C93 8329   5.343   0.016   2.213  0.6636 -0.0088 -0.4324
   59MOL    C94 8330   5.399   7.710   2.103  0.0290 -0.8440 -0.0737
   59MOL    O95 8331   5.529   7.656   2.125 -0.1298 -0.3415 -0.6381
   59MOL    H96 8332   5.339   7.731   2.307 -1.1709  1.6526  0.5293
   59MOL    H97 8333   5.240   0.048   2.196  0.1274 -1.3969  0.0778
   59MOL    H98 8334   5.397   7.770   2.013  0.8931 -0.2076  0.3245
   59MOL    H99 8335   5.325   7.632   2.088  0.4743 -1.2136 -0.3623
   59MOL   C100 8336   5.555   7.554   2.031 -0.0172  0.3250  0.4478
   59MOL   C101 8337   5.696   7.495   2.063  0.3122 -0.4819  0.4624
   59MOL   O102 8338   5.701   7.395   2.163  0.3388  0.2395  0.0634
   59MOL   H103 8339   5.484   7.471   2.028  1.3760 -0.8478 -1.1891
   59MOL   H104 8340   5.560   7.600   1.933  0.4299  0.0886  0.3572
   59MOL   H105 8341   5.771   7.574   2.077  1.5933 -1.3164 -1.4467
   59MOL   H106 8342   5.736   7.446   1.974  1.9837  2.2284 -0.3710
   59MOL   C107 8343   5.734   7.447   2.289 -0.0794  0.4323  0.4911
   59MOL   C108 8344   5.699   7.336   2.384 -0.0249  0.2734 -0.1547
   59MOL   O109 8345   5.778   7.219   2.360 -0.2495  0.0508 -0.0705
   59MOL   H110 8346   5.836   7.486   2.294 -0.0652  0.6688 -1.2289
   59MOL   H111 8347   5.671   7.536   2.293  0.7007  1.0590 -0.6431
   59MOL   H112 8348   5.601   7.295   2.358  0.2399  0.2785 -1.1560
   59MOL   H113 8349   5.706   7.365   2.489 -2.8409  0.9361 -0.1250
   59MOL   C114 8350   5.750   7.106   2.423 -0.0637 -0.0650 -0.0981
   59MOL   C115 8351   5.876   7.016   2.439 -0.7313 -0.8122 -0.6898
   59MOL   O116 8352   5.863   6.924   2.547 -0.2725  0.1028  0.1610
   59MOL   H117 8353   5.724   7.129   2.527  1.5872  1.9170 -0.0814
   59MOL   H118 8354   5.666   7.055   2.377 -1.3223  1.9855 -0.1367
   59MOL   H119 8355   5.954   7.088   2.464 -1.3293 -0.1508 -0.7062
   59MOL   H120 8356   5.901   6.975   2.342 -1.5214 -1.1402 -0.7631
   59MOL   C121 8357   5.949   6.816   2.536  0.0910  0.1401  0.1147
   59MOL   C122 8358   5.884   6.704   2.615  0.1098 -0.0031  0.0003
   59MOL   O123 8359   5.931   6.706   2.744 -0.2565  0.0835  0.0031
   59MOL   H124 8360   5.964   6.788   2.432  1.6957  3.2437 -0.5411
   59MOL   H125 8361   6.045   6.838   2.581  0.6740 -1.2521 -0.4082
   59MOL   H126 8362   5.916   6.604   2.585  0.2536 -0.0304  0.2466
   59MOL   H127 8363   5.775   6.703   2.618  0.1154 -0.0545  0.2036
   59MOL   C128 8364   5.894   6.816   2.820  0.3062 -0.2499 -0.1399
   59MOL   C129 8365   5.890   6.770   2.967 -0.4233 -0.3451  0.4425
   59MOL   O130 8366   5.765   6.708   2.999 -0.0428  0.4509 -0.4414
   59MOL   H131 8367   5.961   6.901   2.820 -1.0641  0.8891 -1.8267
   59MOL   H132 8368   5.791   6.843   2.797 -0.5185 -1.8857  1.4834
   59MOL   H133 8369   5.886   6.860   3.028 -1.3684  0.6895 -1.1136
   59MOL   H134 8370   5.975   6.710   3.001 -1.7910 -2.2426  0.5818
   59MOL   C135 8371   5.735   6.576   2.949 -0.1702  0.0018  0.0239
   59MOL   C136 8372   5.584   6.551   2.950  0.1002 -0.5135 -0.8303
   59MOL   O137 8373   5.541   6.453   2.871  0.0199  0.4952  0.0079
   59MOL   H138 8374   5.770   6.573   2.846  0.3799  1.0057  0.1768
   59MOL   H139 8375   5.793   6.504   3.007 -0.5861 -1.9577 -1.9396
   59MOL   H140 8376   5.530   6.636   2.909 -1.2180  0.3671  2.5541
   59MOL   H141 8377   5.543   6.538   3.050 -1.1113 -0.4395 -1.3125
   59MOL   H142 8378   5.447   6.446   2.872  0.1190 -0.9210 -0.2732
   60MOL     C1 8379   1.771   4.738   3.962 -0.0289  0.0791  0.0248
   60MOL     C2 8380   1.724   4.674   4.089 -0.0887 -0.0197  0.2827
   60MOL     O3 8381   1.715   4.533   4.096  0.0597 -0.1100 -0.2144
   60MOL     H4 8382   1.702   4.714   3.881  2.1293 -1.3483 -1.4432
   60MOL     H5 8383   1.869   4.710   3.923  0.3696  2.1076 -0.4520
   60MOL     H6 8384   1.631   4.726   4.112  1.1486  1.5032  1.9693
   60MOL     H7 8385   1.795   4.709   4.164  1.3260 -1.4909 -0.3359
   60MOL     H8 8386   1.780   4.846   3.970  2.0630 -0.1206  0.5038
   60MOL     C9 8387   1.597   4.490   4.024 -0.1849  0.0556 -0.1447
   60MOL    C10 8388   1.571   4.340   4.063 -0.1582 -0.6703  1.1749
   60MOL    O11 8389   1.638   4.249   3.984 -0.0938  0.3158 -0.1456
   60MOL    H12 8390   1.509   4.549   4.047  0.4803  0.4047  1.5962
   60MOL    H13 8391   1.605   4.496   3.916 -2.4870  1.9626 -0.2518
   60MOL    H14 8392   1.467   4.308   4.055 -0.7415  0.8927  2.3478
   60MOL    H15 8393   1.594   4.323   4.169 -2.9305  0.5129  1.9995
   60MOL    C16 8394   1.781   4.263   3.967  0.0713 -0.7348 -0.3198
   60MOL    C17 8395   1.847   4.207   4.105  0.2989 -0.5089  0.7783
   60MOL    O18 8396   1.993   4.224   4.107  0.3956  0.6776  0.2444
   60MOL    H19 8397   1.814   4.195   3.889 -1.0518  0.4714 -1.8818
   60MOL    H20 8398   1.821   4.362   3.943 -0.0169 -0.1132  1.9298
   60MOL    H21 8399   1.813   4.105   4.121  0.2035 -0.5565  0.2979
   60MOL    H22 8400   1.807   4.266   4.188  0.2030  0.0806  0.3143
   60MOL    C23 8401   2.053   4.197   4.233 -0.0605  0.0170 -0.0661
   60MOL    C24 8402   2.200   4.227   4.229  0.2592  0.4802  0.1921
   60MOL    O25 8403   2.246   4.181   4.353  0.0712  0.1470 -0.2021
   60MOL    H26 8404   2.009   4.260   4.310  0.9914  1.3657 -0.5360
   60MOL    H27 8405   2.035   4.091   4.249  0.4571 -0.0864 -0.1781
   60MOL    H28 8406   2.222   4.334   4.222 -0.6877  0.6426 -0.2582
   60MOL    H29 8407   2.246   4.160   4.157  1.6080  0.6157  0.8968
   60MOL    C30 8408   2.386   4.194   4.390 -0.5214 -0.9985  0.8201
   60MOL    C31 8409   2.421   4.101   4.504  0.1613  0.3305 -0.3795
   60MOL    O32 8410   2.388   3.967   4.478  0.2098 -0.6116 -0.2322
   60MOL    H33 8411   2.436   4.162   4.299 -0.9140  0.9641 -0.1168
   60MOL    H34 8412   2.434   4.289   4.416 -0.2448 -1.2331  1.1606
   60MOL    H35 8413   2.382   4.142   4.597 -1.3400 -2.2980  0.2089
   60MOL    H36 8414   2.528   4.104   4.522  0.0587  0.8098  0.1700
   60MOL    C37 8415   2.346   3.887   4.594 -0.1686  0.2589 -0.3917
   60MOL    C38 8416   2.281   3.754   4.551 -0.4025  0.1069  0.2909
   60MOL    O39 8417   2.164   3.736   4.631  0.0287 -0.2279  0.0257
   60MOL    H40 8418   2.426   3.867   4.666 -1.5073 -0.4356  0.9253
   60MOL    H41 8419   2.268   3.942   4.645 -2.3813 -2.5575 -0.6129
   60MOL    H42 8420   2.353   3.674   4.567  1.0419  1.2243 -0.4290
   60MOL    H43 8421   2.262   3.746   4.444  0.0307 -1.7343  0.3378
   60MOL    C44 8422   2.096   3.612   4.611 -0.2269  0.3323  0.1281
   60MOL    C45 8423   1.975   3.605   4.707 -0.1387 -0.1544 -0.4148
   60MOL    O46 8424   1.869   3.692   4.661 -0.2533  0.2042 -0.1970
   60MOL    H47 8425   2.060   3.601   4.509 -0.1344 -0.2916  0.1627
   60MOL    H48 8426   2.162   3.528   4.631 -0.1416  0.0388 -1.3383
   60MOL    H49 8427   2.011   3.633   4.806 -1.1576 -4.3325  1.2704
   60MOL    H50 8428   1.931   3.505   4.705 -1.4578  0.4223 -0.3163
   60MOL    C51 8429   1.762   3.714   4.751 -0.6628 -0.4836 -0.5211
   60MOL    C52 8430   1.668   3.809   4.685 -0.3864  0.3789 -0.6701
   60MOL    O53 8431   1.563   3.732   4.630 -0.1181 -0.2841 -0.4997
   60MOL    H54 8432   1.717   3.617   4.771 -0.5341 -0.1632  1.4833
   60MOL    H55 8433   1.813   3.742   4.844 -1.5496  0.0966 -0.1990
   60MOL    H56 8434   1.720   3.884   4.625  0.3069  0.4366 -0.0092
   60MOL    H57 8435   1.632   3.868   4.770 -1.1646 -0.3141 -0.5167
   60MOL    C58 8436   1.443   3.801   4.611  0.2028  0.3207  0.2139
   60MOL    C59 8437   1.457   3.872   4.472  0.4182 -0.9305  0.0245
   60MOL    O60 8438   1.529   3.991   4.506  0.5627 -0.2341 -0.2516
   60MOL    H61 8439   1.370   3.722   4.594  0.9885 -0.2121 -0.6852
   60MOL    H62 8440   1.411   3.873   4.687 -1.1890 -0.9560  0.8610
   60MOL    H63 8441   1.357   3.890   4.433  0.2384  0.3537  1.0564
   60MOL    H64 8442   1.510   3.811   4.398 -0.7786 -0.5602 -1.1614
   60MOL    C65 8443   1.620   4.027   4.402 -0.1867  0.3306  0.4116
   60MOL    C66 8444   1.708   4.147   4.452  0.0772 -0.2605 -0.2303
   60MOL    O67 8445   1.625   4.263   4.435 -0.0335 -0.2698 -0.1619
   60MOL    H68 8446   1.687   3.945   4.374  0.4391  0.8605  0.3403
   60MOL    H69 8447   1.576   4.052   4.306 -0.9057  0.2646  0.7204
   60MOL    H70 8448   1.794   4.158   4.386  0.3532 -1.2726 -0.0573
   60MOL    H71 8449   1.734   4.140   4.557 -1.2507  2.6223  0.3380
   60MOL    C72 8450   1.699   4.380   4.494  0.1619 -0.6398 -0.0882
   60MOL    C73 8451   1.643   4.509   4.453 -0.2408  0.0760 -0.1329
   60MOL    O74 8452   1.521   4.532   4.520  0.1319 -0.4780 -0.0314
   60MOL    H75 8453   1.722   4.375   4.601  0.9713 -0.5583 -0.2543
   60MOL    H76 8454   1.797   4.377   4.446 -0.5667 -0.4670 -1.5940
   60MOL    H77 8455   1.629   4.511   4.345 -1.0668  1.5149 -0.0056
   60MOL    H78 8456   1.695   4.598   4.485 -1.5529  0.4329  1.0691
   60MOL    C79 8457   1.415   4.489   4.444  0.3425 -0.0766 -0.0257
   60MOL    C80 8458   1.288   4.545   4.502 -0.4477  0.1217 -0.7852
   60MOL    O81 8459   1.272   4.684   4.465  0.2622 -0.4155 -0.4476
   60MOL    H82 8460   1.416   4.528   4.342  1.2223  3.5890  1.2848
   60MOL    H83 8461   1.411   4.381   4.438 -0.2731 -0.1505  1.5657
   60MOL    H84 8462   1.288   4.525   4.609  2.6099  1.1458 -0.5312
   60MOL    H85 8463   1.206   4.488   4.458 -0.9660  0.2173  0.0512
   60MOL    C86 8464   1.161   4.749   4.514  0.0370  0.1293 -0.8493
   60MOL    C87 8465   1.032   4.701   4.455 -0.0430  0.5730  0.1342
   60MOL    O88 8466   1.002   4.578   4.526 -0.0610 -0.3428 -0.6264
   60MOL    H89 8467   1.159   4.740   4.623  1.5487  1.3623 -0.6920
   60MOL    H90 8468   1.175   4.855   4.491 -2.4681  0.6598 -0.0563
   60MOL    H91 8469   1.031   4.683   4.347 -1.0696 -2.9361  0.6532
   60MOL    H92 8470   0.954   4.771   4.484  0.9358  1.4300  0.7235
   60MOL    C93 8471   0.921   4.484   4.445 -0.9118 -0.4263 -1.0471
   60MOL    C94 8472   0.775   4.517   4.439  0.6106 -0.1443 -0.1807
   60MOL    O95 8473   0.713   4.519   4.567 -0.5358 -0.3707 -0.0989
   60MOL    H96 8474   0.964   4.471   4.345  1.6752  0.5535 -0.1194
   60MOL    H97 8475   0.948   4.387   4.487  1.3184  0.4142 -0.4548
   60MOL    H98 8476   0.731   4.435   4.382  1.1079 -1.0132  0.6702
   60MOL    H99 8477   0.754   4.607   4.382 -0.3691 -0.8595 -0.9751
   60MOL   C100 8478   0.723   4.628   4.658  0.4482 -0.0212  0.3382
   60MOL   C101 8479   0.587   4.695   4.697 -0.2901  0.1338 -0.7305
   60MOL   O102 8480   0.519   4.602   4.777 -0.2176 -0.3576 -0.1621
   60MOL   H103 8481   0.769   4.583   4.746 -0.6451 -1.5940  0.1204
   60MOL   H104 8482   0.775   4.714   4.614 -0.7468  0.7022  0.3373
   60MOL   H105 8483   0.537   4.725   4.605  0.1054 -0.6000 -1.1824
   60MOL   H106 8484   0.598   4.783   4.760  0.5858 -1.3584  1.2486
   60MOL   C107 8485   0.387   4.634   4.800  0.1897 -0.3030  0.4002
   60MOL   C108 8486   0.329   4.534   4.903 -0.2900 -0.2845  0.9490
   60MOL   O109 8487   0.263   4.432   4.842 -0.3285  1.1251  0.3819
   60MOL   H110 8488   0.390   4.729   4.853 -1.7863 -0.3581  0.6344
   60MOL   H111 8489   0.322   4.647   4.714  0.2522  1.3188  0.5679
   60MOL   H112 8490   0.260   4.567   4.981 -0.6439 -1.5620  1.1936
   60MOL   H113 8491   0.409   4.482   4.956 -1.9220 -2.1113  1.6786
   60MOL   C114 8492   0.234   4.317   4.920  0.8799  0.6348 -0.0161
   60MOL   C115 8493   0.187   4.203   4.821  0.6898 -0.2168  0.2783
   60MOL   O116 8494   0.055   4.222   4.771 -0.6129  0.9611  0.7050
   60MOL   H117 8495   0.317   4.297   4.988  1.8116  1.1919 -0.9673
   60MOL   H118 8496   0.144   4.345   4.975 -0.4296  0.1764 -1.8648
   60MOL   H119 8497   0.191   4.103   4.863 -2.0343 -0.8280 -0.8312
   60MOL   H120 8498   0.255   4.207   4.735  0.9243 -1.5176  0.3994
   60MOL   C121 8499   0.012   4.104   4.691  0.1399  0.2228 -0.2738
   60MOL   C122 8500   7.729   3.985   4.768 -0.0620 -0.3571  0.0919
   60MOL   O123 8501   7.594   4.002   4.798 -0.0925 -0.1892  0.3937
   60MOL   H124 8502   7.712   4.134   4.613  1.0674 -1.3468 -1.7575
   60MOL   H125 8503   0.100   4.077   4.632 -0.5361  0.5170 -1.4433
   60MOL   H126 8504   0.003   3.975   4.867  2.6741  1.7735 -0.8901
   60MOL   H127 8505   7.737   3.893   4.711  1.7194 -0.4715  0.4906
   60MOL   C128 8506   7.555   4.126   4.858 -0.5277 -0.4668  0.1920
   60MOL   C129 8507   7.406   4.123   4.906  0.4949  0.1247  0.3075
   60MOL   O130 8508   7.334   4.096   4.792 -0.3882 -0.6371  0.1507
   60MOL   H131 8509   7.622   4.143   4.942 -0.3338 -1.5389  0.2620
   60MOL   H132 8510   7.571   4.208   4.789 -0.4197 -1.8435 -1.4442
   60MOL   H133 8511   7.380   4.219   4.951  3.3576  0.4366  1.4194
   60MOL   H134 8512   7.397   4.028   4.959  1.6451 -0.1416  0.0304
   60MOL   C135 8513   7.204   4.032   4.809 -0.1492 -0.6493 -0.3430
   60MOL   C136 8514   7.226   3.880   4.810 -0.3043  1.1329  0.2276
   60MOL   O137 8515   7.251   3.840   4.677 -0.1949 -0.0408 -0.6728
   60MOL   H138 8516   7.154   4.069   4.899 -0.5399  0.6804 -1.1003
   60MOL   H139 8517   7.132   4.062   4.734  0.8102  0.5763 -0.7899
   60MOL   H140 8518   7.132   3.831   4.836 -0.3404  0.0053 -1.9001
   60MOL   H141 8519   7.304   3.849   4.879  0.3699  1.9442 -0.1628
   60MOL   H142 8520   7.322   3.890   4.639  0.6181 -0.9653 -0.4001
   61MOL     C1 8521   3.610   3.622   2.731 -0.4082 -0.4359  0.7046
   61MOL     C2 8522   3.493   3.721   2.746  0.5812 -0.4624 -0.8405
   61MOL     O3 8523   3.393   3.676   2.840 -0.6525  0.7501 -0.1700
   61MOL     H4 8524   3.638   3.588   2.831 -0.7064 -1.2872  0.5019
   61MOL     H5 8525   3.698   3.666   2.684 -2.1118  0.1305 -2.0275
   61MOL     H6 8526   3.446   3.738   2.650  0.5865  0.4310 -0.6886
   61MOL     H7 8527   3.526   3.818   2.783 -1.9997  0.5196 -1.0600
   61MOL     H8 8528   3.594   3.529   2.675 -0.1942  0.7416 -1.3477
   61MOL     C9 8529   3.297   3.771   2.852  0.5502 -0.3419  0.3720
   61MOL    C10 8530   3.176   3.723   2.920  0.2603  0.1627  0.7607
   61MOL    O11 8531   3.088   3.683   2.819  0.0519  0.0121  0.3003
   61MOL    H12 8532   3.341   3.853   2.908 -0.4642 -0.0092  0.7012
   61MOL    H13 8533   3.281   3.813   2.753  0.2445 -2.9861 -0.7561
   61MOL    H14 8534   3.142   3.797   2.993 -2.6971 -0.5117  0.1482
   61MOL    H15 8535   3.190   3.628   2.972  0.0645 -0.3614 -0.1358
   61MOL    C16 8536   2.963   3.657   2.872 -0.8369  0.0488  0.5564
   61MOL    C17 8537   2.877   3.634   2.751 -0.2217 -0.9437 -0.7423
   61MOL    O18 8538   2.898   3.506   2.707  0.3579 -0.1874 -0.5121
   61MOL    H19 8539   2.965   3.571   2.938  1.5073 -0.2358  0.1644
   61MOL    H20 8540   2.917   3.747   2.912 -1.8846 -0.8098  1.3055
   61MOL    H21 8541   2.890   3.703   2.668 -1.5085 -0.6682 -0.7197
   61MOL    H22 8542   2.776   3.649   2.787  0.5492 -1.5303  1.7651
   61MOL    C23 8543   2.825   3.446   2.606 -0.0422 -0.2872 -0.6266
   61MOL    C24 8544   2.854   3.298   2.590 -0.2124  0.4109  0.1090
   61MOL    O25 8545   2.939   3.270   2.491  0.5512 -0.4387  0.0534
   61MOL    H26 8546   2.718   3.454   2.627  0.4721  1.1402  1.6381
   61MOL    H27 8547   2.838   3.495   2.509  1.3795  0.3234 -0.1365
   61MOL    H28 8548   2.762   3.240   2.588  1.7214 -2.7687  0.1834
   61MOL    H29 8549   2.893   3.278   2.690  2.6718 -2.0380 -1.4586
   61MOL    C30 8550   2.989   3.139   2.501 -0.0960 -0.5674 -0.0167
   61MOL    C31 8551   3.087   3.124   2.391 -0.2807 -0.6301 -0.0535
   61MOL    O32 8552   3.155   3.005   2.391 -0.0003  0.0227  0.2815
   61MOL    H33 8553   3.033   3.118   2.598 -0.4778 -0.4564  0.1764
   61MOL    H34 8554   2.913   3.068   2.467 -0.3771  0.2846 -1.2172
   61MOL    H35 8555   3.158   3.205   2.404 -0.0795 -0.4853 -1.9370
   61MOL    H36 8556   3.042   3.141   2.292 -0.3891  2.0895  0.4415
   61MOL    C37 8557   3.281   2.988   2.312 -0.5422  0.6195  0.1404
   61MOL    C38 8558   3.282   2.840   2.258 -0.1611  0.4731  0.1307
   61MOL    O39 8559   3.216   2.820   2.133  0.7387 -0.1196  0.1631
   61MOL    H40 8560   3.294   3.062   2.233 -0.2068  2.6744  2.0625
   61MOL    H41 8561   3.373   3.010   2.366  0.0338 -1.5348  0.0908
   61MOL    H42 8562   3.263   2.765   2.335  3.1528 -0.5069  0.0549
   61MOL    H43 8563   3.384   2.811   2.234 -0.7231  1.0172 -3.1311
   61MOL    C44 8564   3.074   2.801   2.147  0.2763 -0.7212  0.6409
   61MOL    C45 8565   3.014   2.778   2.011  0.2799 -0.2365 -0.0326
   61MOL    O46 8566   2.937   2.661   2.008  0.1489 -0.3143  0.1954
   61MOL    H47 8567   3.065   2.714   2.212  1.0121  0.6565  2.6761
   61MOL    H48 8568   3.015   2.875   2.202 -0.0652 -1.6646  1.5579
   61MOL    H49 8569   3.091   2.794   1.936 -0.0776 -1.2942 -0.6340
   61MOL    H50 8570   2.948   2.864   1.996  1.7450  1.3283  2.2628
   61MOL    C51 8571   2.850   2.658   1.893  0.1208 -0.2048 -0.0278
   61MOL    C52 8572   2.912   2.644   1.756 -0.2059 -0.0245 -0.9780
   61MOL    O53 8573   3.041   2.580   1.763  0.0191  0.0220  0.0992
   61MOL    H54 8574   2.773   2.581   1.902  0.2999 -0.3134  0.5761
   61MOL    H55 8575   2.784   2.744   1.884 -0.0432 -0.3018  0.2385
   61MOL    H56 8576   2.927   2.739   1.705 -0.7811 -0.3240 -1.7218
   61MOL    H57 8577   2.842   2.576   1.707 -0.5057 -1.6159  1.5550
   61MOL    C58 8578   3.089   2.557   1.630  0.2669  0.1818 -0.0574
   61MOL    C59 8579   3.210   2.469   1.627 -0.2676 -0.4144  0.9293
   61MOL    O60 8580   3.163   2.339   1.610  0.1065 -0.3657  0.0698
   61MOL    H61 8581   3.011   2.533   1.559 -0.1867 -1.6782  1.0505
   61MOL    H62 8582   3.126   2.654   1.597  2.3207 -0.6421 -0.2366
   61MOL    H63 8583   3.270   2.494   1.715  0.9249  0.3944 -0.0918
   61MOL    H64 8584   3.265   2.494   1.537  0.4844 -2.8624  0.6601
   61MOL    C65 8585   3.257   2.242   1.568  0.5062  0.1282 -0.3371
   61MOL    C66 8586   3.357   2.211   1.673  0.0404 -0.3946  0.0900
   61MOL    O67 8587   3.429   2.099   1.628 -0.1623  0.2755  0.2305
   61MOL    H68 8588   3.207   2.147   1.552  1.5379 -0.5421  0.3269
   61MOL    H69 8589   3.303   2.267   1.473 -0.4407 -0.7578 -1.0318
   61MOL    H70 8590   3.323   2.198   1.776  0.9852 -0.7001  0.3653
   61MOL    H71 8591   3.421   2.300   1.673  0.3136 -0.5923 -0.6457
   61MOL    C72 8592   3.491   2.023   1.729  0.1352  0.2100  0.7589
   61MOL    C73 8593   3.626   1.943   1.700 -0.0114 -0.5166  0.2128
   61MOL    O74 8594   3.597   1.815   1.648  0.3066  0.0840  0.6973
   61MOL    H75 8595   3.526   2.109   1.786 -1.5230  1.2798  0.1652
   61MOL    H76 8596   3.432   1.955   1.790 -0.3209 -2.5315 -2.6195
   61MOL    H77 8597   3.678   1.934   1.795 -0.1024  0.8423  0.3943
   61MOL    H78 8598   3.689   2.001   1.633  0.0708  2.0046  2.4032
   61MOL    C79 8599   3.597   1.817   1.501 -0.2741  0.0183 -0.4453
   61MOL    C80 8600   3.588   1.679   1.456  0.2226  0.4007 -0.0408
   61MOL    O81 8601   3.555   1.684   1.318  0.3896  0.2999  0.0365
   61MOL    H82 8602   3.506   1.873   1.477  0.2931  0.8246 -0.7362
   61MOL    H83 8603   3.686   1.866   1.461 -1.5496  2.6482 -0.1789
   61MOL    H84 8604   3.525   1.610   1.512 -0.5491 -1.8289 -3.5231
   61MOL    H85 8605   3.689   1.638   1.457 -0.6243 -1.7318 -0.0538
   61MOL    C86 8606   3.520   1.564   1.251  0.3821 -0.7344 -0.1309
   61MOL    C87 8607   3.636   1.478   1.206 -1.0412  0.2343 -0.1293
   61MOL    O88 8608   3.677   1.390   1.308 -0.3186 -0.6712  0.1413
   61MOL    H89 8609   3.448   1.505   1.306  1.5847 -1.8236  0.2978
   61MOL    H90 8610   3.467   1.606   1.166  1.5708 -3.7599 -2.4571
   61MOL    H91 8611   3.718   1.543   1.176  0.7394 -1.1115  1.6940
   61MOL    H92 8612   3.606   1.416   1.121  1.1248  1.5885 -1.9446
   61MOL    C93 8613   3.798   1.328   1.273  0.3701  0.0967 -0.0013
   61MOL    C94 8614   3.848   1.242   1.381 -0.1202  0.1343 -0.6173
   61MOL    O95 8615   3.794   1.109   1.392  0.3449 -0.7220  0.3058
   61MOL    H96 8616   3.761   1.258   1.199 -1.7660  1.4634 -0.2779
   61MOL    H97 8617   3.862   1.399   1.222  1.4110  0.3586  1.6155
   61MOL    H98 8618   3.840   1.289   1.479  2.6715 -0.3435 -0.1072
   61MOL    H99 8619   3.952   1.216   1.364  0.8229  1.0342  3.2606
   61MOL   C100 8620   3.860   1.033   1.490  0.2888  0.0122  0.5748
   61MOL   C101 8621   3.781   0.902   1.506  0.2250  0.6613  0.2156
   61MOL   O102 8622   3.826   0.812   1.403 -0.3948 -0.2645 -0.1442
   61MOL   H103 8623   3.962   1.018   1.455 -1.0722 -2.7415 -2.4866
   61MOL   H104 8624   3.863   1.079   1.589 -1.6013 -2.6099  1.9054
   61MOL   H105 8625   3.674   0.916   1.494  0.4846  2.1146 -0.4308
   61MOL   H106 8626   3.811   0.862   1.603  0.2642 -3.0664 -1.2490
   61MOL   C107 8627   3.762   0.690   1.420 -0.1528 -0.1783 -0.0094
   61MOL   C108 8628   3.795   0.582   1.316  0.3343 -0.3527  0.0244
   61MOL   O109 8629   3.729   0.598   1.189 -0.6441  0.2330  0.3827
   61MOL   H110 8630   3.791   0.653   1.519 -0.8159  1.9981  1.0280
   61MOL   H111 8631   3.654   0.706   1.424  0.1093  1.5965  0.4528
   61MOL   H112 8632   3.750   0.493   1.359 -0.5168  0.1501  0.2009
   61MOL   H113 8633   3.903   0.577   1.308  0.2167  0.3060 -2.5207
   61MOL   C114 8634   3.776   0.719   1.123  0.0179 -0.3385 -0.3435
   61MOL   C115 8635   3.741   0.718   0.967 -0.1836 -0.1559  0.4387
   61MOL   O116 8636   3.834   0.640   0.897  0.3128  0.7139 -0.2467
   61MOL   H117 8637   3.744   0.805   1.182 -0.7442 -2.0951  1.9080
   61MOL   H118 8638   3.885   0.717   1.124  0.0247  0.0829  0.1165
   61MOL   H119 8639   3.750   0.818   0.927  1.8932 -0.7719 -0.7030
   61MOL   H120 8640   3.640   0.681   0.951  0.3756 -1.1098 -0.9952
   61MOL   C121 8641   3.771   0.594   0.774  0.4519 -0.2827 -0.0219
   61MOL   C122 8642   3.884   0.532   0.690  0.3056  0.9705  0.6568
   61MOL   O123 8643   3.903   0.399   0.720  0.0353  0.0253 -0.4328
   61MOL   H124 8644   3.693   0.528   0.811  0.6690  0.9445  2.7491
   61MOL   H125 8645   3.722   0.679   0.726  0.5657 -0.0974  0.1879
   61MOL   H126 8646   3.966   0.601   0.708  1.1270  0.0048  0.6743
   61MOL   H127 8647   3.863   0.540   0.584 -1.2307 -1.4613  0.7365
   61MOL   C128 8648   3.962   0.373   0.850  0.4444 -0.2419  0.5718
   61MOL   C129 8649   4.033   0.234   0.842 -0.2088 -0.0599 -0.3990
   61MOL   O130 8650   3.945   0.127   0.897 -0.5321 -0.4122  0.0452
   61MOL   H131 8651   4.036   0.453   0.862  0.0364  0.5793 -2.1646
   61MOL   H132 8652   3.902   0.387   0.940  0.6481 -0.1037  0.6857
   61MOL   H133 8653   4.121   0.227   0.905  0.9721 -2.7096 -2.2258
   61MOL   H134 8654   4.057   0.212   0.738  0.3159 -2.2373  0.1621
   61MOL   C135 8655   3.862   0.061   0.805 -0.5718  0.1040 -0.1578
   61MOL   C136 8656   3.942   7.736   0.719  0.1752 -0.2223 -0.6236
   61MOL   O137 8657   3.854   7.663   0.641  0.0500 -0.5066 -0.4156
   61MOL   H138 8658   3.789   0.003   0.861  0.5215 -0.3296  0.8487
   61MOL   H139 8659   3.805   0.140   0.757  0.2369  0.6702 -0.1933
   61MOL   H140 8660   3.985   7.650   0.769 -1.8907 -1.8909 -1.6369
   61MOL   H141 8661   4.014   0.004   0.647  0.5271 -1.3714 -0.9028
   61MOL   H142 8662   3.900   7.591   0.601  3.4501  1.7040 -0.6958
   62MOL     C1 8663   5.098   0.148   2.579  0.4309 -0.0342 -0.3100
   62MOL     C2 8664   5.035   0.006   2.554 -0.3184  0.6488 -0.1295
   62MOL     O3 8665   4.970   0.009   2.424 -0.1594  0.2491  0.0250
   62MOL     H4 8666   5.147   0.163   2.483 -1.8363  0.2869 -1.4621
   62MOL     H5 8667   5.177   0.155   2.653  2.0143  4.1882 -2.2221
   62MOL     H6 8668   4.956   7.742   2.620 -0.3535  1.7641  0.4203
   62MOL     H7 8669   5.106   7.694   2.547  0.0995  0.9335  0.6934
   62MOL     H8 8670   5.024   0.227   2.598  1.8516  1.1783  0.3013
   62MOL     C9 8671   4.891   7.667   2.400  0.0703 -0.6744 -0.2218
   62MOL    C10 8672   4.976   7.595   2.293 -0.0969 -0.2606 -0.3322
   62MOL    O11 8673   5.102   7.549   2.350  0.0043 -0.1597 -0.4037
   62MOL    H12 8674   4.876   7.607   2.490  0.3272 -2.1833 -1.1675
   62MOL    H13 8675   4.796   7.691   2.352  0.5636  2.1997  0.1386
   62MOL    H14 8676   4.992   7.675   2.221 -0.5709 -0.3989 -0.5973
   62MOL    H15 8677   4.924   7.512   2.245 -0.5286 -0.4992  0.5389
   62MOL    C16 8678   5.147   7.424   2.291  0.4878 -0.6535  0.3138
   62MOL    C17 8679   5.291   7.403   2.354  0.1012 -0.2088 -0.4737
   62MOL    O18 8680   5.274   7.357   2.486  0.4975 -0.3700  0.3879
   62MOL    H19 8681   5.078   7.340   2.304  1.8451 -1.7953  0.2560
   62MOL    H20 8682   5.150   7.434   2.182  0.3020 -2.6755  0.1030
   62MOL    H21 8683   5.339   7.501   2.358 -0.2520  0.0764 -2.5198
   62MOL    H22 8684   5.342   7.331   2.289  0.4555 -2.4249  2.1680
   62MOL    C23 8685   5.265   7.214   2.502  0.7626  0.3923 -0.2683
   62MOL    C24 8686   5.190   7.187   2.636  0.8107 -0.0702 -0.4000
   62MOL    O25 8687   5.052   7.179   2.613 -0.5496  0.1877  0.3632
   62MOL    H26 8688   5.212   7.163   2.422  1.6736 -1.1644  0.1015
   62MOL    H27 8689   5.364   7.169   2.496  0.6887  0.1480  0.3191
   62MOL    H28 8690   5.221   7.262   2.709  0.8601  1.3623 -1.8592
   62MOL    H29 8691   5.230   7.091   2.669  0.1926 -0.2329 -0.1258
   62MOL    C30 8692   4.996   7.309   2.608  0.0126  0.3868  0.1506
   62MOL    C31 8693   4.859   7.284   2.539 -0.5943  0.3428  0.4012
   62MOL    O32 8694   4.773   7.201   2.613 -0.1345 -0.1374 -0.0996
   62MOL    H33 8695   4.979   7.337   2.712 -0.9351 -0.1941  0.1611
   62MOL    H34 8696   5.049   7.390   2.559  0.7574 -0.6835 -0.8382
   62MOL    H35 8697   4.865   7.236   2.441  1.6086 -2.1556  1.6736
   62MOL    H36 8698   4.810   7.378   2.516 -0.2603  0.9940  2.2626
   62MOL    C37 8699   4.651   7.181   2.550 -0.4842 -0.2337 -0.1006
   62MOL    C38 8700   4.553   7.107   2.643  0.2424 -0.6575 -0.4977
   62MOL    O39 8701   4.478   7.187   2.727  0.5501  0.1522 -0.3326
   62MOL    H40 8702   4.601   7.261   2.495 -1.0932  0.1721  1.0380
   62MOL    H41 8703   4.684   7.118   2.467 -0.9375  0.3924 -0.7660
   62MOL    H42 8704   4.605   7.025   2.693  1.3434  1.0014  1.1841
   62MOL    H43 8705   4.485   7.049   2.581 -0.7382  0.7409 -0.7595
   62MOL    C44 8706   4.399   7.111   2.831 -0.5979 -0.3359  0.5045
   62MOL    C45 8707   4.377   7.221   2.938 -0.5789  0.4441 -0.0247
   62MOL    O46 8708   4.496   7.258   3.010  0.2142  0.3101 -0.0920
   62MOL    H47 8709   4.310   7.069   2.783 -1.2629 -0.3605  1.7317
   62MOL    H48 8710   4.456   7.028   2.873 -0.9548 -0.9041 -0.1279
   62MOL    H49 8711   4.309   7.171   3.007 -2.3938  1.5450 -0.9537
   62MOL    H50 8712   4.334   7.315   2.903  0.3014  1.5071  1.6938
   62MOL    C51 8713   4.462   7.315   3.142  0.1462 -0.0680  1.2968
   62MOL    C52 8714   4.478   7.462   3.150  0.1039  0.5704 -0.2496
   62MOL    O53 8715   4.394   7.524   3.058 -0.2223  0.3867  0.1682
   62MOL    H54 8716   4.365   7.283   3.180 -1.2708  1.5422 -0.8743
   62MOL    H55 8717   4.535   7.270   3.209  0.3288  1.6309  2.2752
   62MOL    H56 8718   4.580   7.471   3.114 -0.1698 -2.3230 -1.9662
   62MOL    H57 8719   4.451   7.492   3.251 -1.4657 -3.5539  0.6400
   62MOL    C58 8720   4.369   7.662   3.083  0.4091  0.2056 -0.4297
   62MOL    C59 8721   4.265   7.687   3.184  0.8451 -0.8663  0.1499
   62MOL    O60 8722   4.303   7.680   3.323 -0.5828 -0.2032  0.1668
   62MOL    H61 8723   4.462   7.707   3.117 -0.2845 -0.5192  2.6211
   62MOL    H62 8724   4.342   7.712   2.990 -2.1255 -0.0022  0.1603
   62MOL    H63 8725   4.174   7.630   3.171 -0.3629  0.9561  0.3670
   62MOL    H64 8726   4.216   0.013   3.178  0.7633 -0.9247 -0.1093
   62MOL    C65 8727   4.208   7.641   3.416  0.4319  0.3401 -0.1860
   62MOL    C66 8728   4.278   7.630   3.547  0.5619  0.0533  0.1851
   62MOL    O67 8729   4.362   7.518   3.543 -0.2154  0.5409  0.5756
   62MOL    H68 8730   4.131   7.718   3.418  0.3979  0.2879  0.7498
   62MOL    H69 8731   4.162   7.547   3.387 -0.9544  0.6521  0.9806
   62MOL    H70 8732   4.202   7.596   3.617 -1.7295  1.0325 -1.7452
   62MOL    H71 8733   4.333   7.719   3.578  3.1316 -1.8220  1.1696
   62MOL    C72 8734   4.415   7.494   3.674 -1.1385  0.7165 -0.0845
   62MOL    C73 8735   4.526   7.386   3.654 -0.3711  0.6515 -0.3218
   62MOL    O74 8736   4.651   7.455   3.626  0.8224  0.2097  0.2645
   62MOL    H75 8737   4.443   7.585   3.728  3.1597  0.7968 -2.2285
   62MOL    H76 8738   4.337   7.454   3.739  0.4209 -0.3690  1.1481
   62MOL    H77 8739   4.503   7.309   3.581  0.5065  2.1139 -2.1563
   62MOL    H78 8740   4.548   7.345   3.753  0.1007 -1.5363 -1.3137
   62MOL    C79 8741   4.682   7.471   3.489 -0.2798 -0.4197 -0.2875
   62MOL    C80 8742   4.829   7.512   3.480  0.1182  0.1547 -0.0281
   62MOL    O81 8743   4.908   7.400   3.499  0.2340  0.8018 -0.3692
   62MOL    H82 8744   4.665   7.375   3.441 -0.1482 -0.6741  0.1743
   62MOL    H83 8745   4.613   7.543   3.446  1.0095  0.9053 -0.1954
   62MOL    H84 8746   4.851   7.590   3.553 -0.4661  1.1196 -0.8712
   62MOL    H85 8747   4.841   7.545   3.377 -1.0406  0.6215 -0.0235
   62MOL    C86 8748   5.028   7.400   3.425  0.4769  0.1073  0.3752
   62MOL    C87 8749   5.112   7.272   3.446  0.1276 -0.5680 -0.1481
   62MOL    O88 8750   5.195   7.281   3.567  0.0691 -0.3638  1.2524
   62MOL    H89 8751   5.002   7.400   3.319 -0.8107  2.8871  0.6416
   62MOL    H90 8752   5.091   7.488   3.438  0.4300  0.1308  0.4421
   62MOL    H91 8753   5.175   7.242   3.361 -0.0394  1.0987 -0.8787
   62MOL    H92 8754   5.031   7.201   3.460  1.2629 -1.9863 -0.6715
   62MOL    C93 8755   5.219   7.167   3.645 -0.3069  0.6801 -0.5778
   62MOL    C94 8756   5.349   7.189   3.725 -1.0878  0.2721  0.0832
   62MOL    O95 8757   5.312   7.192   3.858 -0.3560  0.0586  0.5762
   62MOL    H96 8758   5.132   7.148   3.708 -0.5381  1.6640 -0.5888
   62MOL    H97 8759   5.239   7.084   3.577  0.0329 -1.3869  1.9611
   62MOL    H98 8760   5.403   7.275   3.687  1.9324 -0.7108  1.9321
   62MOL    H99 8761   5.422   7.108   3.715  0.0457  1.6679 -3.5690
   62MOL   C100 8762   5.426   7.206   3.944 -0.8058 -0.0446  0.2666
   62MOL   C101 8763   5.371   7.226   4.087 -0.5439  0.4671  0.7121
   62MOL   O102 8764   5.477   7.306   4.143  0.5894 -0.6260 -0.2076
   62MOL   H103 8765   5.489   7.118   3.929  0.0482  0.3880  1.2397
   62MOL   H104 8766   5.488   7.293   3.919 -0.0093  0.0841  2.5913
   62MOL   H105 8767   5.362   7.134   4.145 -0.2170  0.9635  1.5483
   62MOL   H106 8768   5.271   7.270   4.099 -1.7482 -2.2912  1.1507
   62MOL   C107 8769   5.472   7.302   4.285  0.2180  0.2088 -1.0048
   62MOL   C108 8770   5.572   7.390   4.360 -0.6221  0.3117 -0.2584
   62MOL   O109 8771   5.705   7.343   4.354 -0.0497  0.1286  0.1169
   62MOL   H110 8772   5.371   7.328   4.314  0.1655  0.9884 -1.8756
   62MOL   H111 8773   5.494   7.199   4.313 -0.2191  0.6656  1.1454
   62MOL   H112 8774   5.541   7.387   4.465  0.4733  0.4458  0.0779
   62MOL   H113 8775   5.574   7.489   4.314  2.1832  0.7673  0.7641
   62MOL   C114 8776   5.783   7.393   4.463 -0.1698 -0.2271  0.2565
   62MOL   C115 8777   5.930   7.400   4.418 -0.1974  0.1476 -0.1676
   62MOL   O116 8778   5.995   7.270   4.429 -0.3497  0.2063 -0.1796
   62MOL   H117 8779   5.757   7.498   4.479  0.8341 -0.1803  1.6980
   62MOL   H118 8780   5.777   7.330   4.552 -0.9662 -0.6596 -0.1043
   62MOL   H119 8781   5.989   7.473   4.474  0.5322  1.2793 -2.3606
   62MOL   H120 8782   5.930   7.433   4.314 -2.2181 -0.0547 -0.2504
   62MOL   C121 8783   6.130   7.273   4.365  0.5830  0.2638  0.2163
   62MOL   C122 8784   6.174   7.124   4.385 -0.2793  0.7924 -0.2104
   62MOL   O123 8785   6.102   7.049   4.296  0.6626 -0.2632  0.0877
   62MOL   H124 8786   6.112   7.302   4.261 -2.1369  0.5873  0.7320
   62MOL   H125 8787   6.219   7.323   4.403  0.0308  1.6845 -0.3451
   62MOL   H126 8788   6.149   7.080   4.482  2.0284  0.3971  0.2425
   62MOL   H127 8789   6.281   7.107   4.372 -0.5251 -0.8562 -0.2077
   62MOL   C128 8790   6.187   6.938   4.260  1.1515 -0.7958 -0.3949
   62MOL   C129 8791   6.142   6.875   4.134 -0.4516 -0.9704 -0.1442
   62MOL   O130 8792   6.172   6.739   4.123  0.3758 -0.4996 -0.4292
   62MOL   H131 8793   6.295   6.952   4.250  1.4041 -2.2259  0.2216
   62MOL   H132 8794   6.188   6.872   4.346 -1.7968  0.7571  0.9103
   62MOL   H133 8795   6.172   6.932   4.046  0.2087 -1.3889 -0.1896
   62MOL   H134 8796   6.033   6.877   4.141 -0.4484 -1.8989  0.1727
   62MOL   C135 8797   6.119   6.682   4.003 -0.2656 -0.1595  0.4777
   62MOL   C136 8798   6.182   6.539   3.975  0.2713 -0.9464  0.1835
   62MOL   O137 8799   6.161   6.508   3.839  0.5009  0.1799  0.0877
   62MOL   H138 8800   6.011   6.681   4.011 -0.1944  2.1954  2.0940
   62MOL   H139 8801   6.145   6.749   3.921  2.5782 -0.7888  0.7861
   62MOL   H140 8802   6.158   6.459   4.045  2.7942 -0.5790  1.4997
   62MOL   H141 8803   6.289   6.554   3.989  0.8228 -0.2784 -3.9999
   62MOL   H142 8804   6.068   6.498   3.825  0.6268 -1.4593  0.3302
   63MOL     C1 8805   4.078   3.882   2.611  0.2498  0.7022  0.1580
   63MOL     C2 8806   4.108   4.033   2.606 -0.3822  0.6375 -0.1379
   63MOL     O3 8807   4.018   4.095   2.699 -0.1810 -0.0577 -0.5114
   63MOL     H4 8808   4.148   3.827   2.548  1.2998 -0.2668  2.1199
   63MOL     H5 8809   3.975   3.858   2.585  0.3784 -0.1041  0.3613
   63MOL     H6 8810   4.084   4.063   2.504 -0.3592 -1.1403 -0.6758
   63MOL     H7 8811   4.212   4.059   2.626 -0.6658  0.9755  0.9556
   63MOL     H8 8812   4.100   3.852   2.714  0.5806 -0.0409 -0.1270
   63MOL     C9 8813   4.067   4.220   2.760 -0.7923 -0.5653 -0.4789
   63MOL    C10 8814   4.182   4.205   2.859 -0.0275  0.4346  0.0708
   63MOL    O11 8815   4.313   4.184   2.807  0.1364  0.2776  0.0252
   63MOL    H12 8816   4.097   4.293   2.684 -0.1207 -0.6491 -0.3005
   63MOL    H13 8817   3.988   4.268   2.818  0.9623  2.1292 -0.1709
   63MOL    H14 8818   4.150   4.147   2.945  2.0933  0.4315  0.8809
   63MOL    H15 8819   4.191   4.304   2.905 -2.2142  0.5558  0.2625
   63MOL    C16 8820   4.417   4.165   2.907  0.1675 -0.0179  0.2729
   63MOL    C17 8821   4.483   4.305   2.949  0.6700  0.5222  0.1553
   63MOL    O18 8822   4.390   4.391   3.011  0.2094  0.2477  0.2522
   63MOL    H19 8823   4.378   4.131   3.002  0.2473 -4.1244 -1.0776
   63MOL    H20 8824   4.493   4.097   2.869 -1.2973 -0.2578 -2.3927
   63MOL    H21 8825   4.523   4.352   2.859 -0.4478  0.8694 -0.1809
   63MOL    H22 8826   4.565   4.296   3.019  0.5413 -0.5671  0.1736
   63MOL    C23 8827   4.377   4.369   3.151 -0.1614  0.6412 -0.2695
   63MOL    C24 8828   4.269   4.470   3.180 -0.1969  0.2562 -0.4482
   63MOL    O25 8829   4.256   4.473   3.320  0.2003 -0.0209 -0.2851
   63MOL    H26 8830   4.328   4.273   3.170  1.9461 -0.1329  1.3891
   63MOL    H27 8831   4.463   4.392   3.213 -0.0310  2.5120 -1.1184
   63MOL    H28 8832   4.183   4.436   3.121 -1.8398  1.9865  0.8646
   63MOL    H29 8833   4.303   4.565   3.139 -1.3507 -0.1745 -2.4871
   63MOL    C30 8834   4.152   4.552   3.370  0.5945 -0.8291 -0.1689
   63MOL    C31 8835   4.168   4.697   3.316  0.1103 -0.2054  0.6075
   63MOL    O32 8836   4.101   4.715   3.189 -0.3591 -0.1933 -0.2830
   63MOL    H33 8837   4.052   4.517   3.344 -0.4416  1.8196  0.0390
   63MOL    H34 8838   4.150   4.555   3.479  2.6052  0.4185 -0.1497
   63MOL    H35 8839   4.272   4.726   3.329 -0.1749  1.2375 -0.3180
   63MOL    H36 8840   4.108   4.764   3.377  0.4312  0.5212  0.1373
   63MOL    C37 8841   4.142   4.840   3.131  0.8635  0.6490  0.0368
   63MOL    C38 8842   4.052   4.860   3.014 -0.5801  0.6641 -0.1297
   63MOL    O39 8843   4.077   4.991   2.965  0.1922 -0.1076 -0.8639
   63MOL    H40 8844   4.134   4.915   3.210  2.7873 -0.4841  1.3537
   63MOL    H41 8845   4.243   4.843   3.089 -0.1364  1.5528 -2.3743
   63MOL    H42 8846   3.947   4.851   3.042 -0.3211  1.8903  1.3039
   63MOL    H43 8847   4.065   4.787   2.934 -1.7670 -1.3558  1.4834
   63MOL    C44 8848   4.041   5.015   2.834  0.1045 -0.2055  0.2133
   63MOL    C45 8849   4.053   5.162   2.798 -0.5074  0.3497 -0.3220
   63MOL    O46 8850   3.946   5.232   2.864  0.0565 -0.2176 -0.2557
   63MOL    H47 8851   4.116   4.959   2.777 -0.9789 -1.7079  0.2173
   63MOL    H48 8852   3.942   4.982   2.801 -0.1628  2.7405 -2.1510
   63MOL    H49 8853   4.053   5.178   2.691  0.8056 -2.2167 -0.7421
   63MOL    H50 8854   4.148   5.203   2.834  0.0129 -1.1063  0.0114
   63MOL    C51 8855   3.831   5.271   2.795 -0.3916 -0.0716  0.8925
   63MOL    C52 8856   3.723   5.299   2.904  0.5622 -0.6287  0.1727
   63MOL    O53 8857   3.731   5.428   2.969 -0.0104  0.0301  0.0881
   63MOL    H54 8858   3.848   5.359   2.733 -0.5746 -0.5776  0.1153
   63MOL    H55 8859   3.792   5.193   2.730 -1.8695  2.7058 -1.6661
   63MOL    H56 8860   3.733   5.221   2.979 -0.5480 -0.4520  0.5142
   63MOL    H57 8861   3.624   5.290   2.858 -0.0468  0.3885  1.2441
   63MOL    C58 8862   3.854   5.460   3.034  0.2563  0.4119 -0.5790
   63MOL    C59 8863   3.850   5.603   3.089 -0.5943 -0.1622  0.5442
   63MOL    O60 8864   3.891   5.685   2.982  0.0498 -0.0597 -0.7439
   63MOL    H61 8865   3.850   5.392   3.119 -0.3631 -0.8456 -1.5914
   63MOL    H62 8866   3.947   5.441   2.982  0.1611  1.0635 -1.0027
   63MOL    H63 8867   3.913   5.598   3.178  0.2246  0.8147  0.0229
   63MOL    H64 8868   3.753   5.625   3.133  0.2981  2.3483  1.3509
   63MOL    C65 8869   3.916   5.814   3.029 -0.0833  0.2249 -0.0985
   63MOL    C66 8870   3.943   5.910   2.913 -0.2323 -0.6368 -0.2619
   63MOL    O67 8871   3.835   5.897   2.825 -0.3447 -0.2714 -0.2481
   63MOL    H68 8872   3.831   5.837   3.093  0.4394 -1.7147  1.3395
   63MOL    H69 8873   4.003   5.810   3.095  0.7749 -1.0075 -1.2846
   63MOL    H70 8874   4.030   5.884   2.852  0.4362 -0.9694  0.8048
   63MOL    H71 8875   3.957   6.010   2.954  4.1158  0.1882 -3.3476
   63MOL    C72 8876   3.819   6.001   2.733 -0.0299 -0.0898  0.4835
   63MOL    C73 8877   3.692   5.990   2.645  0.3400 -0.0224 -0.6558
   63MOL    O74 8878   3.580   6.054   2.717  0.6906  0.3183  0.6854
   63MOL    H75 8879   3.819   6.101   2.777 -1.6135  0.7748 -1.3869
   63MOL    H76 8880   3.903   5.987   2.666 -0.0048 -0.1748  0.5330
   63MOL    H77 8881   3.686   5.886   2.613 -0.4190 -0.6195  1.3189
   63MOL    H78 8882   3.721   6.040   2.553  2.5256  1.8082  0.9894
   63MOL    C79 8883   3.491   6.100   2.620  0.1414 -0.1187  0.6366
   63MOL    C80 8884   3.364   6.162   2.685 -0.1529  0.2742  0.3511
   63MOL    O81 8885   3.351   6.299   2.650  0.1816  0.0057  0.6189
   63MOL    H82 8886   3.534   6.169   2.548 -0.2356 -0.4809  0.0569
   63MOL    H83 8887   3.449   6.011   2.573  1.2979 -1.8480  2.8140
   63MOL    H84 8888   3.372   6.152   2.793 -0.3702 -1.0444  0.2503
   63MOL    H85 8889   3.276   6.104   2.658  1.6536 -2.3499 -0.1436
   63MOL    C86 8890   3.238   6.358   2.701 -0.3378  0.1622 -0.0502
   63MOL    C87 8891   3.199   6.476   2.615 -0.4599  0.0350  0.2285
   63MOL    O88 8892   3.300   6.574   2.633 -0.1121 -0.3272  0.1973
   63MOL    H89 8893   3.154   6.290   2.716 -0.0637  0.0077  0.8500
   63MOL    H90 8894   3.265   6.386   2.803 -2.6978  0.4760  0.5321
   63MOL    H91 8895   3.103   6.508   2.654 -1.9526 -3.6954 -0.2222
   63MOL    H92 8896   3.193   6.447   2.510  3.4763  0.7032 -0.2607
   63MOL    C93 8897   3.259   6.709   2.602 -0.1450  0.4717 -0.0670
   63MOL    C94 8898   3.378   6.791   2.608  0.0138 -0.6320  0.7100
   63MOL    O95 8899   3.421   6.812   2.741  0.5379 -0.3803  0.1770
   63MOL    H96 8900   3.225   6.703   2.499 -1.1365 -0.1813  0.2938
   63MOL    H97 8901   3.171   6.745   2.655  0.9790  0.1569  2.0428
   63MOL    H98 8902   3.362   6.879   2.545  0.7389 -0.7158  0.4125
   63MOL    H99 8903   3.451   6.734   2.551  0.2528  2.0198 -1.7658
   63MOL   C100 8904   3.557   6.841   2.750  0.2406 -0.2195 -0.4454
   63MOL   C101 8905   3.589   6.915   2.883 -0.1893 -0.4010 -0.8823
   63MOL   O102 8906   3.531   7.041   2.872  0.3337  0.2891 -0.2276
   63MOL   H103 8907   3.613   6.747   2.744 -0.4009 -0.7153  1.2109
   63MOL   H104 8908   3.583   6.906   2.666 -1.6471  0.6586 -0.3553
   63MOL   H105 8909   3.696   6.930   2.894  0.0188 -1.3968 -1.5110
   63MOL   H106 8910   3.555   6.866   2.974 -0.6599  0.2976 -0.6745
   63MOL   C107 8911   3.548   7.123   2.989 -1.1254  0.4812 -0.3217
   63MOL   C108 8912   3.499   7.264   2.954 -0.5342 -0.0363  0.3050
   63MOL   O109 8913   3.600   7.317   2.868 -0.2139  0.3685  0.1682
   63MOL   H110 8914   3.489   7.085   3.072  1.2624 -5.5600 -1.0959
   63MOL   H111 8915   3.651   7.127   3.023 -1.7242 -0.4148  1.6481
   63MOL   H112 8916   3.488   7.321   3.047 -2.4738  1.4069 -0.7835
   63MOL   H113 8917   3.396   7.257   2.921 -0.1396 -2.9249 -0.4382
   63MOL   C114 8918   3.560   7.442   2.827 -0.2425  0.6335  0.4111
   63MOL   C115 8919   3.647   7.496   2.704  0.0194 -0.5201  0.3804
   63MOL   O116 8920   3.568   7.555   2.605 -0.3098 -0.0207 -0.3252
   63MOL   H117 8921   3.456   7.435   2.793 -0.9782 -1.2487  2.9072
   63MOL   H118 8922   3.556   7.517   2.906  2.3517  0.1229  1.0766
   63MOL   H119 8923   3.725   7.427   2.669 -0.9782 -2.3028  1.5761
   63MOL   H120 8924   3.712   7.573   2.746 -0.9427  0.2440  0.4735
   63MOL   C121 8925   3.617   7.543   2.475 -0.4345 -0.0138 -0.1779
   63MOL   C122 8926   3.584   7.673   2.394  0.4497 -0.1855  0.6034
   63MOL   O123 8927   3.653   7.673   2.269  0.2248  0.7110 -0.2378
   63MOL   H124 8928   3.726   7.536   2.482 -0.2936  1.3948 -0.6576
   63MOL   H125 8929   3.576   7.452   2.431  0.3339  0.2206 -1.4317
   63MOL   H126 8930   3.600   7.764   2.452  1.7085  1.0238 -1.5698
   63MOL   H127 8931   3.477   7.673   2.372  0.6924 -3.6711 -0.9849
   63MOL   C128 8932   3.602   0.011   2.180  0.2763 -0.1848  0.2375
   63MOL   C129 8933   3.694   0.139   2.207 -0.1970 -1.0629 -0.2872
   63MOL   O130 8934   3.678   0.243   2.102  0.2501  0.5853 -0.3138
   63MOL   H131 8935   3.601   7.751   2.076 -2.2981  1.7796 -0.3716
   63MOL   H132 8936   3.496   0.031   2.199  0.8039  0.7429  2.3715
   63MOL   H133 8937   3.796   0.104   2.191 -0.5499 -1.9884 -0.6169
   63MOL   H134 8938   3.676   0.183   2.305 -3.5768  1.0746 -1.7838
   63MOL   C135 8939   3.759   0.356   2.130 -0.6524  0.3333  0.1041
   63MOL   C136 8940   3.779   0.436   2.000 -0.4799 -0.6092  0.3581
   63MOL   O137 8941   3.887   0.382   1.923 -0.3535  0.0844 -0.6167
   63MOL   H138 8942   3.705   0.416   2.203 -0.9256 -0.1873  0.3370
   63MOL   H139 8943   3.856   0.326   2.171 -0.7846 -1.2206 -0.6526
   63MOL   H140 8944   3.815   0.537   2.020 -3.3322  0.5611 -0.2087
   63MOL   H141 8945   3.701   0.447   1.924  1.0034 -0.0482 -1.1091
   63MOL   H142 8946   3.842   0.319   1.869  0.9374 -0.3196 -1.2455
   64MOL     C1 8947   4.353   2.097   6.426 -0.4004 -0.5612  0.2781
   64MOL     C2 8948   4.401   1.977   6.337 -0.1242  0.3148  0.1445
   64MOL     O3 8949   4.388   2.000   6.202 -0.1183  0.2264 -1.0307
   64MOL     H4 8950   4.416   2.183   6.405 -0.0261 -0.0956  3.0526
   64MOL     H5 8951   4.364   2.087   6.534  1.7094  1.1266  0.2639
   64MOL     H6 8952   4.338   1.894   6.368 -0.6317  0.3822 -0.6712
   64MOL     H7 8953   4.506   1.958   6.357  0.1123  1.2974 -0.1503
   64MOL     H8 8954   4.248   2.113   6.403  0.2881  1.8319 -1.3863
   64MOL     C9 8955   4.484   2.089   6.149 -0.1915  0.2265  0.1635
   64MOL    C10 8956   4.460   2.112   6.001 -0.5409 -0.0538 -0.2201
   64MOL    O11 8957   4.503   2.244   5.947  0.0988  0.3863  0.4294
   64MOL    H12 8958   4.484   2.190   6.192  1.6025  0.2680  0.0772
   64MOL    H13 8959   4.585   2.061   6.177 -0.8051 -2.6179 -0.3889
   64MOL    H14 8960   4.352   2.099   5.988 -0.4353 -0.9650 -0.1964
   64MOL    H15 8961   4.515   2.026   5.964 -2.0939  0.0133 -2.7635
   64MOL    C16 8962   4.475   2.241   5.806  0.7066 -0.4630  0.2580
   64MOL    C17 8963   4.487   2.382   5.746 -0.0898 -0.2151 -0.1314
   64MOL    O18 8964   4.474   2.370   5.607  0.1005 -0.9640 -0.2476
   64MOL    H19 8965   4.547   2.176   5.757  0.8987  0.3379 -0.5417
   64MOL    H20 8966   4.372   2.219   5.781  0.4232  0.2020  0.8182
   64MOL    H21 8967   4.590   2.415   5.757  0.0997 -1.5119  2.1179
   64MOL    H22 8968   4.419   2.449   5.799  0.2649 -0.6126  0.8391
   64MOL    C23 8969   4.355   2.439   5.557  0.5650 -0.1526 -0.1134
   64MOL    C24 8970   4.350   2.429   5.407  0.4551  0.7127 -0.6027
   64MOL    O25 8971   4.284   2.317   5.353 -0.2824  0.2513 -0.5014
   64MOL    H26 8972   4.265   2.396   5.601  0.6970  1.4110  1.7872
   64MOL    H27 8973   4.360   2.543   5.588 -1.1497  0.1408 -0.8028
   64MOL    H28 8974   4.455   2.433   5.381  0.6427  0.3248  0.0718
   64MOL    H29 8975   4.311   2.523   5.368 -0.9864  0.4828  0.2170
   64MOL    C30 8976   4.158   2.351   5.285 -0.3807  0.4911 -0.3256
   64MOL    C31 8977   4.036   2.373   5.383  0.0601  0.9007 -0.7292
   64MOL    O32 8978   4.058   2.480   5.470  0.1346 -0.1679  0.4918
   64MOL    H33 8979   4.176   2.442   5.227 -0.9337  0.1473 -1.0377
   64MOL    H34 8980   4.133   2.273   5.213 -0.4375  1.1459 -1.0213
   64MOL    H35 8981   4.016   2.282   5.439 -2.0687  1.7203 -0.1134
   64MOL    H36 8982   3.943   2.395   5.331 -0.0122  0.6587 -0.7012
   64MOL    C37 8983   3.946   2.510   5.549 -0.0026 -0.4897  0.0445
   64MOL    C38 8984   3.937   2.433   5.680  0.0202  0.0483 -0.6796
   64MOL    O39 8985   3.809   2.472   5.736 -0.0653  0.1708 -0.0689
   64MOL    H40 8986   3.949   2.619   5.558  1.9719 -0.6043  1.1024
   64MOL    H41 8987   3.851   2.496   5.498 -0.8204  1.7478  0.8748
   64MOL    H42 8988   4.022   2.446   5.747  0.8905 -1.2866 -1.5116
   64MOL    H43 8989   3.935   2.326   5.665  0.8899  0.1341 -1.4178
   64MOL    C44 8990   3.778   2.398   5.855 -0.6693  0.9736 -0.1563
   64MOL    C45 8991   3.653   2.452   5.917 -0.5084 -0.1504  0.1271
   64MOL    O46 8992   3.618   2.390   6.040 -0.2223  0.1173 -0.0026
   64MOL    H47 8993   3.760   2.291   5.848 -3.4422  1.4126 -0.2490
   64MOL    H48 8994   3.870   2.403   5.913 -3.0087 -1.7206  3.9804
   64MOL    H49 8995   3.575   2.432   5.843 -1.8321  1.2205  1.1145
   64MOL    H50 8996   3.658   2.560   5.929 -2.4431 -0.1813  1.5361
   64MOL    C51 8997   3.488   2.433   6.078  0.1965  0.0135  0.6554
   64MOL    C52 8998   3.414   2.321   6.146  0.2106  0.3988  0.5265
   64MOL    O53 8999   3.365   2.249   6.027 -0.6873  0.6691 -0.3247
   64MOL    H54 9000   3.511   2.521   6.138 -2.3844  0.2253  1.4078
   64MOL    H55 9001   3.428   2.478   5.999  0.9466  0.7252  0.4984
   64MOL    H56 9002   3.338   2.367   6.209  1.4909  1.7392  1.1364
   64MOL    H57 9003   3.477   2.254   6.205 -0.5900 -0.3931  0.4852
   64MOL    C58 9004   3.273   2.147   6.051 -1.1047  0.5001 -0.5151
   64MOL    C59 9005   3.238   2.051   5.936 -0.2486  0.3711  0.0165
   64MOL    O60 9006   3.198   1.925   5.982 -0.3794  0.3839 -0.0470
   64MOL    H61 9007   3.313   2.079   6.127  0.3204  1.8398 -0.0458
   64MOL    H62 9008   3.184   2.184   6.102 -1.2002 -1.8501  1.0858
   64MOL    H63 9009   3.328   2.023   5.881  0.4555  0.6159  1.0239
   64MOL    H64 9010   3.177   2.112   5.870  0.2725  0.5554 -0.2959
   64MOL    C65 9011   3.060   1.922   6.010 -0.2892  1.0538  0.1650
   64MOL    C66 9012   3.009   1.804   6.092  0.6644 -0.2209  0.3883
   64MOL    O67 9013   3.075   1.797   6.219 -0.1195 -0.1702 -1.0021
   64MOL    H68 9014   3.019   2.007   6.065 -4.6419  0.0841 -1.4085
   64MOL    H69 9015   3.009   1.925   5.914  0.7819  0.1599 -0.4471
   64MOL    H70 9016   3.039   1.719   6.031  0.4262 -1.7057  2.3153
   64MOL    H71 9017   2.901   1.800   6.098  0.7068 -1.1208  0.5036
   64MOL    C72 9018   3.047   1.688   6.305  0.2319 -0.2872 -0.5111
   64MOL    C73 9019   3.154   1.663   6.411  0.0906  0.1511 -0.2941
   64MOL    O74 9020   3.128   1.729   6.533  0.4914 -0.3239  0.2405
   64MOL    H75 9021   2.948   1.690   6.352  0.7977  1.7276  0.6569
   64MOL    H76 9022   3.048   1.598   6.243 -0.5778 -1.0869  0.6030
   64MOL    H77 9023   3.253   1.691   6.374 -0.8867  2.2102 -1.4193
   64MOL    H78 9024   3.151   1.559   6.442  0.5428  0.3679  0.4886
   64MOL    C79 9025   3.134   1.868   6.545 -0.9297  0.1432 -0.9812
   64MOL    C80 9026   3.081   1.917   6.676  1.1158 -0.5139 -0.0942
   64MOL    O81 9027   3.170   1.895   6.784 -0.2609  0.1557 -0.2985
   64MOL    H82 9028   3.239   1.897   6.546 -0.4149 -1.5759 -1.9352
   64MOL    H83 9029   3.080   1.913   6.462 -2.1570 -1.3413 -1.0128
   64MOL    H84 9030   2.996   1.854   6.701  0.5002  0.8405  1.3333
   64MOL    H85 9031   3.046   2.020   6.677  0.3165 -0.7969  1.0902
   64MOL    C86 9032   3.122   1.916   6.909  0.2137 -0.2289  0.0653
   64MOL    C87 9033   3.219   1.891   7.020 -0.2339 -0.2115  0.5221
   64MOL    O88 9034   3.344   1.968   7.031  0.2688 -0.2851  0.3273
   64MOL    H89 9035   3.093   2.020   6.923  2.0518  0.3546 -0.3921
   64MOL    H90 9036   3.035   1.852   6.924  2.0364 -3.3188 -1.8916
   64MOL    H91 9037   3.249   1.787   7.008  0.9838  0.2405 -0.4548
   64MOL    H92 9038   3.174   1.904   7.118  1.3270  0.1971  1.2000
   64MOL    C93 9039   3.433   1.901   7.119  0.1018 -0.1460 -0.4554
   64MOL    C94 9040   3.555   1.993   7.147 -0.5582 -0.4982 -0.0868
   64MOL    O95 9041   3.539   2.088   7.253 -0.1006  0.0596  0.2261
   64MOL    H96 9042   3.381   1.878   7.213 -0.5036  0.0059 -0.7478
   64MOL    H97 9043   3.449   1.799   7.086  1.2894 -0.0640 -0.1430
   64MOL    H98 9044   3.583   2.054   7.061  1.4733  0.4763  1.2329
   64MOL    H99 9045   3.642   1.938   7.183  0.7551  0.9801 -0.9440
   64MOL   C100 9046   3.640   2.177   7.286  0.5661 -0.0951 -0.1517
   64MOL   C101 9047   3.624   2.307   7.201 -0.3957 -0.8251 -0.3578
   64MOL   O102 9048   3.707   2.413   7.255  0.1201  0.1462  0.0443
   64MOL   H103 9049   3.632   2.202   7.391 -0.7825 -0.4105 -0.1653
   64MOL   H104 9050   3.740   2.132   7.286  0.1772 -1.0132  1.5690
   64MOL   H105 9051   3.517   2.328   7.201 -0.4480 -1.0885 -0.6599
   64MOL   H106 9052   3.645   2.287   7.095  1.3940 -1.6941  0.1284
   64MOL   C107 9053   3.696   2.539   7.184 -0.6625  0.2116 -0.6765
   64MOL   C108 9054   3.564   2.605   7.208 -0.8253  0.5256 -0.1088
   64MOL   O109 9055   3.577   2.741   7.168  0.1470 -0.0754  0.1989
   64MOL   H110 9056   3.774   2.602   7.225 -0.6478 -0.6407  0.6643
   64MOL   H111 9057   3.708   2.513   7.079 -0.0015  0.9692 -0.7891
   64MOL   H112 9058   3.527   2.595   7.310 -0.6775 -1.2785 -0.2249
   64MOL   H113 9059   3.484   2.560   7.150 -0.4838  1.0388 -0.9871
   64MOL   C114 9060   3.457   2.812   7.166  0.6342 -0.1090  0.6974
   64MOL   C115 9061   3.494   2.959   7.117  0.7974 -0.1175  0.6116
   64MOL   O116 9062   3.597   3.013   7.197 -0.0842 -0.6624 -0.1970
   64MOL   H117 9063   3.378   2.779   7.100  1.2592  0.0532 -0.1365
   64MOL   H118 9064   3.424   2.818   7.270  0.0736  1.8669  0.4231
   64MOL   H119 9065   3.400   3.009   7.139  0.6682 -0.2754  0.4193
   64MOL   H120 9066   3.519   2.968   7.011  0.7139  0.2830  0.6251
   64MOL   C121 9067   3.608   3.150   7.190  0.8786  0.5039  0.1515
   64MOL   C122 9068   3.508   3.201   7.301 -0.0572 -0.3795  0.6330
   64MOL   O123 9069   3.398   3.225   7.224  0.7686  0.0449 -0.3270
   64MOL   H124 9070   3.708   3.177   7.225  0.6700  0.4689  0.7699
   64MOL   H125 9071   3.591   3.195   7.092  3.6910  1.8928  0.2457
   64MOL   H126 9072   3.533   3.293   7.354 -2.3360  0.2527  0.6489
   64MOL   H127 9073   3.482   3.119   7.367 -2.3101  0.4419  0.8035
   64MOL   C128 9074   3.281   3.247   7.313 -0.1802  0.0649  0.6261
   64MOL   C129 9075   3.155   3.296   7.242 -1.0342 -0.2264 -0.3081
   64MOL   O130 9076   3.113   3.217   7.131 -0.5441  0.3180  0.1358
   64MOL   H131 9077   3.250   3.144   7.328 -1.6052  0.4801  0.6350
   64MOL   H132 9078   3.301   3.305   7.403  0.1149  0.7982  0.0965
   64MOL   H133 9079   3.172   3.397   7.203  1.0160  0.0868  1.3222
   64MOL   H134 9080   3.078   3.313   7.317  0.9371 -0.4394  1.8053
   64MOL   C135 9081   3.088   3.288   7.007 -0.0897  0.5909 -0.0158
   64MOL   C136 9082   3.221   3.317   6.934 -0.1234 -0.4460  0.1506
   64MOL   O137 9083   3.310   3.207   6.917  0.2149  0.0341  0.4809
   64MOL   H138 9084   3.036   3.215   6.945  2.5093 -1.0057 -0.3743
   64MOL   H139 9085   3.024   3.374   7.026  0.4613  1.0073 -0.0368
   64MOL   H140 9086   3.284   3.382   6.994 -0.2370 -1.3833  1.3085
   64MOL   H141 9087   3.198   3.358   6.836 -0.6799 -1.7697 -0.2767
   64MOL   H142 9088   3.332   3.185   7.006  2.5008 -0.8450 -0.2608
   65MOL     C1 9089   4.408   5.832   7.765  0.4087  0.0366  0.9912
   65MOL     C2 9090   4.482   5.956   7.753 -0.1346 -0.6040 -0.9208
   65MOL     O3 9091   4.577   5.946   7.647 -0.2564  0.8237  0.1698
   65MOL     H4 9092   4.379   5.794   7.666  1.6610  2.5819 -0.3997
   65MOL     H5 9093   4.322   5.861   0.054  1.7112 -0.6661  3.2744
   65MOL     H6 9094   4.528   5.975   0.079 -0.6738  0.4418 -0.8610
   65MOL     H7 9095   4.411   6.038   7.746 -0.3220 -0.7185 -0.4185
   65MOL     H8 9096   4.452   5.748   0.047 -0.4559 -1.5910 -0.7961
   65MOL     C9 9097   4.629   6.069   7.610  0.4299 -0.3060  1.1105
   65MOL    C10 9098   4.726   6.061   7.493  0.2875  0.6373  0.4496
   65MOL    O11 9099   4.665   6.008   7.376 -0.2464 -0.4679  0.0113
   65MOL    H12 9100   4.546   6.132   7.578 -0.0727 -0.2175  2.5585
   65MOL    H13 9101   4.662   6.117   7.702 -1.7075  2.5822  0.4444
   65MOL    H14 9102   4.808   5.999   7.528 -0.5428 -0.7292  0.0248
   65MOL    H15 9103   4.757   6.163   7.472 -0.1852  0.8738  0.8823
   65MOL    C16 9104   4.649   5.864   7.379  0.5472 -0.4190  0.2084
   65MOL    C17 9105   4.509   5.814   7.360 -0.2378 -0.0647  0.4771
   65MOL    O18 9106   4.453   5.838   7.232 -0.1603  0.0113  0.4036
   65MOL    H19 9107   4.719   5.819   7.308  0.9298  0.4332  0.0446
   65MOL    H20 9108   4.688   5.822   7.472  0.0876  0.7005  0.9196
   65MOL    H21 9109   4.446   5.835   7.446  1.1155 -0.1993  1.5276
   65MOL    H22 9110   4.526   5.706   7.351  2.0163  0.2527  0.5941
   65MOL    C23 9111   4.428   5.974   7.193 -0.4652 -0.2386  0.1954
   65MOL    C24 9112   4.343   5.974   7.067  0.5455 -0.5832 -0.0341
   65MOL    O25 9113   4.204   5.951   7.104  0.3939  0.1765  0.0043
   65MOL    H26 9114   4.383   6.015   7.283  1.6062 -0.1264  1.2070
   65MOL    H27 9115   4.521   6.027   7.173 -0.0189  0.0066  2.7311
   65MOL    H28 9116   4.395   5.912   6.993 -0.8976  0.5787 -2.0861
   65MOL    H29 9117   4.349   6.074   7.023  0.7743 -1.2494 -1.5479
   65MOL    C30 9118   4.167   5.824   7.078 -0.3372 -0.5913  0.2240
   65MOL    C31 9119   4.018   5.809   7.098 -0.5867  0.4909  0.6148
   65MOL    O32 9120   3.965   5.812   7.233 -0.8338 -0.1925  0.7647
   65MOL    H33 9121   4.189   5.797   6.975  0.5793 -0.0860  0.2895
   65MOL    H34 9122   4.216   5.751   7.143  0.6060 -2.0139 -2.0126
   65MOL    H35 9123   3.993   5.715   7.048 -0.0677  1.8137 -2.2274
   65MOL    H36 9124   3.978   5.885   7.030  2.4644 -0.2572 -2.1857
   65MOL    C37 9125   3.826   5.804   7.229 -0.5081  0.3749 -0.1240
   65MOL    C38 9126   3.789   5.759   7.371  0.1848  0.5418  0.0605
   65MOL    O39 9127   3.831   5.624   7.395  0.0288 -0.3775  0.6367
   65MOL    H40 9128   3.792   5.907   7.218 -0.6579  0.2117 -1.2031
   65MOL    H41 9129   3.779   5.735   7.159 -0.6261 -1.1825  1.4643
   65MOL    H42 9130   3.681   5.745   7.375  0.3990 -1.1446  0.5941
   65MOL    H43 9131   3.825   5.832   7.444 -0.8409  3.0127 -1.8310
   65MOL    C44 9132   3.902   5.603   7.513  0.8890  0.4230  0.2193
   65MOL    C45 9133   3.897   5.452   7.545  0.6110  0.0395  0.5064
   65MOL    O46 9134   3.969   5.410   7.665 -0.5181 -0.8024 -0.4911
   65MOL    H47 9135   4.003   5.640   7.495 -0.0425  2.3603 -1.1941
   65MOL    H48 9136   3.856   5.647   7.602  0.2561 -0.9063  0.5635
   65MOL    H49 9137   3.931   5.405   7.453  0.0455  1.8758 -0.6628
   65MOL    H50 9138   3.793   5.429   7.566 -0.2555  2.8514 -0.4726
   65MOL    C51 9139   3.962   5.272   7.677  0.7578 -0.1249  0.7345
   65MOL    C52 9140   3.988   5.237   0.055 -1.1440  1.3378  0.2897
   65MOL    O53 9141   3.876   5.223   0.138 -0.4877 -0.0743  0.1473
   65MOL    H54 9142   3.870   5.234   7.632  1.6733  1.1545 -2.3752
   65MOL    H55 9143   4.037   5.227   7.612  0.8796 -0.9725  1.4523
   65MOL    H56 9144   4.077   5.275   0.104  0.6468 -2.3051  0.0270
   65MOL    H57 9145   4.006   5.130   0.053 -0.4725  1.4427  0.5018
   65MOL    C58 9146   3.800   5.337   0.156 -0.0102  0.5032 -0.5511
   65MOL    C59 9147   3.673   5.301   0.230  0.0121 -0.5874 -0.3400
   65MOL    O60 9148   3.596   5.206   0.157  0.5870  0.4036  0.2497
   65MOL    H61 9149   3.852   5.415   0.212  1.8759  0.5491 -2.2852
   65MOL    H62 9150   3.769   5.380   0.060  0.8847 -0.1734 -1.1484
   65MOL    H63 9151   3.615   5.390   0.254  1.8611  0.1965  1.3381
   65MOL    H64 9152   3.690   5.254   0.327 -0.7212 -0.8851 -0.3511
   65MOL    C65 9153   3.482   5.156   0.228  0.3497  0.2845  0.0557
   65MOL    C66 9154   3.397   5.055   0.152  0.5553  0.4358 -0.4979
   65MOL    O67 9155   3.317   5.116   0.056 -0.0324 -0.1257 -0.6056
   65MOL    H68 9156   3.519   5.094   0.310  1.7297 -1.4495 -1.8055
   65MOL    H69 9157   3.417   5.237   0.260 -0.7540 -0.0619 -1.2677
   65MOL    H70 9158   3.325   4.996   0.209 -0.2861  0.4246 -1.5635
   65MOL    H71 9159   3.468   4.983   0.111 -0.4395 -0.9414  0.1294
   65MOL    C72 9160   3.259   5.023   7.737  0.4518 -0.1283  0.7285
   65MOL    C73 9161   3.207   5.098   7.608  0.2273  0.2305  0.1114
   65MOL    O74 9162   3.312   5.124   7.518 -0.7350 -0.0725  0.1936
   65MOL    H75 9163   3.325   4.939   7.715  0.7147  0.7294 -1.8595
   65MOL    H76 9164   3.178   4.969   0.016  0.1196  0.7273  1.1296
   65MOL    H77 9165   3.158   5.187   7.646  0.4980  0.4659 -0.0927
   65MOL    H78 9166   3.138   5.026   7.563  3.3462 -2.4908 -0.5621
   65MOL    C79 9167   3.256   5.181   7.401 -0.2781  0.7434  0.4583
   65MOL    C80 9168   3.372   5.187   7.296 -0.5010 -0.2409  0.3422
   65MOL    O81 9169   3.393   5.060   7.231 -0.3006 -0.1385 -0.0826
   65MOL    H82 9170   3.171   5.127   7.358  0.0619 -0.4453  1.2576
   65MOL    H83 9171   3.211   5.278   7.426  0.1193  0.7975  0.9675
   65MOL    H84 9172   3.473   5.212   7.329  0.7455 -1.2762 -2.4998
   65MOL    H85 9173   3.350   5.257   7.215 -1.0676  0.6934  1.2982
   65MOL    C86 9174   3.454   5.066   7.106  0.1048  0.6049  0.1987
   65MOL    C87 9175   3.437   4.936   7.020  0.1304 -0.6694 -0.0866
   65MOL    O88 9176   3.507   4.954   6.901 -0.9363  0.0139  0.0327
   65MOL    H89 9177   3.413   5.148   7.049 -1.0659 -0.4051 -0.4361
   65MOL    H90 9178   3.556   5.105   7.107 -0.3536  1.8066  1.0106
   65MOL    H91 9179   3.329   4.921   7.008 -0.1466  1.7436 -1.0609
   65MOL    H92 9180   3.479   4.848   7.067 -1.8670 -1.6958 -0.1447
   65MOL    C93 9181   3.463   4.858   6.802 -0.2732 -0.2391 -0.1647
   65MOL    C94 9182   3.581   4.852   6.704 -0.4517 -0.6568 -0.1891
   65MOL    O95 9183   3.663   4.743   6.755 -0.3124 -0.4505 -0.2634
   65MOL    H96 9184   3.425   4.763   6.839 -0.1828 -0.2979 -0.2225
   65MOL    H97 9185   3.383   4.908   6.749 -0.9690  0.7995  1.8165
   65MOL    H98 9186   3.626   4.952   6.703  2.2738 -1.7129  3.5794
   65MOL    H99 9187   3.544   4.835   6.603 -2.1234  2.6679 -0.2245
   65MOL   C100 9188   3.783   4.723   6.691 -0.3500  0.0378 -0.0283
   65MOL   C101 9189   3.783   4.693   6.541 -0.4795 -0.4096  0.6191
   65MOL   O102 9190   3.812   4.809   6.469 -0.3248  0.2183 -0.3525
   65MOL   H103 9191   3.850   4.810   6.697 -1.4705  0.7687  2.7836
   65MOL   H104 9192   3.837   4.640   6.736 -0.5945 -0.1333 -0.0506
   65MOL   H105 9193   3.691   4.639   6.517 -1.4239  0.5028  2.1401
   65MOL   H106 9194   3.864   4.621   6.528 -0.1554 -0.0112  0.4296
   65MOL   C107 9195   3.804   4.788   6.325  0.0862  0.4728 -0.6892
   65MOL   C108 9196   3.834   4.921   6.252  0.0704  0.2070  0.7621
   65MOL   O109 9197   3.958   4.904   6.184 -0.4885 -0.3415  0.1590
   65MOL   H110 9198   3.874   4.711   6.292 -0.1961 -0.8385  1.6940
   65MOL   H111 9199   3.704   4.750   6.305  0.1343 -0.3716  0.6387
   65MOL   H112 9200   3.828   5.009   6.316  3.4561  1.5433 -0.6138
   65MOL   H113 9201   3.754   4.930   6.180 -0.2574 -0.7282  1.0013
   65MOL   C114 9202   3.978   5.025   6.113  0.5338 -0.9178 -0.0211
   65MOL   C115 9203   4.113   5.026   6.047 -0.1981 -0.3265  0.0313
   65MOL   O116 9204   4.220   5.062   6.138  0.0928  0.6140  0.1299
   65MOL   H117 9205   3.897   5.027   6.040  1.5157 -0.8904 -1.1221
   65MOL   H118 9206   3.971   5.118   6.169  3.4934  0.1914 -1.4235
   65MOL   H119 9207   4.118   5.100   5.967  0.7187 -1.1105 -0.6408
   65MOL   H120 9208   4.133   4.930   6.000 -1.2679 -1.4944  1.9021
   65MOL   C121 9209   4.335   5.114   6.074 -1.0382  0.2447  0.1600
   65MOL   C122 9210   4.440   5.143   6.187 -0.4465 -0.5184  0.4931
   65MOL   O123 9211   4.481   5.022   6.244 -0.1092  0.9967 -0.3341
   65MOL   H124 9212   4.365   5.048   5.994  1.1321  2.3347 -0.8348
   65MOL   H125 9213   4.305   5.208   6.028  0.4491 -0.5264 -2.4713
   65MOL   H126 9214   4.394   5.210   6.260  0.2688 -0.6258  1.0432
   65MOL   H127 9215   4.529   5.182   6.138  2.1239 -4.0115  2.1526
   65MOL   C128 9216   4.546   5.039   6.370  0.3107 -0.1699  0.3249
   65MOL   C129 9217   4.609   4.908   6.426  0.5480 -0.1504 -0.1390
   65MOL   O130 9218   4.558   4.883   6.553  0.2041  0.1868  0.3016
   65MOL   H131 9219   4.630   5.106   6.351  1.1641 -1.1052  0.7934
   65MOL   H132 9220   4.470   5.076   6.440  0.3766  3.2634 -1.3172
   65MOL   H133 9221   4.717   4.919   6.429  0.8801 -3.0833  2.7221
   65MOL   H134 9222   4.582   4.822   6.365  0.7091  0.6979 -1.4112
   65MOL   C135 9223   4.615   4.767   6.617 -0.0709  0.1859  0.4630
   65MOL   C136 9224   4.576   4.753   6.765  0.5344  0.1583  0.4379
   65MOL   O137 9225   4.675   4.669   6.834 -0.2384  0.6646  0.6783
   65MOL   H138 9226   4.600   4.674   6.561  0.8199  0.3411 -0.0474
   65MOL   H139 9227   4.722   4.787   6.623 -0.5317  2.7739  0.5599
   65MOL   H140 9228   4.477   4.709   6.775  0.8102 -0.2506  1.5025
   65MOL   H141 9229   4.582   4.849   6.815 -0.0268  0.6132 -0.3724
   65MOL   H142 9230   4.696   4.598   6.775 -1.4701 -0.2461  1.3062
   66MOL     C1 9231   6.391   5.025   4.004 -0.7526 -0.4012 -0.1680
   66MOL     C2 9232   6.402   5.139   3.902  0.2165 -0.3475  0.2177
   66MOL     O3 9233   6.338   5.105   3.779  0.1058  0.2456  0.4449
   66MOL     H4 9234   6.434   5.051   4.101 -3.5584  0.7816  0.8128
   66MOL     H5 9235   6.434   4.933   3.964 -0.7832 -0.4183 -0.1624
   66MOL     H6 9236   6.507   5.160   3.881  0.6380  0.4059  2.8376
   66MOL     H7 9237   6.376   5.235   3.947  2.2364  1.1096 -1.6260
   66MOL     H8 9238   6.289   4.999   4.029 -0.3617 -2.7189 -0.8608
   66MOL     C9 9239   6.328   5.220   3.695 -0.4766 -0.1912 -0.6647
   66MOL    C10 9240   6.230   5.192   3.576  0.2120  0.0729  0.0263
   66MOL    O11 9241   6.095   5.190   3.624  0.2403 -0.3117 -0.5437
   66MOL    H12 9242   6.279   5.304   3.743  0.3119 -0.3047  0.3646
   66MOL    H13 9243   6.424   5.252   3.656 -0.6183  2.9982  1.4078
   66MOL    H14 9244   6.249   5.093   3.535 -0.4178 -0.6243  1.4168
   66MOL    H15 9245   6.246   5.265   3.497 -1.3524  0.1674 -0.2173
   66MOL    C16 9246   6.007   5.157   3.523  0.6267 -0.1050  0.1879
   66MOL    C17 9247   5.861   5.201   3.556 -0.3382  0.2065  0.5358
   66MOL    O18 9248   5.816   5.126   3.669 -0.0620 -0.3822 -0.2082
   66MOL    H19 9249   6.029   5.222   3.438 -1.9569  0.2436 -0.2597
   66MOL    H20 9250   6.017   5.053   3.493 -2.6077 -0.2524 -0.5948
   66MOL    H21 9251   5.797   5.193   3.468 -0.4060 -0.7858  0.6709
   66MOL    H22 9252   5.867   5.308   3.578 -0.7367  0.4916 -0.6629
   66MOL    C23 9253   5.684   5.135   3.711  0.5784 -0.0577 -0.4190
   66MOL    C24 9254   5.589   5.041   3.635 -0.2561  0.3126  0.3265
   66MOL    O25 9255   5.554   5.102   3.509 -0.4905 -0.2888  0.5260
   66MOL    H26 9256   5.673   5.107   3.815 -1.3433  0.0906 -0.5665
   66MOL    H27 9257   5.638   5.233   3.698  2.0691  0.5991 -0.7921
   66MOL    H28 9258   5.503   5.019   3.697 -0.2084 -1.3584 -0.1721
   66MOL    H29 9259   5.640   4.947   3.615  0.3254  0.8764 -0.9889
   66MOL    C30 9260   5.479   5.004   3.442 -0.5210 -0.0588  0.1921
   66MOL    C31 9261   5.402   5.072   3.320  0.1775  0.4652 -1.4366
   66MOL    O32 9262   5.277   5.125   3.366  0.0684 -0.2891 -0.1103
   66MOL    H33 9263   5.538   4.921   3.403 -0.0839  1.4311 -2.3727
   66MOL    H34 9264   5.402   4.960   3.507 -1.2174 -2.3105 -2.0835
   66MOL    H35 9265   5.375   4.991   3.252  3.6858  0.1240 -2.5360
   66MOL    H36 9266   5.459   5.137   3.253  0.9750 -0.6024 -1.8079
   66MOL    C37 9267   5.179   5.168   3.270  0.5650 -0.1141  0.2952
   66MOL    C38 9268   5.222   5.265   3.161  0.3323 -0.0393 -0.4814
   66MOL    O39 9269   5.285   5.202   3.047  0.2585 -0.5178 -0.4858
   66MOL    H40 9270   5.135   5.080   3.223  0.4514  1.7824 -3.3177
   66MOL    H41 9271   5.104   5.216   3.332  0.0094 -0.4325 -0.1211
   66MOL    H42 9272   5.278   5.349   3.201  0.4319  0.8468 -2.3856
   66MOL    H43 9273   5.131   5.316   3.127  0.7530 -0.9074 -3.0035
   66MOL    C44 9274   5.352   5.294   2.961  0.4998 -0.1880 -0.5265
   66MOL    C45 9275   5.255   5.370   2.870  0.7451 -0.4445 -0.7949
   66MOL    O46 9276   5.198   5.480   2.940 -0.1973  0.4603  0.2580
   66MOL    H47 9277   5.425   5.355   3.014 -0.0954 -0.0210  0.1037
   66MOL    H48 9278   5.413   5.234   2.894  0.9620  0.7492 -0.9486
   66MOL    H49 9279   5.181   5.312   2.814 -1.9998  2.8646 -0.7090
   66MOL    H50 9280   5.320   5.393   2.785  1.4344  2.1516  0.3868
   66MOL    C51 9281   5.181   5.598   2.864  0.4919 -0.5103  0.0933
   66MOL    C52 9282   5.177   5.717   2.959  0.8393  0.3822 -0.4952
   66MOL    O53 9283   5.062   5.706   3.040  0.0390 -0.5384 -0.0544
   66MOL    H54 9284   5.278   5.604   2.815  1.2538 -0.0320  1.6645
   66MOL    H55 9285   5.098   5.595   2.793  0.6474 -0.4367 -0.0907
   66MOL    H56 9286   5.181   5.813   2.906  1.3805  0.1554 -0.8613
   66MOL    H57 9287   5.265   5.720   3.022  0.3860 -1.3106  0.2349
   66MOL    C58 9288   5.055   5.802   3.146  0.6405  0.1968  0.7896
   66MOL    C59 9289   4.998   5.739   3.279  0.7257 -0.6896 -0.8203
   66MOL    O60 9290   5.099   5.692   3.375  0.2920 -0.0638  0.1558
   66MOL    H61 9291   5.148   5.854   3.166  1.5991 -0.1697 -2.3458
   66MOL    H62 9292   4.984   5.879   3.117 -0.6422 -0.6252  1.6905
   66MOL    H63 9293   4.938   5.650   3.258 -0.6144  0.1456 -0.5923
   66MOL    H64 9294   4.945   5.811   3.341  0.6448 -0.3127 -1.3251
   66MOL    C65 9295   5.189   5.607   3.319 -0.5468  0.3352 -0.2650
   66MOL    C66 9296   5.274   5.528   3.420 -0.0973 -0.3176 -0.3322
   66MOL    O67 9297   5.403   5.499   3.376 -0.5675 -0.5743 -0.2151
   66MOL    H68 9298   5.136   5.542   3.248  0.0168  0.0169 -0.3979
   66MOL    H69 9299   5.259   5.662   3.256  1.0468  0.6155  1.7362
   66MOL    H70 9300   5.217   5.444   3.459 -1.5270  1.2097  1.0205
   66MOL    H71 9301   5.284   5.591   3.509  3.2919  1.1858 -1.6805
   66MOL    C72 9302   5.499   5.455   3.474 -0.8297 -0.4301 -0.4727
   66MOL    C73 9303   5.562   5.568   3.549  0.2542  0.4930 -0.0355
   66MOL    O74 9304   5.655   5.634   3.465  0.3633 -0.0766  0.2190
   66MOL    H75 9305   5.440   5.401   3.548 -0.5205 -1.4996 -1.0014
   66MOL    H76 9306   5.574   5.394   3.424 -1.1520 -1.0476 -0.2137
   66MOL    H77 9307   5.619   5.541   3.638 -0.5192 -1.1902 -0.0397
   66MOL    H78 9308   5.477   5.631   3.579 -0.1350  0.7385 -1.6340
   66MOL    C79 9309   5.693   5.767   3.508 -0.2986  0.5308 -0.2767
   66MOL    C80 9310   5.833   5.819   3.467  0.1285 -0.4956 -0.6718
   66MOL    O81 9311   5.945   5.751   3.529 -0.5181  0.1652 -0.2367
   66MOL    H82 9312   5.623   5.837   3.460 -1.3096 -0.3412 -0.0961
   66MOL    H83 9313   5.689   5.767   3.617  1.3788 -0.3207 -0.2035
   66MOL    H84 9314   5.842   5.923   3.501  1.1897 -1.0621  0.8544
   66MOL    H85 9315   5.840   5.832   3.359  1.1202 -0.2472 -0.5893
   66MOL    C86 9316   5.974   5.618   3.474 -0.7944 -0.4555  0.3535
   66MOL    C87 9317   5.955   5.605   3.315 -0.3008 -0.2383 -0.2423
   66MOL    O88 9318   6.040   5.703   3.253  0.6481 -0.4119  0.5124
   66MOL    H89 9319   6.079   5.597   3.496 -0.4718  1.3261  0.5609
   66MOL    H90 9320   5.904   5.559   3.533 -0.2605 -1.5359 -0.0623
   66MOL    H91 9321   5.849   5.609   3.288 -0.0061 -2.2173 -1.7993
   66MOL    H92 9322   5.979   5.504   3.283 -0.4532  0.1304 -1.5739
   66MOL    C93 9323   6.008   5.731   3.113  0.0263  0.1680 -0.1073
   66MOL    C94 9324   6.121   5.804   3.046  0.1254  0.2019 -0.0219
   66MOL    O95 9325   6.110   5.939   3.078  0.3265 -0.3933 -0.7256
   66MOL    H96 9326   5.999   5.639   3.056  1.8813  0.9808 -1.7419
   66MOL    H97 9327   5.917   5.792   3.123  0.6679  0.9651  1.0086
   66MOL    H98 9328   6.115   5.784   2.939  1.2167  2.7593 -0.5846
   66MOL    H99 9329   6.216   5.770   3.087 -0.2211 -1.3833 -0.4920
   66MOL   C100 9330   6.190   6.024   2.993  0.5489  1.0977  0.5611
   66MOL   C101 9331   6.339   6.000   3.003  0.4288  0.8865  0.3150
   66MOL   O102 9332   6.378   5.896   2.916 -0.7577  0.2005  0.1922
   66MOL   H103 9333   6.146   6.017   2.894  1.4486 -0.5022  0.2767
   66MOL   H104 9334   6.167   6.126   3.026 -1.3239  1.9501 -3.1691
   66MOL   H105 9335   6.366   5.976   3.106  0.3263 -1.5418 -0.1820
   66MOL   H106 9336   6.389   6.095   2.986 -2.0006  2.0238 -0.7374
   66MOL   C107 9337   6.477   5.805   2.961  0.5792 -0.4803 -0.5355
   66MOL   C108 9338   6.492   5.677   2.871  0.1810 -0.0259  0.5880
   66MOL   O109 9339   6.367   5.622   2.844 -0.4244  0.3943  0.5308
   66MOL   H110 9340   6.574   5.852   2.978  0.4481 -0.1242 -0.7628
   66MOL   H111 9341   6.452   5.773   3.062  2.4600 -1.1875 -0.2624
   66MOL   H112 9342   6.553   5.601   2.920  1.6934  0.4604 -0.5044
   66MOL   H113 9343   6.534   5.700   2.773 -2.0945 -1.3419 -0.7475
   66MOL   C114 9344   6.372   5.487   2.801  0.9830  0.0137  0.9152
   66MOL   C115 9345   6.225   5.453   2.762  0.5639  0.4175 -1.0374
   66MOL   O116 9346   6.143   5.464   2.883 -0.1196 -0.4369 -0.5476
   66MOL   H117 9347   6.440   5.478   2.716  0.2155 -1.1165  0.3997
   66MOL   H118 9348   6.408   5.423   2.882 -2.0604 -0.8854  1.6325
   66MOL   H119 9349   6.217   5.351   2.726  0.4013  1.1068 -3.0054
   66MOL   H120 9350   6.193   5.514   2.677 -0.4867  0.0819 -0.8836
   66MOL   C121 9351   6.015   5.407   2.855  0.3251  0.0639 -0.1989
   66MOL   C122 9352   5.988   5.333   2.987 -0.5979  0.5589  0.0810
   66MOL   O123 9353   5.885   5.242   2.988  0.1407 -0.2419  0.0361
   66MOL   H124 9354   5.948   5.491   2.834  0.0533 -0.2445 -0.5810
   66MOL   H125 9355   6.007   5.340   2.769  0.2280  0.3429 -0.4105
   66MOL   H126 9356   5.963   5.410   3.059  0.8870 -0.2074  1.4492
   66MOL   H127 9357   6.078   5.284   3.025 -0.6870 -0.7166 -1.2706
   66MOL   C128 9358   5.848   5.185   3.116 -0.1713 -0.4828  0.8752
   66MOL   C129 9359   5.724   5.090   3.113  0.0817 -0.6400  0.8085
   66MOL   O130 9360   5.764   4.968   3.061  0.1486  0.2107 -0.2600
   66MOL   H131 9361   5.922   5.118   3.161 -1.0597 -3.0948 -1.4236
   66MOL   H132 9362   5.830   5.271   3.181  1.5223  1.0469 -0.6441
   66MOL   H133 9363   5.653   5.137   3.045  1.9285  2.3150  0.8157
   66MOL   H134 9364   5.679   5.081   3.212  1.1393 -1.7225  1.2064
   66MOL   C135 9365   5.657   4.889   3.012  0.1699 -0.8252 -0.7484
   66MOL   C136 9366   5.699   4.741   2.979 -0.5826  0.2276 -0.4795
   66MOL   O137 9367   5.750   4.677   3.087 -0.0692 -0.3563 -0.7218
   66MOL   H138 9368   5.577   4.893   3.085 -0.1837  2.2572 -1.2330
   66MOL   H139 9369   5.612   4.932   2.923 -0.5961 -0.4925 -0.2001
   66MOL   H140 9370   5.775   4.728   2.902 -1.0568 -2.5476 -0.5227
   66MOL   H141 9371   5.620   4.683   2.932 -0.4173 -0.3600 -0.0357
   66MOL   H142 9372   5.782   4.742   3.147 -0.4494 -1.2973  0.5245
   67MOL     C1 9373   7.607   1.612   5.874 -0.2433 -0.7183 -0.7104
   67MOL     C2 9374   7.602   1.568   5.729 -0.1381  0.6825  0.1345
   67MOL     O3 9375   7.596   1.426   5.732 -0.0200 -0.9221  0.2873
   67MOL     H4 9376   7.689   1.555   5.918 -1.1598  0.1857  2.2525
   67MOL     H5 9377   7.517   1.603   5.934 -0.3649 -0.1608 -0.8057
   67MOL     H6 9378   7.697   1.598   5.684 -0.3868 -0.1195 -0.9376
   67MOL     H7 9379   7.531   1.625   5.670 -0.9905  0.5605  1.0338
   67MOL     H8 9380   7.650   1.711   5.889  0.7141 -1.4183  1.3229
   67MOL     C9 9381   7.608   1.364   5.610  0.6695  0.4146  0.1700
   67MOL    C10 9382   7.623   1.211   5.632  0.0073  0.5913  0.2449
   67MOL    O11 9383   7.501   1.147   5.681 -0.4970  0.3545 -0.1437
   67MOL    H12 9384   7.521   1.390   5.549  0.9174 -1.3577 -0.9645
   67MOL    H13 9385   7.697   1.400   5.560  1.0461 -1.8262 -0.8324
   67MOL    H14 9386   7.704   1.204   5.703  0.3820 -0.7099 -0.2936
   67MOL    H15 9387   7.646   1.150   5.544  0.2085 -0.3710  0.9592
   67MOL    C16 9388   7.528   1.003   5.698  0.3331 -0.4648  0.3052
   67MOL    C17 9389   7.432   0.949   5.817 -0.3334  0.1377  0.1789
   67MOL    O18 9390   7.516   0.862   5.893 -0.2141 -0.0325  0.1899
   67MOL    H19 9391   7.510   0.951   5.605 -0.9997 -1.5816  1.1698
   67MOL    H20 9392   7.634   0.989   5.720  0.4783  0.2514  0.0659
   67MOL    H21 9393   7.339   0.902   5.783 -0.7546 -0.0298  1.4976
   67MOL    H22 9394   7.405   1.026   5.890  1.7123 -0.2962  1.4229
   67MOL    C23 9395   7.557   0.744   5.828  0.3602  0.1075  0.0549
   67MOL    C24 9396   7.631   0.650   5.920  0.4079 -0.0863 -0.6282
   67MOL    O25 9397   7.739   0.730   5.971  0.0062 -0.4560  0.3415
   67MOL    H26 9398   7.469   0.692   5.789  0.9048 -2.1497  1.7711
   67MOL    H27 9399   7.625   0.758   5.744  0.4006 -0.6306 -0.0375
   67MOL    H28 9400   7.669   0.565   5.863  0.0670 -0.3312 -0.4979
   67MOL    H29 9401   7.564   0.612   5.997  0.1121 -2.6661 -2.0968
   67MOL    C30 9402   0.026   0.671   6.091 -0.0186 -0.5309  0.1878
   67MOL    C31 9403   0.133   0.564   6.066  0.4818  0.9947  0.3457
   67MOL    O32 9404   0.065   0.454   6.009 -0.8931  0.2286 -1.0495
   67MOL    H33 9405   0.077   0.759   6.131  0.8211  1.0580 -4.1368
   67MOL    H34 9406   7.722   0.638   6.163  1.5827 -1.7791  1.3269
   67MOL    H35 9407   0.193   0.528   6.149 -0.0780 -0.3300  0.1984
   67MOL    H36 9408   0.202   0.614   5.998 -0.0962  1.1613 -0.1297
   67MOL    C37 9409   0.142   0.382   5.925 -0.3680 -0.0587  0.3956
   67MOL    C38 9410   0.058   0.261   5.890 -0.1522  0.1346 -0.2177
   67MOL    O39 9411   0.048   0.160   5.989  1.0514 -0.0058  0.4759
   67MOL    H40 9412   0.159   0.432   5.830 -3.3976  1.0709  0.4266
   67MOL    H41 9413   0.238   0.362   5.974  1.3110  2.7581 -1.5937
   67MOL    H42 9414   0.103   0.209   5.805  0.4173  0.3814 -0.0743
   67MOL    H43 9415   7.730   0.287   5.856  0.0972  1.6998  0.2253
   67MOL    C44 9416   0.143   0.060   5.981 -0.1233 -1.0701  0.2267
   67MOL    C45 9417   0.116   7.739   6.099  0.8357  0.0544  0.1690
   67MOL    O46 9418   0.012   7.658   6.039 -0.2444 -0.1179 -0.0602
   67MOL    H47 9419   0.147   0.012   5.883 -0.1179 -0.2724 -0.1687
   67MOL    H48 9420   0.234   0.118   5.997 -0.1271  0.0487 -3.1972
   67MOL    H49 9421   0.082   0.036   6.178 -0.6739  0.0517 -0.4592
   67MOL    H50 9422   0.195   7.673   6.135  0.7558  0.8197  1.8000
   67MOL    C51 9423   7.706   7.571   6.125  0.4864  0.8368 -0.1856
   67MOL    C52 9424   0.021   7.453   6.172 -0.1576  0.1582 -0.5897
   67MOL    O53 9425   0.064   7.472   6.301  0.3731 -0.2432  0.1635
   67MOL    H54 9426   7.673   7.633   6.208  1.9136  0.1183  0.9380
   67MOL    H55 9427   7.616   7.541   6.072  0.8728 -0.7670  0.0499
   67MOL    H56 9428   0.108   7.436   6.108 -0.1330  1.6135 -0.9587
   67MOL    H57 9429   7.751   7.352   6.166  2.9513 -1.2885  1.2702
   67MOL    C58 9430   0.188   7.398   6.340 -0.2614 -0.0301 -0.1186
   67MOL    C59 9431   0.251   7.437   6.477  0.2442 -0.0268  0.0604
   67MOL    O60 9432   0.161   7.390   6.580  0.1086  0.0568  0.0004
   67MOL    H61 9433   0.174   7.290   6.337  1.2511 -0.2541  0.4364
   67MOL    H62 9434   0.270   7.415   6.270  1.0067 -1.1179  1.0779
   67MOL    H63 9435   0.274   7.543   6.480  1.8929 -0.3146 -1.8303
   67MOL    H64 9436   0.348   7.387   6.480  0.8428  1.1338  0.4124
   67MOL    C65 9437   0.195   7.425   6.713 -0.5250 -0.5843  1.1712
   67MOL    C66 9438   0.136   7.344   6.830  0.1823  0.6921  0.4292
   67MOL    O67 9439   0.191   7.211   6.822 -0.1763 -0.3777  0.9594
   67MOL    H68 9440   0.303   7.418   6.730 -0.0035  1.2580 -1.0307
   67MOL    H69 9441   0.173   7.532   6.721  0.1785 -0.3980  0.7143
   67MOL    H70 9442   0.028   7.330   6.826  0.2719 -0.0932  0.6643
   67MOL    H71 9443   0.174   7.388   6.922 -1.8797 -0.0693  1.6985
   67MOL    C72 9444   0.117   7.114   6.748  0.9586 -0.6539  0.4183
   67MOL    C73 9445   0.193   6.978   6.767 -0.9241 -0.6653  0.5197
   67MOL    O74 9446   0.295   6.944   6.678 -0.6702  0.1873 -0.4289
   67MOL    H75 9447   0.024   7.096   6.801  0.4848  0.7570  0.0868
   67MOL    H76 9448   0.107   7.137   6.642  3.3551 -1.9025 -0.1047
   67MOL    H77 9449   0.128   6.891   6.754 -0.4398 -0.9589  0.0637
   67MOL    H78 9450   0.237   6.969   6.866 -0.2412 -0.0987  0.2701
   67MOL    C79 9451   0.413   7.021   6.668 -0.3227  0.6840  0.5797
   67MOL    C80 9452   0.521   6.978   6.573  0.4394  0.5430 -0.1398
   67MOL    O81 9453   0.548   7.065   6.463 -0.2813  0.2290 -0.3645
   67MOL    H82 9454   0.394   7.127   6.651  1.4068  1.2127  1.8926
   67MOL    H83 9455   0.453   6.996   6.766 -3.2893 -2.9497  0.9958
   67MOL    H84 9456   0.515   6.873   6.545  2.2721 -0.4838  3.0487
   67MOL    H85 9457   0.612   6.980   6.633  0.9141  0.4598 -0.8508
   67MOL    C86 9458   0.437   7.083   6.370  0.0688 -0.5219 -0.5442
   67MOL    C87 9459   0.463   7.181   6.258 -0.4678 -0.5769 -0.1585
   67MOL    O88 9460   0.359   7.170   6.158 -0.3953 -0.4894  0.1166
   67MOL    H89 9461   0.411   6.992   6.317 -0.5223 -0.6686 -0.0086
   67MOL    H90 9462   0.346   7.110   6.424  0.0940 -0.6252 -0.4497
   67MOL    H91 9463   0.557   7.146   6.216  0.1207  0.7767  0.0146
   67MOL    H92 9464   0.479   7.276   6.309  2.0554 -0.4540 -1.1265
   67MOL    C93 9465   0.393   7.242   6.042  0.5691 -0.3506 -0.4025
   67MOL    C94 9466   0.289   7.193   5.936  0.5096  0.5706  0.0303
   67MOL    O95 9467   0.169   7.265   5.935  0.6690  0.2770 -0.6639
   67MOL    H96 9468   0.391   7.350   6.056  0.2540 -0.7151  2.8025
   67MOL    H97 9469   0.493   7.213   6.012 -0.0192 -0.9008 -1.8552
   67MOL    H98 9470   0.270   7.086   5.942 -1.8164  1.0054  0.8710
   67MOL    H99 9471   0.337   7.213   5.840 -0.5680  0.2205 -0.5974
   67MOL   C100 9472   0.071   7.212   5.839  0.1774 -1.1093  0.2549
   67MOL   C101 9473   7.709   7.278   5.858 -0.3143 -0.2073  0.3367
   67MOL   O102 9474   7.636   7.264   5.734 -1.1348 -0.6306  0.2117
   67MOL   H103 9475   0.107   7.218   5.736  1.5715  1.5201  0.8360
   67MOL   H104 9476   0.059   7.105   5.851  0.3880 -1.4855 -2.6293
   67MOL   H105 9477   7.721   7.384   5.880  0.9732  0.1317 -1.8509
   67MOL   H106 9478   7.661   7.232   5.944 -2.1579 -3.4869 -2.3251
   67MOL   C107 9479   7.501   7.299   5.741 -0.0855 -0.1763  0.1823
   67MOL   C108 9480   7.478   7.448   5.711 -0.2274  0.0939  0.2921
   67MOL   O109 9481   7.530   7.530   5.814  0.3095  0.1039 -0.5220
   67MOL   H110 9482   7.446   7.236   5.672  0.7065 -0.9308  0.2224
   67MOL   H111 9483   7.464   7.276   5.841  3.3017  3.1658  2.3308
   67MOL   H112 9484   7.369   7.448   5.705 -0.3876 -1.3643  2.5800
   67MOL   H113 9485   7.516   7.477   5.613 -1.9199 -1.7568 -0.9462
   67MOL   C114 9486   7.494   7.673   5.798  0.7440  0.4132  0.0286
   67MOL   C115 9487   7.620   7.740   5.754 -0.4970 -0.4011  0.6506
   67MOL   O116 9488   7.633   7.713   5.614  0.3911  0.6066 -0.2894
   67MOL   H117 9489   7.410   7.675   5.728  1.2649  1.5131 -0.5700
   67MOL   H118 9490   7.459   7.709   5.895  0.6009 -1.8610  0.8766
   67MOL   H119 9491   7.698   7.703   5.820  0.4444 -0.1235 -0.2844
   67MOL   H120 9492   7.614   0.075   5.781  0.7275  0.6049 -2.6828
   67MOL   C121 9493   7.764   7.712   5.578 -0.6439 -0.3810  0.4295
   67MOL   C122 9494   0.010   7.647   5.440 -0.4974 -1.2298  0.3642
   67MOL   O123 9495   7.757   7.507   5.472 -0.0600  0.9245  0.2807
   67MOL   H124 9496   0.042   0.032   5.612  1.4732 -1.4807  0.3785
   67MOL   H125 9497   0.031   7.640   5.651  1.2332  1.6207  1.4901
   67MOL   H126 9498   0.115   7.660   5.413 -0.7358 -0.9117 -0.4074
   67MOL   H127 9499   7.713   7.685   5.365  0.3518  1.0223  0.7063
   67MOL   C128 9500   0.039   7.423   5.370 -0.6683 -0.3236  0.3119
   67MOL   C129 9501   7.758   7.286   5.414  0.2088 -0.0777 -0.1301
   67MOL   O130 9502   7.622   7.262   5.368 -0.1083  1.4722  0.5673
   67MOL   H131 9503   0.003   7.455   5.272 -1.0929  1.0626  0.8964
   67MOL   H132 9504   0.147   7.430   5.368 -0.6913  0.2374  0.8323
   67MOL   H133 9505   7.770   7.260   5.519 -0.3769 -0.8655 -0.2572
   67MOL   H134 9506   0.050   7.207   5.373  0.1007 -1.4607  2.3242
   67MOL   C135 9507   7.579   7.128   5.399 -0.7830 -0.2150  0.3032
   67MOL   C136 9508   7.426   7.127   5.404  0.1536 -0.2264  0.1123
   67MOL   O137 9509   7.375   7.006   5.459 -0.2881  0.3243 -0.1310
   67MOL   H138 9510   7.636   7.060   5.335  0.6265  0.3744  0.9007
   67MOL   H139 9511   7.622   7.117   5.499 -1.3981  0.0849  0.5973
   67MOL   H140 9512   7.394   7.152   5.303 -2.3817  1.3639  1.2914
   67MOL   H141 9513   7.385   7.211   5.460  0.0029  0.3088 -0.7910
   67MOL   H142 9514   7.281   7.014   5.453 -0.1863  0.8453 -1.2499
   68MOL     C1 9515   6.498   0.247   6.784 -0.1262 -0.5712 -0.1439
   68MOL     C2 9516   6.560   0.375   6.736 -0.6284  0.0493  0.3219
   68MOL     O3 9517   6.466   0.479   6.772 -0.2754  0.0025  0.6003
   68MOL     H4 9518   6.452   0.244   6.882  0.0633  0.3700 -0.0152
   68MOL     H5 9519   6.571   0.167   6.779  1.8020  1.1345 -0.3018
   68MOL     H6 9520   6.591   0.364   6.633 -0.7514  0.0256  0.2875
   68MOL     H7 9521   6.648   0.379   6.801 -1.5274 -0.0239  1.5813
   68MOL     H8 9522   6.422   0.214   6.713  0.9101 -3.3005 -0.0112
   68MOL     C9 9523   6.532   0.603   6.766 -0.6600 -0.2196 -0.6509
   68MOL    C10 9524   6.632   0.641   6.878  0.5302 -0.3096  0.2519
   68MOL    O11 9525   6.762   0.633   6.823 -0.1078  0.3121 -0.3986
   68MOL    H12 9526   6.571   0.618   6.665  0.3329  3.6204  0.2418
   68MOL    H13 9527   6.458   0.681   6.779  0.9118  1.2590 -0.4256
   68MOL    H14 9528   6.622   0.583   6.970  1.5005 -0.6697  0.1408
   68MOL    H15 9529   6.614   0.743   6.910 -2.8054 -0.7457 -0.1296
   68MOL    C16 9530   6.872   0.636   6.917  0.2099 -0.1508  0.2997
   68MOL    C17 9531   6.877   0.766   6.989 -0.0922 -0.7091  0.0005
   68MOL    O18 9532   6.789   0.764   7.096 -0.5837 -0.4940 -0.2708
   68MOL    H19 9533   6.864   0.546   6.977 -0.8664 -1.8771 -2.3360
   68MOL    H20 9534   6.966   0.634   6.861  0.4845 -0.9221  0.7712
   68MOL    H21 9535   6.848   0.857   6.938 -2.1002 -0.8408  0.8413
   68MOL    H22 9536   6.979   0.795   7.015  0.7986 -0.7763 -3.2898
   68MOL    C23 9537   6.805   0.883   7.167  0.2588  0.6740 -0.3279
   68MOL    C24 9538   6.709   0.893   7.281 -0.0698 -0.0838  0.0569
   68MOL    O25 9539   6.580   0.863   7.225  0.6461 -0.1189  0.1134
   68MOL    H26 9540   6.907   0.891   7.203 -0.1973  1.6572  0.7665
   68MOL    H27 9541   6.776   0.964   7.100 -0.9582  1.4954  1.1515
   68MOL    H28 9542   6.715   0.989   7.330 -0.1427 -0.2489  0.3875
   68MOL    H29 9543   6.734   0.825   7.362  0.3660 -0.6370 -0.5339
   68MOL    C30 9544   6.478   0.862   7.321  0.0604 -0.0089  0.0591
   68MOL    C31 9545   6.342   0.855   7.254 -1.0319  0.1111  0.8232
   68MOL    O32 9546   6.310   0.719   7.236  0.2461  0.0026 -0.7021
   68MOL    H33 9547   6.486   0.789   7.402 -0.4567  0.4183  0.5007
   68MOL    H34 9548   6.480   0.956   7.375 -0.7586  0.5287 -0.8403
   68MOL    H35 9549   6.331   0.915   7.164 -4.1456  0.1468  1.1952
   68MOL    H36 9550   6.270   0.903   7.319 -0.2833 -0.4196  2.0630
   68MOL    C37 9551   6.353   0.660   7.121 -0.2206  0.0173  0.3987
   68MOL    C38 9552   6.296   0.520   7.103 -0.2342  0.4724  0.5194
   68MOL    O39 9553   6.153   0.514   7.072  0.1616 -0.6043 -0.2049
   68MOL    H40 9554   6.343   0.714   7.027 -0.6348 -2.2754 -0.9165
   68MOL    H41 9555   6.462   0.655   7.123  0.0911  4.1848 -0.9540
   68MOL    H42 9556   6.322   0.464   7.193  2.1226 -0.3156 -0.6237
   68MOL    H43 9557   6.350   0.476   7.020 -0.5061 -0.0468  0.6168
   68MOL    C44 9558   6.109   0.401   6.999  0.2086 -0.1066  0.2116
   68MOL    C45 9559   6.057   0.298   7.093 -0.3021 -0.4801  0.6610
   68MOL    O46 9560   6.070   0.166   7.041  0.1050  0.4359 -0.2743
   68MOL    H47 9561   6.027   0.422   6.931 -0.1547  2.2127  1.3205
   68MOL    H48 9562   6.191   0.371   6.933 -0.9291  0.2922 -1.4088
   68MOL    H49 9563   5.955   0.315   7.129 -0.8865 -0.9602 -0.7308
   68MOL    H50 9564   6.120   0.311   7.181 -0.4707  0.4587  0.6435
   68MOL    C51 9565   6.014   0.067   7.130 -0.0979 -0.4204  0.1226
   68MOL    C52 9566   6.025   7.701   7.058 -0.3055 -0.0304  0.0571
   68MOL    O53 9567   6.150   7.644   7.093  0.2417  0.0672 -0.3019
   68MOL    H54 9568   6.066   0.067   7.226 -1.3446 -0.8893  0.8139
   68MOL    H55 9569   5.915   0.097   7.164  0.1052 -0.3733  0.6648
   68MOL    H56 9570   6.013   7.715   6.951 -0.8573 -1.2746 -0.0568
   68MOL    H57 9571   5.947   7.634   7.095  1.6903 -2.4342  0.0340
   68MOL    C58 9572   6.194   7.524   7.021 -0.0897 -0.5631 -0.6522
   68MOL    C59 9573   6.311   7.555   6.919 -0.0741  0.2296  0.2541
   68MOL    O60 9574   6.432   7.568   6.988 -0.3858  0.0922  0.1490
   68MOL    H61 9575   6.230   7.454   7.097 -0.0194 -0.3970 -0.5328
   68MOL    H62 9576   6.106   7.483   6.972 -0.7709  1.3950 -1.1013
   68MOL    H63 9577   6.286   7.640   6.855  0.6086  0.8402  0.7904
   68MOL    H64 9578   6.333   7.465   6.862  2.2425  0.6313  0.4577
   68MOL    C65 9579   6.450   7.705   7.024  0.3282 -0.4674 -0.2217
   68MOL    C66 9580   6.589   7.716   7.085 -0.0343 -0.4655  0.7068
   68MOL    O67 9581   6.682   7.736   6.976  0.6482 -0.0453 -0.5963
   68MOL    H68 9582   6.442   0.009   6.945  1.1972  0.4007  0.5095
   68MOL    H69 9583   6.379   7.733   7.102 -0.0346 -1.3968 -0.2095
   68MOL    H70 9584   6.601   7.625   7.143 -0.2661 -1.0149 -0.0946
   68MOL    H71 9585   6.586   0.021   7.162  0.7788 -1.2129  1.4827
   68MOL    C72 9586   6.818   7.765   7.009 -0.8682 -0.5616 -0.0463
   68MOL    C73 9587   6.902   0.019   6.887  0.9304 -0.3294  0.0119
   68MOL    O74 9588   6.862   0.144   6.832  0.0494 -0.2660 -0.1152
   68MOL    H75 9589   6.825   0.083   7.071 -0.0050 -1.3888  1.0461
   68MOL    H76 9590   6.866   7.687   7.068  0.3722 -0.6381 -1.1286
   68MOL    H77 9591   6.899   7.710   6.813  0.2545 -0.1798 -0.1347
   68MOL    H78 9592   7.007   0.021   6.916  0.2186  2.3422  2.5657
   68MOL    C79 9593   6.915   0.156   6.703 -0.4119  0.3962  0.0950
   68MOL    C80 9594   7.038   0.250   6.712 -0.4093  0.1989 -0.6810
   68MOL    O81 9595   7.124   0.186   6.801 -0.1288 -0.3513 -0.6326
   68MOL    H82 9596   6.937   0.061   6.655 -1.1561  0.4870 -0.4256
   68MOL    H83 9597   6.839   0.201   6.640  0.8781  1.3660 -0.8177
   68MOL    H84 9598   7.004   0.343   6.757  0.0224  1.4362 -2.8484
   68MOL    H85 9599   7.080   0.284   6.618  0.7108 -2.2721 -1.1147
   68MOL    C86 9600   7.231   0.276   6.832  0.0393  0.4487  0.1030
   68MOL    C87 9601   7.270   0.247   6.986  0.2334  0.0970  0.2899
   68MOL    O88 9602   7.347   0.118   6.981  0.2039  0.3082 -0.0118
   68MOL    H89 9603   7.309   0.267   6.756  1.1985 -2.2316  1.5482
   68MOL    H90 9604   7.211   0.383   6.826  1.2830  0.6726 -0.2928
   68MOL    H91 9605   7.183   0.252   7.052 -1.3522 -1.1751 -1.6038
   68MOL    H92 9606   7.338   0.317   7.035  0.8713 -1.9311  2.3512
   68MOL    C93 9607   7.395   0.074   7.107  0.3740  0.3361 -0.1760
   68MOL    C94 9608   7.283   7.759   7.176 -0.1921  0.0573 -0.0423
   68MOL    O95 9609   7.182   0.071   7.244  0.2867 -0.5501  0.1952
   68MOL    H96 9610   7.477   0.006   7.084 -0.1781 -0.0107 -1.1798
   68MOL    H97 9611   7.438   0.157   7.162  1.6944 -0.2690 -0.2682
   68MOL    H98 9612   7.337   7.688   7.240  2.5345 -0.6324 -2.9950
   68MOL    H99 9613   7.246   7.693   7.098  0.4654 -0.5808  0.1692
   68MOL   C100 9614   7.079   0.000   7.300 -0.1354 -0.5397 -0.1087
   68MOL   C101 9615   6.974   0.094   7.347  0.1237  0.9284 -0.1195
   68MOL   O102 9616   6.868   0.006   7.375 -0.4765  0.9776  0.0212
   68MOL   H103 9617   7.039   7.697   7.231 -0.3993  1.1139 -1.7853
   68MOL   H104 9618   7.110   7.718   7.389 -0.9456  0.1885  0.6157
   68MOL   H105 9619   6.938   0.168   7.276 -2.7320 -0.6454 -0.4047
   68MOL   H106 9620   7.017   0.143   7.434  0.9117  0.2359 -0.1196
   68MOL   C107 9621   6.753   0.062   7.432  0.5602 -0.3468  0.1103
   68MOL   C108 9622   6.669   7.725   7.505 -0.0770  0.6579 -0.1995
   68MOL   O109 9623   6.642   7.614   7.423  0.0929  0.1632  0.2593
   68MOL   H110 9624   6.767   0.140   7.507  1.1652  0.0544 -0.4131
   68MOL   H111 9625   6.688   0.100   7.353 -0.0651 -2.7291 -0.5744
   68MOL   H112 9626   6.574   0.003   7.525 -0.1261  0.2461  0.5992
   68MOL   H113 9627   6.716   7.717   7.602 -0.8065 -1.9826 -0.0340
   68MOL   C114 9628   6.741   7.518   7.464  0.1756 -0.4122 -0.4156
   68MOL   C115 9629   6.711   7.381   7.400 -0.0493 -0.6400 -0.0706
   68MOL   O116 9630   6.624   7.304   7.476  0.6326 -0.1485 -0.2491
   68MOL   H117 9631   6.842   7.548   7.438  0.1914  1.2633  1.4687
   68MOL   H118 9632   6.730   7.497   7.570  1.1501 -0.9002 -0.4091
   68MOL   H119 9633   6.810   7.336   7.388  1.4101  2.0777  1.1914
   68MOL   H120 9634   6.672   7.386   7.298  3.2008  1.6741 -1.2729
   68MOL   C121 9635   6.487   7.337   7.475  0.2322  0.1950  0.7592
   68MOL   C122 9636   6.393   7.230   7.543  0.3952 -0.1081 -0.3440
   68MOL   O123 9637   6.387   7.253   7.688  0.5370  0.9216  0.7114
   68MOL   H124 9638   6.467   7.439   7.508 -1.6439  0.0247  0.2216
   68MOL   H125 9639   6.442   7.342   7.376 -0.9459 -1.7596  1.1524
   68MOL   H126 9640   6.410   7.127   7.510  1.0502  0.1218 -0.7391
   68MOL   H127 9641   6.289   7.247   7.515  0.4764 -1.0963 -1.2581
   68MOL   C128 9642   6.501   7.214   7.757  0.3139  0.2183 -0.1121
   68MOL   C129 9643   6.498   7.194   0.140  0.0939 -0.3161 -0.3795
   68MOL   O130 9644   6.486   7.049   0.164 -0.0477 -0.8242 -0.0495
   68MOL   H131 9645   6.540   7.120   7.716  2.5220  1.5430 -1.1502
   68MOL   H132 9646   6.571   7.294   7.733 -0.6154  0.6056 -1.5699
   68MOL   H133 9647   6.412   7.244   0.184  1.4889  2.7379 -0.9595
   68MOL   H134 9648   6.586   7.248   0.175 -0.7794 -1.1193  3.1526
   68MOL   C135 9649   6.521   7.009   0.294 -0.6136  0.0786  0.7737
   68MOL   C136 9650   6.523   6.853   0.287  0.3220  0.5586  0.4025
   68MOL   O137 9651   6.649   6.811   0.224 -0.1302  0.0042  0.3781
   68MOL   H138 9652   6.613   7.052   0.333  0.4680 -0.4333 -1.1109
   68MOL   H139 9653   6.443   7.040   0.363 -1.3799  0.9124 -0.4467
   68MOL   H140 9654   6.437   6.821   0.228  0.3290  0.4777  0.4351
   68MOL   H141 9655   6.520   6.812   0.388 -1.7033  2.6394  1.2299
   68MOL   H142 9656   6.661   6.875   0.155 -1.6217 -0.2750 -0.1544
   69MOL     C1 9657   1.535   0.884   2.778  0.0550 -0.9457  0.4227
   69MOL     C2 9658   1.604   0.957   2.898  0.0089  0.2614  0.8523
   69MOL     O3 9659   1.744   0.916   2.890  0.4583  0.3638 -0.0165
   69MOL     H4 9660   1.557   0.778   2.783 -5.0875 -2.1114  1.0288
   69MOL     H5 9661   1.580   0.918   2.685 -0.5229 -1.4048 -0.0291
   69MOL     H6 9662   1.561   0.924   2.993  0.8759 -2.0685  0.4620
   69MOL     H7 9663   1.595   1.065   2.903 -0.5583  0.2800 -0.5822
   69MOL     H8 9664   1.426   0.891   2.785 -0.1448 -0.6125 -2.3449
   69MOL     C9 9665   1.825   0.977   2.989  0.3035 -0.4889 -0.6262
   69MOL    C10 9666   1.967   0.924   2.975  0.4960  0.0605 -0.3125
   69MOL    O11 9667   2.027   0.945   3.106 -0.4791 -0.1336  0.0707
   69MOL    H12 9668   1.824   1.085   2.980 -2.5773 -0.4566 -0.3997
   69MOL    H13 9669   1.776   0.956   3.084  3.1580  1.1864  1.2771
   69MOL    H14 9670   2.007   0.980   2.891 -0.5561 -0.3737 -1.1140
   69MOL    H15 9671   1.954   0.819   2.949  3.1113 -0.0975 -1.1845
   69MOL    C16 9672   2.169   0.953   3.105  0.1725 -0.1644 -0.1804
   69MOL    C17 9673   2.217   0.944   3.254 -0.0651  0.2842  0.2496
   69MOL    O18 9674   2.168   1.059   3.326  0.0621  0.5080  0.2693
   69MOL    H19 9675   2.227   0.878   3.051  1.6306  0.5458  0.3758
   69MOL    H20 9676   2.184   1.052   3.062  0.2736  0.0591  0.3797
   69MOL    H21 9677   2.326   0.944   3.250 -0.0506 -1.2410  0.1723
   69MOL    H22 9678   2.188   0.849   3.300 -0.3876 -0.3603 -1.2323
   69MOL    C23 9679   2.222   1.077   3.454  0.0167  0.4733 -0.2505
   69MOL    C24 9680   2.153   0.976   3.556 -0.5919  0.4413  0.2127
   69MOL    O25 9681   2.196   0.999   3.692  0.2683  0.0871  0.0055
   69MOL    H26 9682   2.330   1.062   3.448  0.3006  1.1573  2.7424
   69MOL    H27 9683   2.198   1.179   3.483  2.1845  0.7589  0.6541
   69MOL    H28 9684   2.185   0.875   3.531  1.4881  1.1619 -0.0891
   69MOL    H29 9685   2.044   0.986   3.557 -0.5105  1.7676 -1.6129
   69MOL    C30 9686   2.164   0.884   3.779 -0.6253 -0.3174  0.4857
   69MOL    C31 9687   2.016   0.895   3.824  0.6767 -0.4925  0.0263
   69MOL    O32 9688   2.002   0.992   3.929 -0.9095  0.0308 -0.2882
   69MOL    H33 9689   2.201   0.791   3.736  0.3382  0.0621  0.4621
   69MOL    H34 9690   2.221   0.898   3.871 -0.5216 -0.9237  0.5139
   69MOL    H35 9691   2.002   0.796   3.867 -1.2649  0.6793  2.1907
   69MOL    H36 9692   1.949   0.900   3.738  0.7309 -1.6610 -0.0942
   69MOL    C37 9693   1.899   0.968   4.017 -0.6388 -0.5863 -0.6304
   69MOL    C38 9694   1.881   1.076   4.128 -0.1735  0.0011  0.3837
   69MOL    O39 9695   1.984   1.077   4.227 -0.0149  0.2506  0.7324
   69MOL    H40 9696   1.797   0.956   3.981 -0.8776  1.9481 -0.8791
   69MOL    H41 9697   1.926   0.873   4.063  0.3973  1.2571  2.7574
   69MOL    H42 9698   1.784   1.062   4.177 -1.3096 -0.5319 -1.9584
   69MOL    H43 9699   1.891   1.172   4.079  1.2339 -0.9188 -1.1752
   69MOL    C44 9700   1.958   1.180   4.323 -0.8275  0.3397 -0.6185
   69MOL    C45 9701   2.052   1.166   4.441  0.2275  0.2936 -0.0232
   69MOL    O46 9702   2.011   1.068   4.543 -0.2237 -0.0484 -0.6187
   69MOL    H47 9703   1.964   1.281   4.283  1.9895  0.4016 -0.1631
   69MOL    H48 9704   1.857   1.173   4.362 -1.8068 -1.7921 -3.3690
   69MOL    H49 9705   2.050   1.258   4.499 -1.2281  1.0695 -1.2683
   69MOL    H50 9706   2.157   1.164   4.412 -0.0665  0.0804 -1.0962
   69MOL    C51 9707   2.116   1.025   4.630  0.0454 -0.4465  0.7933
   69MOL    C52 9708   2.075   0.932   4.742  0.5177 -0.4126 -0.0112
   69MOL    O53 9709   2.024   1.013   4.848 -0.2126 -0.4815 -0.0671
   69MOL    H54 9710   2.180   0.967   4.563  0.8748  2.7037 -1.2367
   69MOL    H55 9711   2.175   1.110   4.663 -0.7867  0.0846  0.9389
   69MOL    H56 9712   2.163   0.879   4.778  0.6420 -0.5197 -0.4617
   69MOL    H57 9713   2.005   0.857   4.704  0.6207 -1.1068  1.1517
   69MOL    C58 9714   1.999   0.934   4.967  0.4590  0.2662  0.2769
   69MOL    C59 9715   1.959   1.033   5.080  0.2847 -0.8426  0.7666
   69MOL    O60 9716   1.824   1.060   5.070  0.4227 -0.2531  1.0808
   69MOL    H61 9717   1.924   0.858   4.946 -1.6012  1.3001  3.6069
   69MOL    H62 9718   2.084   0.877   5.003 -0.9537 -2.1405 -0.0905
   69MOL    H63 9719   2.031   1.115   5.083 -1.9271  1.1729  1.0762
   69MOL    H64 9720   1.958   0.962   5.163 -0.5600  0.5037  1.9522
   69MOL    C65 9721   1.781   1.169   5.150 -0.4841 -0.3564 -0.2496
   69MOL    C66 9722   1.778   1.134   5.294  0.4632  0.2069 -0.1417
   69MOL    O67 9723   1.899   1.175   5.361  0.2959 -0.0701 -0.0293
   69MOL    H68 9724   1.834   1.263   5.135 -0.5272  0.2403  2.9565
   69MOL    H69 9725   1.677   1.181   5.119 -0.8203 -1.4592  0.4179
   69MOL    H70 9726   1.772   1.025   5.306 -4.5489  0.2586 -1.1067
   69MOL    H71 9727   1.690   1.180   5.341 -0.7286 -0.5447 -1.5899
   69MOL    C72 9728   1.868   1.187   5.498  0.6920  0.0816 -0.0612
   69MOL    C73 9729   1.990   1.251   5.569 -0.3738 -0.1478 -0.4685
   69MOL    O74 9730   1.975   1.393   5.552  0.4947  0.4478 -0.2431
   69MOL    H75 9731   1.788   1.260   5.511  0.5100  0.1259 -1.3453
   69MOL    H76 9732   1.832   1.098   5.549  3.2331 -1.8667 -1.5356
   69MOL    H77 9733   2.084   1.213   5.527 -0.6715  1.0038 -2.2484
   69MOL    H78 9734   1.978   1.238   5.676 -0.8924 -3.0498 -0.8428
   69MOL    C79 9735   2.090   1.466   5.614  0.4615 -0.2714 -0.0206
   69MOL    C80 9736   2.027   1.537   5.727 -0.1180  0.0099  0.0516
   69MOL    O81 9737   2.034   1.446   5.837 -0.1121  0.5294  0.2663
   69MOL    H82 9738   2.183   1.413   5.632  1.0246  0.4926 -0.6193
   69MOL    H83 9739   2.115   1.545   5.542  0.2858  0.4555  0.7034
   69MOL    H84 9740   1.929   1.574   5.695 -0.1384  1.8600  2.1025
   69MOL    H85 9741   2.079   1.629   5.755 -0.3870  0.0022  0.5911
   69MOL    C86 9742   1.958   1.489   5.947 -0.3390 -0.2234 -0.9637
   69MOL    C87 9743   2.007   1.626   5.997  0.1636 -0.0598  0.2909
   69MOL    O88 9744   1.937   1.718   5.920 -0.1309 -0.1970  0.0878
   69MOL    H89 9745   1.852   1.497   5.924 -0.3537  1.6645 -0.2947
   69MOL    H90 9746   1.973   1.417   6.027  4.4217 -0.3340 -1.8093
   69MOL    H91 9747   2.116   1.635   6.002  0.3084 -0.8315 -1.3877
   69MOL    H92 9748   1.981   1.650   6.100  0.3999  2.5219 -0.2070
   69MOL    C93 9749   1.989   1.849   5.930 -0.0235 -0.2551  0.1814
   69MOL    C94 9750   1.946   1.924   5.806  0.4069  0.2036  0.1051
   69MOL    O95 9751   2.017   1.862   5.705 -0.6237 -0.2378 -0.2469
   69MOL    H96 9752   1.956   1.899   6.021  1.9408 -2.3506  2.1413
   69MOL    H97 9753   2.098   1.851   5.929  0.0039 -1.3621 -1.6240
   69MOL    H98 9754   1.953   2.032   5.819  0.6187  0.3961 -1.4712
   69MOL    H99 9755   1.840   1.910   5.789  0.7256 -1.0917 -0.9138
   69MOL   C100 9756   2.010   1.939   5.588  0.1672  0.2168  0.4954
   69MOL   C101 9757   2.039   1.864   5.461 -0.9117  0.2210 -0.6238
   69MOL   O102 9758   1.933   1.773   5.421 -0.5658  0.0606  0.3276
   69MOL   H103 9759   1.918   1.997   5.582  0.2503  0.4547  1.5796
   69MOL   H104 9760   2.081   2.021   5.597 -2.1920  2.2906  0.7770
   69MOL   H105 9761   2.131   1.806   5.463 -0.7606  0.3887 -1.8882
   69MOL   H106 9762   2.055   1.944   5.388 -0.2712 -1.0454 -1.8872
   69MOL   C107 9763   1.965   1.704   5.301 -0.1508 -0.2738  0.3786
   69MOL   C108 9764   1.840   1.633   5.238  0.1084 -0.0811  1.0133
   69MOL   O109 9765   1.779   1.707   5.135  0.7488  0.4871 -0.0071
   69MOL   H110 9766   2.016   1.765   5.226 -0.4541 -0.9069 -0.3531
   69MOL   H111 9767   2.047   1.636   5.323  1.6581  1.7721  0.1390
   69MOL   H112 9768   1.773   1.605   5.319 -1.4171 -3.2677 -1.2177
   69MOL   H113 9769   1.861   1.532   5.203  1.7146  0.9384 -1.1078
   69MOL   C114 9770   1.672   1.640   5.071  0.2756  0.1810  0.5491
   69MOL   C115 9771   1.626   1.736   4.961 -0.1678  0.5808  0.5390
   69MOL   O116 9772   1.714   1.736   4.848  0.3287  0.3610 -0.3013
   69MOL   H117 9773   1.691   1.544   5.022 -0.7319  1.3883 -2.3001
   69MOL   H118 9774   1.580   1.635   5.130 -0.0805 -1.2689 -0.1040
   69MOL   H119 9775   1.605   1.836   4.999  0.7580  0.9646  0.0721
   69MOL   H120 9776   1.532   1.694   4.924 -0.0995 -1.4251  2.5520
   69MOL   C121 9777   1.690   1.855   4.775 -1.1087  0.0615 -0.0721
   69MOL   C122 9778   1.767   1.842   4.640  0.1772 -0.0907 -0.6636
   69MOL   O123 9779   1.668   1.797   4.555  1.0904  0.7098  0.3935
   69MOL   H124 9780   1.584   1.875   4.760 -1.1082  0.0155 -0.1378
   69MOL   H125 9781   1.731   1.939   4.830  0.3532 -0.3896 -0.4366
   69MOL   H126 9782   1.854   1.777   4.644  1.2966  1.2875 -1.7418
   69MOL   H127 9783   1.811   1.934   4.602  2.9203 -1.2155 -0.3122
   69MOL   C128 9784   1.691   1.808   4.417 -0.3301 -0.0586 -0.0196
   69MOL   C129 9785   1.568   1.788   4.344  0.5032 -0.2034 -0.2550
   69MOL   O130 9786   1.489   1.904   4.358 -0.2435 -0.1346 -0.4989
   69MOL   H131 9787   1.730   1.908   4.397  0.3115  0.1571  2.2565
   69MOL   H132 9788   1.777   1.748   4.388 -0.3705 -1.9158  3.5294
   69MOL   H133 9789   1.519   1.705   4.396  0.7756  0.3620  0.9296
   69MOL   H134 9790   1.585   1.768   4.239  2.7941 -2.6361  0.5178
   69MOL   C135 9791   1.381   1.909   4.274 -0.2500 -0.1149 -0.0722
   69MOL   C136 9792   1.304   2.046   4.300  0.1534  0.2172 -0.1576
   69MOL   O137 9793   1.386   2.142   4.241  0.1322  0.5575  0.1780
   69MOL   H138 9794   1.432   1.906   4.178 -1.8162  2.8151 -1.0693
   69MOL   H139 9795   1.314   1.825   4.291 -2.0185  1.6025  1.8010
   69MOL   H140 9796   1.284   2.064   4.406 -1.6956  1.0164 -0.6089
   69MOL   H141 9797   1.207   2.049   4.250  0.8580 -0.3972 -1.5761
   69MOL   H142 9798   1.476   2.133   4.266 -0.4449  0.8639  2.5166
   70MOL     C1 9799   2.105   0.043   1.639 -0.4808  0.5621  0.6351
   70MOL     C2 9800   2.166   0.071   1.776  0.2802  0.0441  0.0031
   70MOL     O3 9801   2.250   0.182   1.770 -0.4172  0.2935  0.3647
   70MOL     H4 9802   2.181   0.032   1.562 -1.6343 -0.4310 -0.3902
   70MOL     H5 9803   2.046   0.124   1.597  1.7306  1.6493 -0.4845
   70MOL     H6 9804   2.234   7.761   1.802  1.4728  0.9952 -0.1266
   70MOL     H7 9805   2.082   0.080   1.845 -0.6546  0.8109 -1.2291
   70MOL     H8 9806   2.063   7.713   1.632 -0.4313  0.6291 -0.7210
   70MOL     C9 9807   2.346   0.184   1.882  0.3016  0.0312 -0.4289
   70MOL    C10 9808   2.404   0.321   1.902  0.2131  0.1152  0.0961
   70MOL    O11 9809   2.480   0.340   1.782  0.2603  0.4992 -0.5720
   70MOL    H12 9810   2.312   0.151   1.981  3.5108  3.5958  1.9756
   70MOL    H13 9811   2.424   0.112   1.858  1.4801  0.1769  2.7176
   70MOL    H14 9812   2.474   0.314   1.985  1.3425  1.7191 -0.6980
   70MOL    H15 9813   2.329   0.399   1.915  1.2200  1.4130 -1.6712
   70MOL    C16 9814   2.588   0.437   1.808 -0.5730 -0.2140  1.1616
   70MOL    C17 9815   2.539   0.579   1.838 -0.4776  0.2359  0.2431
   70MOL    O18 9816   2.521   0.591   1.977 -0.1735  0.4529 -0.2793
   70MOL    H19 9817   2.643   0.411   1.898  0.4011  0.4264  0.7558
   70MOL    H20 9818   2.653   0.441   1.720 -0.1513 -0.5462  1.4571
   70MOL    H21 9819   2.447   0.603   1.783 -1.8258  2.7450  3.4375
   70MOL    H22 9820   2.623   0.644   1.812 -0.3040 -0.2637 -0.4479
   70MOL    C23 9821   2.483   0.721   2.018  0.6309  1.0044  0.3122
   70MOL    C24 9822   2.510   0.731   2.171 -0.6258  0.6313 -0.0276
   70MOL    O25 9823   2.646   0.728   2.169  0.2110 -0.0196 -0.1427
   70MOL    H26 9824   2.538   0.796   1.961  0.6066 -1.0019 -2.4820
   70MOL    H27 9825   2.380   0.736   1.987  1.0282  3.0259 -0.0689
   70MOL    H28 9826   2.461   0.656   2.232 -0.0503  0.9662  0.8449
   70MOL    H29 9827   2.483   0.835   2.191 -0.8327  0.8874 -1.5368
   70MOL    C30 9828   2.702   0.727   2.298  0.3234 -0.6310 -0.3342
   70MOL    C31 9829   2.667   0.854   2.389  0.2718 -0.2332  0.2931
   70MOL    O32 9830   2.539   0.854   2.453  0.5501 -0.5522  0.7235
   70MOL    H33 9831   2.680   0.633   2.349 -2.1886  0.4266  0.6224
   70MOL    H34 9832   2.809   0.738   2.279 -0.2719  1.9377 -2.5536
   70MOL    H35 9833   2.692   0.946   2.337  1.0252 -1.3343 -1.3569
   70MOL    H36 9834   2.738   0.856   2.472 -0.4311 -0.5694  0.9099
   70MOL    C37 9835   2.509   0.968   2.524 -0.1230 -0.1798  0.5226
   70MOL    C38 9836   2.363   0.976   2.562 -0.3698 -1.0805 -0.5834
   70MOL    O39 9837   2.323   0.875   2.658  0.9055  0.2963 -0.5158
   70MOL    H40 9838   2.570   0.986   2.613 -1.7195  2.3776  1.1577
   70MOL    H41 9839   2.537   1.047   2.455 -1.1715 -0.1652  0.1113
   70MOL    H42 9840   2.302   0.956   2.474 -1.8909 -0.0146  0.1963
   70MOL    H43 9841   2.342   1.074   2.605 -0.3949 -2.1899  2.0720
   70MOL    C44 9842   2.302   0.748   2.602  0.7250  1.5940 -0.2147
   70MOL    C45 9843   2.195   0.677   2.685  0.3404  0.0960 -0.5044
   70MOL    O46 9844   2.078   0.744   2.636  0.8354  0.4833 -0.1163
   70MOL    H47 9845   2.276   0.746   2.496  0.9607  2.2200 -0.2880
   70MOL    H48 9846   2.397   0.694   2.614 -0.5813 -1.2889 -2.1823
   70MOL    H49 9847   2.209   0.696   2.791  1.3208  2.2735 -0.9982
   70MOL    H50 9848   2.184   0.575   2.650  1.3621 -0.1961  0.0059
   70MOL    C51 9849   1.950   0.687   2.680 -0.4375 -0.7739 -0.2518
   70MOL    C52 9850   1.917   0.557   2.607 -0.5755  1.3022 -0.0461
   70MOL    O53 9851   1.994   0.445   2.659 -0.6663  0.6040 -0.5924
   70MOL    H54 9852   1.966   0.668   2.786 -1.4716 -0.6999 -0.0732
   70MOL    H55 9853   1.878   0.764   2.652 -0.7342 -0.3489  1.6376
   70MOL    H56 9854   1.931   0.570   2.500  0.6054  1.3732  0.1168
   70MOL    H57 9855   1.811   0.533   2.622 -0.0199 -2.6461 -1.7918
   70MOL    C58 9856   2.033   0.350   2.558  0.0288  0.0961 -0.5478
   70MOL    C59 9857   2.123   0.239   2.613 -0.8748  0.1898  0.2785
   70MOL    O60 9858   2.047   0.138   2.681  0.4191 -0.5831  0.2222
   70MOL    H61 9859   1.942   0.307   2.515  0.9919 -1.5132 -1.0526
   70MOL    H62 9860   2.081   0.406   2.479 -1.5111  0.4050 -1.2698
   70MOL    H63 9861   2.213   0.270   2.666  0.9593  2.5061 -3.9944
   70MOL    H64 9862   2.157   0.188   2.524 -0.7151  0.8945 -0.0699
   70MOL    C65 9863   2.019   0.165   2.823  0.8851  0.1093 -0.0911
   70MOL    C66 9864   1.937   0.055   2.889 -0.3020 -0.2061 -0.1134
   70MOL    O67 9865   1.798   0.049   2.858  0.2586  0.4868 -0.2908
   70MOL    H68 9866   2.112   0.174   2.878  1.4530 -0.5746 -0.9112
   70MOL    H69 9867   1.978   0.266   2.830 -0.9463 -0.4926 -1.5374
   70MOL    H70 9868   1.948   0.068   2.997  2.0777  2.3563 -0.6215
   70MOL    H71 9869   1.979   7.728   2.867  0.8829  0.2631  0.0230
   70MOL    C72 9870   1.728   0.168   2.883  0.2038 -0.4796 -0.0850
   70MOL    C73 9871   1.580   0.143   2.913  0.8125  0.3659  0.0829
   70MOL    O74 9872   1.526   0.272   2.895 -0.1664 -0.1940  0.3424
   70MOL    H75 9873   1.772   0.223   2.966 -1.1709 -1.8278  1.5716
   70MOL    H76 9874   1.749   0.240   2.804  2.4341 -0.8814  0.1117
   70MOL    H77 9875   1.585   0.100   3.013  2.0867  0.8069  0.2123
   70MOL    H78 9876   1.540   0.072   2.841  1.9131 -0.5423  0.3460
   70MOL    C79 9877   1.386   0.267   2.914  0.6880 -0.3524  0.4587
   70MOL    C80 9878   1.327   0.402   2.913 -0.5349 -0.1505  0.2083
   70MOL    O81 9879   1.336   0.460   2.780  0.5840  0.3660 -1.1917
   70MOL    H82 9880   1.338   0.200   2.842 -0.4641  2.2595 -1.2795
   70MOL    H83 9881   1.368   0.228   3.014  2.3618 -0.4177  0.7534
   70MOL    H84 9882   1.382   0.464   2.983  2.8581 -2.5151 -0.2316
   70MOL    H85 9883   1.220   0.393   2.935 -0.7019 -0.2875 -0.6197
   70MOL    C86 9884   1.270   0.590   2.770 -0.4491 -0.3187  0.7371
   70MOL    C87 9885   1.286   0.640   2.625  0.0032  0.0193  0.1330
   70MOL    O88 9886   1.421   0.649   2.581  0.1175 -0.0919  0.3640
   70MOL    H89 9887   1.168   0.572   2.803 -1.0281  2.1805  0.4373
   70MOL    H90 9888   1.314   0.653   2.847  0.4879 -2.7454  2.2380
   70MOL    H91 9889   1.238   0.736   2.608  1.4659  0.7503  0.0434
   70MOL    H92 9890   1.234   0.557   2.575  0.8403 -0.1514 -0.4646
   70MOL    C93 9891   1.418   0.681   2.443 -0.1058  0.2962 -0.1891
   70MOL    C94 9892   1.548   0.746   2.399  0.0710  0.1211 -0.0481
   70MOL    O95 9893   1.567   0.712   2.261 -0.5120 -0.2573 -0.2281
   70MOL    H96 9894   1.406   0.590   2.384 -0.3460  0.3691 -0.2509
   70MOL    H97 9895   1.339   0.750   2.417 -0.4964 -0.2671 -0.5213
   70MOL    H98 9896   1.632   0.698   2.450 -0.1684  0.1709  0.3951
   70MOL    H99 9897   1.544   0.854   2.408  0.8287  0.1769 -0.3255
   70MOL   C100 9898   1.694   0.761   2.219 -0.4176 -0.2168  0.2368
   70MOL   C101 9899   1.728   0.704   2.077 -0.3456 -0.8760 -0.8823
   70MOL   O102 9900   1.627   0.747   1.989  0.3451  0.3761  0.4978
   70MOL   H103 9901   1.703   0.869   2.214  0.9385 -0.4013 -2.1113
   70MOL   H104 9902   1.776   0.727   2.281 -2.3914 -0.7035  2.6709
   70MOL   H105 9903   1.732   0.595   2.079  1.8696 -0.8061 -0.2041
   70MOL   H106 9904   1.828   0.732   2.042  0.6002 -2.4110  0.5249
   70MOL   C107 9905   1.640   0.879   1.928 -0.1879 -0.2178  0.2028
   70MOL   C108 9906   1.514   0.923   1.872  0.4644 -0.2638 -0.2468
   70MOL   O109 9907   1.479   0.842   1.760 -0.2586  0.2380 -0.0317
   70MOL   H110 9908   1.669   0.947   2.008  0.8372 -1.1754  0.6545
   70MOL   H111 9909   1.702   0.889   1.839  0.0572 -0.1371  0.3839
   70MOL   H112 9910   1.515   1.027   1.840 -1.3683 -1.2674 -3.8594
   70MOL   H113 9911   1.440   0.916   1.952  2.0244 -0.7870  1.1574
   70MOL   C114 9912   1.383   0.897   1.673 -0.1646 -0.0494  0.0026
   70MOL   C115 9913   1.354   0.803   1.555 -0.0941 -0.1859 -0.8967
   70MOL   O116 9914   1.455   0.815   1.452  0.0121  0.3682  0.4889
   70MOL   H117 9915   1.288   0.908   1.725 -0.8915 -1.4856 -0.9773
   70MOL   H118 9916   1.402   1.000   1.644  1.7712  0.9702  4.4234
   70MOL   H119 9917   1.259   0.835   1.513 -0.1834 -0.0221 -0.5712
   70MOL   H120 9918   1.346   0.700   1.591  0.8909  0.3395  0.9246
   70MOL   C121 9919   1.580   0.745   1.477  0.8969  0.6415  0.0784
   70MOL   C122 9920   1.572   0.592   1.442 -0.4081  0.0416 -0.1167
   70MOL   O123 9921   1.582   0.558   1.304 -0.3029 -0.4854 -0.0220
   70MOL   H124 9922   1.652   0.803   1.419 -0.2058  2.1066  0.1432
   70MOL   H125 9923   1.613   0.764   1.579 -2.0117  1.4441  0.9256
   70MOL   H126 9924   1.485   0.564   1.501 -1.4762 -1.2438 -2.2090
   70MOL   H127 9925   1.660   0.549   1.489 -0.7386  2.1665  2.5352
   70MOL   C128 9926   1.527   0.425   1.284 -0.3596  0.1938 -0.2975
   70MOL   C129 9927   1.541   0.382   1.138  0.7567  0.2086 -0.6657
   70MOL   O130 9928   1.504   0.248   1.116 -0.4596 -0.2555  0.4587
   70MOL   H131 9929   1.580   0.353   1.346  1.3745  0.5700 -1.3113
   70MOL   H132 9930   1.429   0.421   1.332 -1.2454  0.0854 -2.0932
   70MOL   H133 9931   1.646   0.396   1.116  0.9405  1.3813  0.8643
   70MOL   H134 9932   1.496   0.452   1.067  0.6756  0.3136 -0.5127
   70MOL   C135 9933   1.547   0.202   0.991  0.9458  0.2616 -0.1969
   70MOL   C136 9934   1.511   0.052   0.982  0.7082  0.0142  0.0142
   70MOL   O137 9935   1.592   7.763   1.086  0.1651  0.4125 -0.1681
   70MOL   H138 9936   1.516   0.271   0.913 -2.3361 -0.7058  0.2085
   70MOL   H139 9937   1.656   0.199   0.990  0.9321 -1.9588  1.4378
   70MOL   H140 9938   1.538   0.022   0.881 -2.2892  0.2628 -0.9127
   70MOL   H141 9939   1.406   0.025   0.992  0.5578 -0.3663 -2.1920
   70MOL   H142 9940   1.603   0.060   1.150 -2.2914  0.1647  0.5387
   71MOL     C1 9941   2.069   2.359   0.920 -0.4471 -0.3061 -0.2291
   71MOL     C2 9942   2.121   2.510   0.926 -0.1035  0.4860 -0.2535
   71MOL     O3 9943   2.141   2.544   1.064 -0.7579  1.0027  0.4025
   71MOL     H4 9944   2.146   2.285   0.940 -1.0953 -0.7120  0.8293
   71MOL     H5 9945   2.025   2.335   0.823 -0.5756 -2.0845  0.2471
   71MOL     H6 9946   2.042   2.577   0.893 -0.5428  0.2578  0.3365
   71MOL     H7 9947   2.209   2.512   0.861 -1.0274  0.1012 -1.5343
   71MOL     H8 9948   1.993   2.343   0.997  0.0670  0.3829  0.4273
   71MOL     C9 9949   2.206   2.662   1.096  0.3820 -0.3411 -0.9337
   71MOL    C10 9950   2.256   2.652   1.240 -0.4261  0.1453  0.5887
   71MOL    O11 9951   2.165   2.725   1.325  0.0758 -0.1728  0.2157
   71MOL    H12 9952   2.293   2.662   1.030  0.7985  1.6254 -0.4145
   71MOL    H13 9953   2.148   2.749   1.067  0.5138  0.2217  0.4691
   71MOL    H14 9954   2.352   2.703   1.237 -0.2142 -0.1029  2.4632
   71MOL    H15 9955   2.281   2.554   1.282  1.4039 -0.4391 -1.7389
   71MOL    C16 9956   2.199   2.696   1.459  0.5747  0.1547  0.0037
   71MOL    C17 9957   2.125   2.790   1.552  0.1452  0.1343  0.1939
   71MOL    O18 9958   2.003   2.727   1.593 -0.7618  0.2263  0.1614
   71MOL    H19 9959   2.173   2.591   1.471 -2.2665  0.7867 -0.2465
   71MOL    H20 9960   2.306   2.714   1.468  0.4720 -0.0779  1.8173
   71MOL    H21 9961   2.101   2.882   1.497 -1.1776 -0.6601 -0.5678
   71MOL    H22 9962   2.187   2.803   1.640  0.1080 -0.9719  0.3843
   71MOL    C23 9963   1.949   2.781   1.716 -0.5469  0.0521  0.6616
   71MOL    C24 9964   1.806   2.731   1.733  0.2272  0.3659 -0.5499
   71MOL    O25 9965   1.744   2.799   1.842 -0.4554 -0.2135  0.1815
   71MOL    H26 9966   2.007   2.750   1.803 -0.4615 -0.0851  0.5565
   71MOL    H27 9967   1.944   2.889   1.702 -0.7134  0.0854  0.9611
   71MOL    H28 9968   1.808   2.623   1.747  2.4139  0.2653 -1.5394
   71MOL    H29 9969   1.749   2.749   1.641 -0.8587  1.4880  0.3246
   71MOL    C30 9970   1.606   2.781   1.843 -0.1610 -0.0535 -0.2336
   71MOL    C31 9971   1.546   2.836   1.971  0.0825 -0.7196 -0.4731
   71MOL    O32 9972   1.535   2.740   2.070  0.0458  0.0259 -0.7320
   71MOL    H33 9973   1.563   2.838   1.760  1.7228 -0.0765 -1.2574
   71MOL    H34 9974   1.574   2.680   1.819  1.7160 -0.0458 -3.0350
   71MOL    H35 9975   1.461   2.902   1.952 -0.1989 -0.9897 -0.1604
   71MOL    H36 9976   1.609   2.916   2.011 -1.7958 -0.0039  1.0880
   71MOL    C37 9977   1.462   2.789   2.185 -0.1514 -0.1856 -0.2298
   71MOL    C38 9978   1.451   2.692   2.298  0.5128  0.1504  0.5250
   71MOL    O39 9979   1.511   2.756   2.409 -0.1598  0.0448 -0.4632
   71MOL    H40 9980   1.492   2.890   2.211  1.2307 -1.2029  2.2406
   71MOL    H41 9981   1.362   2.796   2.144 -1.1121 -0.4106  2.0358
   71MOL    H42 9982   1.504   2.598   2.280  0.9007  0.2159  1.3017
   71MOL    H43 9983   1.346   2.675   2.323  0.3312  1.0749  0.4168
   71MOL    C44 9984   1.526   2.678   2.527 -0.1601  0.5515  0.2213
   71MOL    C45 9985   1.415   2.706   2.624 -0.3862  0.4992  0.2152
   71MOL    O46 9986   1.440   2.819   2.703  0.5463  0.8430  0.1044
   71MOL    H47 9987   1.527   2.572   2.505  0.5960  0.4132  0.8774
   71MOL    H48 9988   1.623   2.684   2.578 -0.4018 -1.6542  0.9626
   71MOL    H49 9989   1.400   2.618   2.686  1.5732 -1.1174 -1.5372
   71MOL    H50 9990   1.321   2.715   2.571  0.3603 -1.8112 -1.5672
   71MOL    C51 9991   1.341   2.843   2.795  0.6977  0.1461 -0.1245
   71MOL    C52 9992   1.207   2.895   2.733  0.3549 -0.7077 -0.2185
   71MOL    O53 9993   1.122   2.793   2.690 -0.3106 -0.7632 -0.0380
   71MOL    H54 9994   1.330   2.758   2.862 -1.5725  0.5899  0.1004
   71MOL    H55 9995   1.386   2.911   2.866 -1.1829  0.3568  0.8920
   71MOL    H56 9996   1.225   2.967   2.653  0.6722  1.0512  1.4289
   71MOL    H57 9997   1.166   2.963   2.807  3.2501  0.6357  0.1939
   71MOL    C58 9998   0.986   2.829   2.683  0.3459  0.6206  0.0662
   71MOL    C59 9999   0.902   2.708   2.625  0.2887 -0.2642 -0.1602
   71MOL    O6010000   0.903   2.691   2.481  0.0346 -0.1073  0.1175
   71MOL    H6110001   0.941   2.844   2.781 -2.4984 -0.6205 -0.9844
   71MOL    H6210002   0.972   2.919   2.624  2.0493  1.3894  0.7966
   71MOL    H6310003   0.800   2.736   2.649  0.4593 -1.1098  1.6918
   71MOL    H6410004   0.909   2.608   2.669 -0.3112  0.4205  1.5399
   71MOL    C6510005   1.021   2.626   2.435 -0.0433 -0.3211 -0.4604
   71MOL    C6610006   1.003   2.602   2.288 -0.5118  0.2150  0.5417
   71MOL    O6710007   1.119   2.543   2.238  0.5963  0.2833  0.2203
   71MOL    H6810008   1.107   2.690   2.454 -0.1266 -0.8821  1.9527
   71MOL    H6910009   1.036   2.540   2.500  0.1260  0.2349  0.2367
   71MOL    H7010010   0.990   2.694   2.232 -1.6215  0.6653  1.5145
   71MOL    H7110011   0.918   2.534   2.276  0.3596 -0.5867 -1.3896
   71MOL    C7210012   1.096   2.508   2.101 -0.1107 -0.3971  0.6095
   71MOL    C7310013   1.229   2.465   2.043 -0.8625  0.2681  0.1420
   71MOL    O7410014   1.234   2.315   2.036  0.0803 -0.0662  0.6809
   71MOL    H7510015   1.029   2.423   2.083  0.2439 -0.5630  0.0608
   71MOL    H7610016   1.063   2.596   2.047  0.2795 -0.2716  0.5725
   71MOL    H7710017   1.310   2.513   2.098 -1.4567 -0.3427  1.5930
   71MOL    H7810018   1.231   2.495   1.939  0.0416 -0.3959 -0.0448
   71MOL    C7910019   1.171   2.258   1.917 -0.1678  0.6004 -0.5531
   71MOL    C8010020   1.105   2.133   1.958 -0.1388  0.3847 -0.6605
   71MOL    O8110021   1.211   2.038   1.979 -0.0032  0.6589  0.4788
   71MOL    H8210022   1.092   2.327   1.886 -0.2006  0.3410 -1.0593
   71MOL    H8310023   1.238   2.242   1.833 -0.6661  0.4551 -0.9259
   71MOL    H8410024   1.043   2.094   1.877  0.9926 -1.5942 -0.6032
   71MOL    H8510025   1.040   2.144   2.045 -0.7016 -0.5407 -0.9620
   71MOL    C8610026   1.157   1.917   2.030 -0.0551  0.8054  0.9175
   71MOL    C8710027   1.269   1.822   2.054  0.1095 -0.2648 -0.2405
   71MOL    O8810028   1.316   1.848   2.185 -0.0247 -0.3442  0.0815
   71MOL    H8910029   1.091   1.936   2.115 -1.5033 -2.2371  0.5224
   71MOL    H9010030   1.108   1.863   1.949 -2.0102  0.7082  2.1283
   71MOL    H9110031   1.350   1.843   1.983  1.4630  2.9670  2.1119
   71MOL    H9210032   1.232   1.720   2.052 -1.2635  0.1981  0.8189
   71MOL    C9310033   1.400   1.759   2.254  0.7353 -0.3964 -0.0219
   71MOL    C9410034   1.460   1.818   2.383  1.5454  0.1300  0.2917
   71MOL    O9510035   1.376   1.804   2.495 -0.5739  0.2956  0.2136
   71MOL    H9610036   1.334   1.676   2.280 -1.0926  1.3401  1.0125
   71MOL    H9710037   1.477   1.722   2.186  0.8378  0.4952 -0.3946
   71MOL    H9810038   1.495   1.921   2.375 -0.2075  0.6568 -1.0764
   71MOL    H9910039   1.552   1.762   2.394  0.5283 -1.6114  0.1182
   71MOL   C10010040   1.427   1.876   2.606 -0.6973 -0.0473 -0.0577
   71MOL   C10110041   1.556   1.814   2.665 -0.2680 -0.0391 -0.1534
   71MOL   O10210042   1.679   1.836   2.596 -0.4162  0.8890  0.0955
   71MOL   H10310043   1.434   1.983   2.583 -0.5967 -0.0607 -0.0928
   71MOL   H10410044   1.353   1.875   2.686  0.6872 -2.2309  1.2420
   71MOL   H10510045   1.545   1.705   2.662 -0.2532 -0.0542  0.3523
   71MOL   H10610046   1.548   1.845   2.769 -1.4378  1.2651 -0.6185
   71MOL   C10710047   1.754   1.930   2.657  0.2652 -0.2405 -0.0940
   71MOL   C10810048   1.786   2.036   2.549 -0.4107 -0.4480 -1.0543
   71MOL   O10910049   1.673   2.114   2.538 -0.1676  0.2458  0.1927
   71MOL   H11010050   1.705   1.974   2.743 -1.5066  2.2137 -2.3025
   71MOL   H11110051   1.851   1.887   2.683  0.2861 -0.8928 -1.2192
   71MOL   H11210052   1.782   1.986   2.453 -1.6120 -0.3576 -1.0614
   71MOL   H11310053   1.875   2.098   2.561  0.1575 -1.5101  0.4193
   71MOL   C11410054   1.673   2.194   2.419  0.1866 -0.8180  0.2964
   71MOL   C11510055   1.556   2.286   2.409  0.2007 -0.6144  0.2998
   71MOL   O11610056   1.443   2.204   2.394 -0.4089 -0.7238 -0.2202
   71MOL   H11710057   1.760   2.258   2.435  0.5808 -0.7738 -1.8658
   71MOL   H11810058   1.671   2.133   2.328  0.4952 -1.5071  0.7443
   71MOL   H11910059   1.572   2.343   2.318 -1.7524 -0.7078 -0.1066
   71MOL   H12010060   1.556   2.353   2.496  0.2994 -0.2858  0.0470
   71MOL   C12110061   1.335   2.274   2.329 -0.1682 -0.4350 -0.0009
   71MOL   C12210062   1.216   2.176   2.307 -0.3480  0.3656  0.0732
   71MOL   O12310063   1.157   2.134   2.428 -0.4616 -0.2195 -0.3273
   71MOL   H12410064   1.300   2.363   2.380 -1.6944 -1.0900  0.1288
   71MOL   H12510065   1.362   2.321   2.235 -0.2712  0.2347  0.3055
   71MOL   H12610066   1.255   2.097   2.243  0.0878 -0.1221  0.9251
   71MOL   H12710067   1.141   2.235   2.255  0.1479  1.9997  1.1574
   71MOL   C12810068   1.107   2.007   2.400  0.1638 -0.2445  0.0578
   71MOL   C12910069   1.022   1.964   2.520  0.0014  0.2542 -0.4814
   71MOL   O13010070   0.937   1.850   2.496 -0.3418 -0.3109  0.0863
   71MOL   H13110071   1.045   1.997   2.311 -1.5008  2.5814  0.8229
   71MOL   H13210072   1.185   1.935   2.376  2.6840  2.1044  0.9210
   71MOL   H13310073   0.949   2.042   2.543  0.5177  0.8979 -1.0084
   71MOL   H13410074   1.081   1.946   2.611 -0.8955 -2.6041 -0.4092
   71MOL   C13510075   0.833   1.824   2.593  0.6780  0.1279 -0.3052
   71MOL   C13610076   0.720   1.769   2.512  0.3531 -0.7674  0.2981
   71MOL   O13710077   0.763   1.644   2.468  0.3798 -0.3026  0.1243
   71MOL   H13810078   0.870   1.763   2.676 -0.6524  0.3577  0.4658
   71MOL   H13910079   0.802   1.922   2.630  2.3319  0.7197 -0.3965
   71MOL   H14010080   0.685   1.828   2.427 -1.8276 -2.1716  0.1793
   71MOL   H14110081   0.628   1.771   2.572 -0.4820 -0.2258 -0.9699
   71MOL   H14210082   0.854   1.652   2.442 -0.5211  0.4937 -2.9755
   72MOL     C110083   4.757   7.581   7.201 -0.1183  0.2599 -0.1960
   72MOL     C210084   4.856   7.500   7.126 -0.3767 -0.1890 -0.7515
   72MOL     O310085   4.840   7.542   6.994 -0.1924 -0.3302 -0.4650
   72MOL     H410086   4.654   7.548   7.187  0.3245 -1.1816 -0.1691
   72MOL     H510087   4.762   7.688   7.184  0.3988  0.5676  1.8400
   72MOL     H610088   4.844   7.394   7.145  1.5973 -0.3441 -0.3265
   72MOL     H710089   4.958   7.527   7.153  0.0093 -1.0734 -1.3211
   72MOL     H810090   4.760   7.580   7.310  2.6111  0.3628 -0.2400
   72MOL     C910091   4.898   7.458   6.895  0.5649 -0.0212  0.3856
   72MOL    C1010092   4.859   7.529   6.767 -0.6460 -0.4178  0.5996
   72MOL    O1110093   4.875   7.446   6.645 -0.5650  0.2488 -0.2766
   72MOL    H1210094   5.007   7.452   6.904  0.7471 -1.1079 -2.2957
   72MOL    H1310095   4.849   7.362   6.887 -0.3476  0.4579  0.2320
   72MOL    H1410096   4.900   7.629   6.752 -2.0879  0.1278  0.1481
   72MOL    H1510097   4.751   7.544   6.768 -1.0833 -3.0643 -1.2684
   72MOL    C1610098   5.011   7.437   6.592 -0.4792 -0.6372 -0.2872
   72MOL    C1710099   5.089   7.314   6.643  0.1097  0.4918 -0.5456
   72MOL    O1810100   5.159   7.356   6.759 -0.8064  0.1544 -0.0441
   72MOL    H1910101   5.000   7.439   6.483 -1.8575 -0.7657 -0.1623
   72MOL    H2010102   5.073   7.524   6.610  0.7641 -2.1582  3.1426
   72MOL    H2110103   5.162   7.277   6.571 -0.6025  0.4318 -1.2444
   72MOL    H2210104   5.014   7.238   6.666  1.7229 -0.9639  0.0031
   72MOL    C2310105   5.251   7.254   6.791 -0.0464 -0.5766 -0.6244
   72MOL    C2410106   5.300   7.281   6.935  0.2529 -0.3847  0.0926
   72MOL    O2510107   5.420   7.210   6.951 -0.0203 -0.7183  0.0479
   72MOL    H2610108   5.197   7.160   6.803  0.1033 -0.6445 -0.4854
   72MOL    H2710109   5.335   7.239   6.724  0.0339 -0.2062 -0.6081
   72MOL    H2810110   5.226   7.256   7.012 -0.8514  1.5985 -0.2801
   72MOL    H2910111   5.310   7.389   6.948 -1.0320 -0.4669  2.0486
   72MOL    C3010112   5.464   7.209   7.086 -0.2807  0.0965  0.0731
   72MOL    C3110113   5.610   7.158   7.082  0.0634 -0.4405 -0.8470
   72MOL    O3210114   5.689   7.272   7.056 -0.4220  0.0368 -0.3049
   72MOL    H3310115   5.459   7.294   7.153  1.3328 -0.5554  1.0670
   72MOL    H3410116   5.403   7.133   7.134  1.1081 -1.0880  0.0165
   72MOL    H3510117   5.631   7.084   7.005  0.0310 -0.0174 -1.2615
   72MOL    H3610118   5.619   7.115   7.182 -2.0898  1.3297  0.1463
   72MOL    C3710119   5.825   7.247   7.032 -0.3881  0.2582 -0.5840
   72MOL    C3810120   5.901   7.245   7.162  1.2358  0.3587  0.1722
   72MOL    O3910121   5.888   7.120   7.229  0.5946 -0.1642  0.5312
   72MOL    H4010122   5.834   7.158   6.971 -1.5747 -1.0097  1.0438
   72MOL    H4110123   5.859   7.332   6.972 -0.3835  0.0778 -0.8359
   72MOL    H4210124   5.875   7.324   7.233 -1.5023 -2.0770  1.9445
   72MOL    H4310125   6.006   7.256   7.133  1.4460 -2.1040 -0.0346
   72MOL    C4410126   5.859   7.134   7.367  0.3105  0.3225 -0.4452
   72MOL    C4510127   5.860   6.989   7.433 -0.0745  0.0054 -0.0625
   72MOL    O4610128   5.756   6.906   7.382 -0.0357 -0.1205 -0.2492
   72MOL    H4710129   5.938   7.200   7.402  0.5389 -0.6718  0.9454
   72MOL    H4810130   5.756   7.168   7.371  0.5913  1.2703 -0.9943
   72MOL    H4910131   5.853   6.991   7.541  0.5753  0.5844 -0.0285
   72MOL    H5010132   5.960   6.948   7.418 -0.1408 -0.7688  1.5718
   72MOL    C5110133   5.812   6.814   7.297  0.3053 -0.5423  0.6901
   72MOL    C5210134   5.705   6.707   7.266  0.2309 -0.0651 -0.2261
   72MOL    O5310135   5.713   6.668   7.127  0.0637 -0.6811 -0.0463
   72MOL    H5410136   5.852   6.867   7.210  2.7524 -1.0244  1.4714
   72MOL    H5510137   5.900   6.771   7.344  0.5881  0.6584  1.2817
   72MOL    H5610138   5.611   6.762   7.274  1.1498  1.6263 -0.8689
   72MOL    H5710139   5.711   6.630   7.343  1.6849  0.5969  0.3352
   72MOL    C5810140   5.605   6.576   7.107  0.7087 -0.5435  0.1463
   72MOL    C5910141   5.621   6.539   6.959 -0.2093 -0.4313 -0.3240
   72MOL    O6010142   5.673   6.400   6.937 -0.2695  0.4869 -0.1192
   72MOL    H6110143   5.619   6.497   7.180  1.0584 -2.5923 -2.0951
   72MOL    H6210144   5.512   6.629   7.124  0.0373 -1.5482 -0.3478
   72MOL    H6310145   5.675   6.614   6.902  1.9581 -2.4908 -1.0497
   72MOL    H6410146   5.520   6.548   6.917 -0.3803 -0.6587  0.0314
   72MOL    C6510147   5.718   6.368   6.804  0.1277 -0.2017  0.2388
   72MOL    C6610148   5.603   6.390   6.703  0.1302 -0.2404  0.3958
   72MOL    O6710149   5.477   6.324   6.719  0.4753  0.1764  0.0911
   72MOL    H6810150   5.799   6.438   6.784  0.3230 -0.8473 -1.2959
   72MOL    H6910151   5.754   6.265   6.804 -0.1467 -0.2977 -0.4429
   72MOL    H7010152   5.636   6.337   6.614  2.3472  0.7726  0.5779
   72MOL    H7110153   5.589   6.497   6.686  2.8826  0.4930  2.3284
   72MOL    C7210154   5.392   6.342   6.603 -0.6054  1.1129 -0.3017
   72MOL    C7310155   5.251   6.319   6.643  0.6218  0.4136 -0.3369
   72MOL    O7410156   5.231   6.182   6.665 -0.0916 -0.0441  0.5853
   72MOL    H7510157   5.411   6.437   6.554  0.5801  1.1929  0.2786
   72MOL    H7610158   5.439   6.277   6.529  0.9257  3.0523 -1.0674
   72MOL    H7710159   5.172   6.364   6.582 -0.1034 -0.6624 -0.2167
   72MOL    H7810160   5.229   6.358   6.742  1.7981 -2.4585  1.1133
   72MOL    C7910161   5.102   6.152   6.712  0.3937  0.4987 -0.2992
   72MOL    C8010162   5.099   6.003   6.729  0.2147  0.0223  0.7434
   72MOL    O8110163   5.136   5.933   6.606 -0.0150  0.6702 -0.1403
   72MOL    H8210164   5.082   6.204   6.806  1.7620  0.6675 -0.0967
   72MOL    H8310165   5.023   6.175   6.641  0.6823  0.0705 -0.7590
   72MOL    H8410166   4.995   5.985   6.754 -0.3488  1.1928 -0.6752
   72MOL    H8510167   5.155   5.963   6.814  1.0876  0.8987  0.5960
   72MOL    C8610168   5.112   5.790   6.611  0.8663  0.2387  0.3077
   72MOL    C8710169   4.961   5.760   6.601  0.1948  0.2928  0.2783
   72MOL    O8810170   4.893   5.781   6.724  0.4914 -0.2931 -0.2576
   72MOL    H8910171   5.153   5.736   6.526 -0.9964 -0.2781 -0.3066
   72MOL    H9010172   5.147   5.750   6.706  0.8086  1.6652  0.9357
   72MOL    H9110173   4.945   5.661   6.558  1.7616  0.3186 -0.3989
   72MOL    H9210174   4.918   5.821   6.522 -1.3734 -0.2396  0.6972
   72MOL    C9310175   4.752   5.786   6.710 -0.0970  0.4931  0.7441
   72MOL    C9410176   4.683   5.800   6.847  0.3350  0.2096  0.0765
   72MOL    O9510177   4.667   5.662   6.891  0.0003 -0.3867 -0.0794
   72MOL    H9610178   4.720   5.872   6.651  1.3358 -1.6717 -3.3266
   72MOL    H9710179   4.711   5.699   6.659  1.1972  0.9634 -1.0964
   72MOL    H9810180   4.588   5.849   6.830 -1.1885 -2.0972  1.7129
   72MOL    H9910181   4.744   5.851   6.922 -0.6470  0.8486  0.4446
   72MOL   C10010182   4.594   5.652   7.009  0.4758  0.1819 -0.1537
   72MOL   C10110183   4.613   5.503   7.052  0.0859 -0.2514  0.4832
   72MOL   O10210184   4.533   5.419   6.965 -0.0283 -0.6414  0.2063
   72MOL   H10310185   4.631   5.710   7.093 -1.2907 -0.7105  1.2729
   72MOL   H10410186   4.488   5.675   6.994  0.6489  0.5672 -0.8395
   72MOL   H10510187   4.573   5.502   7.153  0.0745  2.5896  0.5633
   72MOL   H10610188   4.717   5.471   7.047 -0.4103 -1.6123 -1.7265
   72MOL   C10710189   4.518   5.282   7.008  0.4717  0.0787 -0.1805
   72MOL   C10810190   4.415   5.255   7.116 -0.2951 -0.5279  0.3764
   72MOL   O10910191   4.297   5.309   7.074  0.4176 -0.1443 -0.3551
   72MOL   H11010192   4.481   5.229   6.920  0.2642 -1.6257  0.9078
   72MOL   H11110193   4.614   5.237   7.030  0.7562  0.4382 -0.6899
   72MOL   H11210194   4.448   5.309   7.204 -0.4026  0.3726 -0.1246
   72MOL   H11310195   4.404   5.148   7.133  0.4328 -0.4451  1.4077
   72MOL   C11410196   4.262   5.440   7.115  1.0012 -0.1568  1.0819
   72MOL   C11510197   4.207   5.445   7.258 -0.5425  0.4960  0.3651
   72MOL   O11610198   4.313   5.435   7.355  0.5706 -0.1052 -0.4471
   72MOL   H11710199   4.329   5.525   7.098  0.0700  0.5367  0.8065
   72MOL   H11810200   4.187   5.461   7.039  2.2349 -1.1945 -0.4658
   72MOL   H11910201   4.136   5.364   7.274 -0.1155 -0.1204 -0.8130
   72MOL   H12010202   4.143   5.533   7.267 -1.5010 -0.2989  1.3512
   72MOL   C12110203   4.256   5.459   7.483  0.1754 -0.2175 -0.4235
   72MOL   C12210204   4.367   5.427   7.581  0.4006 -0.1475 -0.2454
   72MOL   O12310205   4.361   5.295   7.625 -0.0947 -0.4358 -0.1301
   72MOL   H12410206   4.211   5.558   7.493 -2.1261 -1.2315 -0.4800
   72MOL   H12510207   4.175   5.391   7.506  1.1691 -1.1322  0.4295
   72MOL   H12610208   4.340   5.491   7.666  1.3507  1.0197 -0.8076
   72MOL   H12710209   4.468   5.454   7.549  1.0035  1.9550  3.1080
   72MOL   C12810210   4.456   5.214   7.555  0.3000  0.1214  0.4708
   72MOL   C12910211   4.447   5.073   7.609 -0.2239 -0.0109  0.1933
   72MOL   O13010212   4.509   4.977   7.521 -0.2894 -0.3020  0.2810
   72MOL   H13110213   4.445   5.220   7.447  3.9939 -1.2949 -0.0546
   72MOL   H13210214   4.555   5.253   7.575 -0.2001  0.6804  1.9289
   72MOL   H13310215   4.342   5.049   7.623 -0.5073  1.3262  0.3775
   72MOL   H13410216   4.487   5.062   7.710  1.3823  0.7576 -0.3404
   72MOL   C13510217   4.546   4.850   7.583  0.6312 -0.9276 -0.0412
   72MOL   C13610218   4.423   4.762   7.607 -0.3776 -1.0487 -0.2804
   72MOL   O13710219   4.367   4.791   7.732 -0.9408 -0.4885  0.3764
   72MOL   H13810220   4.611   4.791   7.518  2.7535 -0.1795  1.3324
   72MOL   H13910221   4.601   4.864   7.676 -1.7155  1.5947  1.0118
   72MOL   H14010222   4.449   4.656   7.600 -0.7138 -1.2712  1.6055
   72MOL   H14110223   4.354   4.797   7.530  0.4940  1.5324  0.0865
   72MOL   H14210224   4.438   4.783   0.022  0.6721  0.9499 -1.2425
   73MOL     C110225   5.768   2.529   5.072 -0.0092  0.2335  0.5607
   73MOL     C210226   5.854   2.429   4.990 -0.1886 -0.3237 -0.1075
   73MOL     O310227   5.974   2.409   5.064  0.5812  0.2178  0.4962
   73MOL     H410228   5.821   2.610   5.123 -0.4673  0.6194  0.4343
   73MOL     H510229   5.718   2.488   5.159  0.5740  2.7367  2.1236
   73MOL     H610230   5.879   2.479   4.897 -1.8035  0.6481 -0.0319
   73MOL     H710231   5.793   2.342   4.962 -1.1078 -0.0579  1.0220
   73MOL     H810232   5.707   2.594   5.009 -0.5712  0.8459  1.7307
   73MOL     C910233   6.053   2.301   5.025 -0.1682 -0.2857  0.4456
   73MOL    C1010234   6.170   2.292   5.118 -0.1808 -0.0015  0.2934
   73MOL    O1110235   6.267   2.390   5.092  0.2852 -0.0715 -0.1223
   73MOL    H1210236   5.998   2.208   5.032  0.7739 -0.8833  0.0666
   73MOL    H1310237   6.102   2.302   4.927 -0.3334 -1.5103  0.3502
   73MOL    H1410238   6.222   2.198   5.104  0.3023  0.1402  1.0704
   73MOL    H1510239   6.135   2.297   5.221 -0.7706 -5.1732  0.4750
   73MOL    C1610240   6.238   2.528   5.095  0.1012 -0.2789 -0.7914
   73MOL    C1710241   6.200   2.580   5.234 -0.5977  0.3988 -0.4304
   73MOL    O1810242   6.300   2.663   5.296 -0.1943 -0.2494 -0.3603
   73MOL    H1910243   6.328   2.570   5.051  0.0217  0.8552  0.1021
   73MOL    H2010244   6.148   2.552   5.037 -1.0470  0.5495  1.2732
   73MOL    H2110245   6.167   2.505   5.306  1.4655 -1.9510 -1.8245
   73MOL    H2210246   6.121   2.653   5.224 -1.2024 -0.3189 -0.9019
   73MOL    C2310247   6.388   2.586   5.381 -0.1748  0.1330 -0.0104
   73MOL    C2410248   6.476   2.663   5.478 -0.4940 -0.8845  0.2965
   73MOL    O2510249   6.406   2.731   5.588  0.7317  0.7493  0.0858
   73MOL    H2610250   6.319   2.534   5.447 -0.0168  1.2199  1.0299
   73MOL    H2710251   6.438   2.522   5.308 -0.5647  0.5987 -0.6922
   73MOL    H2810252   6.526   2.738   5.416 -0.9294 -0.2310  0.7292
   73MOL    H2910253   6.540   2.592   5.530  0.2813 -0.9577 -0.7467
   73MOL    C3010254   6.476   2.754   5.711  0.3012  0.3532 -0.4975
   73MOL    C3110255   6.589   2.851   5.684 -0.2832 -0.2883  0.3156
   73MOL    O3210256   6.686   2.808   5.594  0.0028 -0.1897 -0.4099
   73MOL    H3310257   6.408   2.796   5.786 -0.2927  0.5490 -1.1373
   73MOL    H3410258   6.508   2.659   5.754  2.1933  0.6013 -1.3251
   73MOL    H3510259   6.632   2.873   5.782 -1.2589 -2.1268  1.1762
   73MOL    H3610260   6.540   2.944   5.655 -0.0652  0.1630  1.3687
   73MOL    C3710261   6.808   2.889   5.581 -0.0112  0.5942  0.0185
   73MOL    C3810262   6.793   2.990   5.466 -0.0414  1.0934 -0.6076
   73MOL    O3910263   6.783   2.925   5.336  0.1092  0.5427 -0.4106
   73MOL    H4010264   6.827   2.944   5.674  0.7798 -0.8950  0.7450
   73MOL    H4110265   6.889   2.816   5.580 -2.4124 -2.1776  0.6081
   73MOL    H4210266   6.874   3.063   5.468  1.0623 -0.1291 -0.7534
   73MOL    H4310267   6.710   3.059   5.482 -0.8969 -0.2655  0.9112
   73MOL    C4410268   6.769   3.015   5.224  0.2494  0.1606 -0.0019
   73MOL    C4510269   6.729   2.932   5.101 -0.3046 -0.2354 -0.2452
   73MOL    O4610270   6.848   2.865   5.053 -0.1373  0.1138 -0.1869
   73MOL    H4710271   6.684   3.081   5.239 -0.4002 -0.8782  0.9564
   73MOL    H4810272   6.854   3.081   5.208  0.0048  1.1754  2.6496
   73MOL    H4910273   6.694   3.000   5.024  0.9788 -0.0431 -0.6703
   73MOL    H5010274   6.650   2.861   5.125  0.3574 -0.1359  2.3678
   73MOL    C5110275   6.825   2.809   4.925 -0.1549 -0.0219  0.0348
   73MOL    C5210276   6.951   2.745   4.875 -0.0897  0.3781 -0.3923
   73MOL    O5310277   7.042   2.852   4.837 -0.5888  0.3128  0.4111
   73MOL    H5410278   6.746   2.733   4.922 -0.4338  0.2268  0.7968
   73MOL    H5510279   6.781   2.875   4.850  1.8624  1.6796  0.3237
   73MOL    H5610280   6.933   2.686   4.785  1.1214  0.8225 -0.9492
   73MOL    H5710281   6.994   2.676   4.948 -0.9540  1.1261  0.8440
   73MOL    C5810282   7.174   2.807   4.810 -0.3413 -0.0789  0.8461
   73MOL    C5910283   7.254   2.917   4.758  0.1207 -0.3285  0.1153
   73MOL    O6010284   7.241   2.970   4.631  0.0727 -0.4329  0.2892
   73MOL    H6110285   7.219   2.771   4.902 -0.8632  0.4314  1.3080
   73MOL    H6210286   7.182   2.723   4.741  2.4057  0.8445 -0.0031
   73MOL    H6310287   7.360   2.893   4.769  0.0500 -1.1444 -0.8951
   73MOL    H6410288   7.231   3.001   4.823 -1.0967 -0.4308 -0.1780
   73MOL    C6510289   7.311   3.085   4.599  0.0291 -0.2817 -0.1062
   73MOL    C6610290   7.251   3.134   4.472  0.5727  0.4821 -0.5535
   73MOL    O6710291   7.301   3.086   4.352  0.0697 -0.1731  0.2521
   73MOL    H6810292   7.317   3.154   4.683  0.0801  2.6021 -2.4432
   73MOL    H6910293   7.418   3.072   4.586  0.6205  2.9851  1.2203
   73MOL    H7010294   7.265   3.242   4.465 -0.5566  0.7208  0.7186
   73MOL    H7110295   7.144   3.116   4.468  0.6085  0.4516 -1.4982
   73MOL    C7210296   7.295   2.945   4.342 -0.8621  0.1299 -0.2172
   73MOL    C7310297   7.391   2.885   4.240 -0.2463  0.5215 -0.1319
   73MOL    O7410298   7.340   2.907   4.109  1.3336  0.5587 -0.0130
   73MOL    H7510299   7.295   2.890   4.436  1.2871 -1.7313 -1.2807
   73MOL    H7610300   7.194   2.920   4.310 -0.5515 -1.1485 -0.2354
   73MOL    H7710301   7.387   2.779   4.264 -0.2714 -0.0138 -2.4072
   73MOL    H7810302   7.494   2.912   4.263 -0.8480  1.5521  1.4691
   73MOL    C7910303   7.400   2.814   4.021  0.4754 -0.0313 -0.4363
   73MOL    C8010304   7.319   2.816   3.887 -0.6771  0.2119  0.2881
   73MOL    O8110305   7.192   2.750   3.898  0.1258 -0.1794  0.0594
   73MOL    H8210306   7.499   2.843   3.985  1.2440 -0.8257  1.0049
   73MOL    H8310307   7.403   2.714   4.064  0.4461  0.7331  1.3654
   73MOL    H8410308   7.384   2.769   3.813 -0.0617 -2.0905  2.2388
   73MOL    H8510309   7.307   2.920   3.855 -0.3867  0.5844  1.3798
   73MOL    C8610310   7.107   2.777   3.788  0.1159 -0.6910  0.4398
   73MOL    C8710311   6.960   2.780   3.822 -0.0898 -0.9270  0.0358
   73MOL    O8810312   6.928   2.895   3.893  0.1570 -0.1027 -0.2199
   73MOL    H8910313   7.125   2.880   3.756  1.8687 -0.8375  0.8777
   73MOL    H9010314   7.140   2.711   3.707  1.6244  0.9224 -0.3111
   73MOL    H9110315   6.936   2.690   3.878 -0.5351 -2.2321 -2.1886
   73MOL    H9210316   6.904   2.762   3.731  3.7694 -0.7824 -2.5041
   73MOL    C9310317   6.796   2.918   3.927 -0.4768  0.0924  0.0338
   73MOL    C9410318   6.775   2.844   4.061 -0.0059 -0.7637 -0.2220
   73MOL    O9510319   6.706   2.725   4.028  0.6419  0.2578  0.0659
   73MOL    H9610320   6.789   3.026   3.932  0.9630  0.3128 -1.9095
   73MOL    H9710321   6.737   2.889   3.840  0.2829  1.4083 -0.9399
   73MOL    H9810322   6.730   2.912   4.134 -0.0959 -0.1700 -0.8216
   73MOL    H9910323   6.871   2.811   4.098  0.5842  1.5567  0.4311
   73MOL   C10010324   6.687   2.642   4.138  0.0547 -0.3424  0.1171
   73MOL   C10110325   6.603   2.525   4.092  0.0211 -0.1962  0.3345
   73MOL   O10210326   6.692   2.436   4.014  1.0561  0.0910  0.1439
   73MOL   H10310327   6.784   2.611   4.178 -0.2121  1.4214  2.2003
   73MOL   H10410328   6.642   2.693   4.223 -2.0196  1.0075 -1.7582
   73MOL   H10510329   6.519   2.569   4.038 -2.0075 -3.2461  0.8777
   73MOL   H10610330   6.571   2.464   4.177  3.0326 -3.1741 -0.5352
   73MOL   C10710331   6.613   2.341   3.944 -0.1311 -0.3888  0.6614
   73MOL   C10810332   6.689   2.228   3.871 -0.0506 -0.7182  0.5579
   73MOL   O10910333   6.781   2.274   3.766  0.4462 -0.3329  0.6939
   73MOL   H11010334   6.538   2.302   4.013 -1.4689  0.4598 -0.2650
   73MOL   H11110335   6.558   2.396   3.867 -0.4125 -0.2027  0.9950
   73MOL   H11210336   6.620   2.159   3.824  1.2060  0.7139 -3.6164
   73MOL   H11310337   6.752   2.181   3.947 -0.0337  0.0656  1.0420
   73MOL   C11410338   6.910   2.318   3.808 -0.2740 -0.3346 -0.2891
   73MOL   C11510339   6.980   2.400   3.702  0.3364  0.0561 -0.1764
   73MOL   O11610340   7.053   2.327   3.613  0.2384 -0.1129 -0.2342
   73MOL   H11710341   6.902   2.377   3.900  0.2958  0.7361 -0.9096
   73MOL   H11810342   6.981   2.238   3.831  0.3928  0.9737  2.3512
   73MOL   H11910343   7.043   2.468   3.760  0.1230 -0.1494  0.3050
   73MOL   H12010344   6.899   2.462   3.665 -1.2323 -1.3340  0.8574
   73MOL   C12110345   7.096   2.408   3.497  0.5459  0.1489  0.0722
   73MOL   C12210346   7.184   2.324   3.401 -0.4153  0.0521  0.6377
   73MOL   O12310347   7.090   2.240   3.334  0.4286 -0.1365  0.3515
   73MOL   H12410348   7.010   2.453   3.446  0.6283  1.8042  1.3534
   73MOL   H12510349   7.158   2.481   3.548 -0.2284  0.6302  0.3375
   73MOL   H12610350   7.264   2.268   3.449  0.6720  0.3745 -0.7635
   73MOL   H12710351   7.226   2.389   3.324 -1.8356 -0.0281 -0.2205
   73MOL   C12810352   7.144   2.175   3.218  0.4123 -0.9933  0.0615
   73MOL   C12910353   7.027   2.088   3.155  0.5090 -0.2077 -0.0457
   73MOL   O13010354   6.942   2.158   3.071 -0.0333 -0.8750 -0.1106
   73MOL   H13110355   7.174   2.241   3.136 -0.9208 -2.1774 -1.4133
   73MOL   H13210356   7.229   2.115   3.250 -0.5220 -2.1832  0.3244
   73MOL   H13310357   6.986   2.029   3.236 -1.6805  2.0667  0.5541
   73MOL   H13410358   7.071   2.006   3.099 -0.4113 -0.9396  0.2967
   73MOL   C13510359   6.823   2.086   3.035  0.2395  0.1168  0.1880
   73MOL   C13610360   6.744   2.172   2.937 -0.1199  0.4374  0.0044
   73MOL   O13710361   6.681   2.270   3.008  0.1093 -0.3032  0.2248
   73MOL   H13810362   6.878   2.004   2.990 -1.7519 -1.1985  0.0766
   73MOL   H13910363   6.781   2.064   3.133 -0.6079 -0.6510 -0.3370
   73MOL   H14010364   6.670   2.109   2.887  1.0871 -0.1756 -1.0284
   73MOL   H14110365   6.807   2.215   2.859 -1.0250  0.3163 -0.8050
   73MOL   H14210366   6.750   2.309   3.060  1.0011 -0.3889 -0.8572
   74MOL     C110367   1.260   5.869   3.166  0.0455 -0.7664  0.1650
   74MOL     C210368   1.152   5.958   3.128  0.0209 -0.2345 -0.3351
   74MOL     O310369   1.170   6.001   2.992  0.1415 -0.3016  0.5925
   74MOL     H410370   1.269   5.778   3.106 -1.0641 -0.4698 -0.4523
   74MOL     H510371   1.250   5.833   3.268 -0.5314 -1.3832 -0.1076
   74MOL     H610372   1.153   6.046   3.193  1.0025  0.4327 -1.2296
   74MOL     H710373   1.055   5.912   3.146 -0.3609  1.2659  1.6901
   74MOL     H810374   1.355   5.921   3.156 -0.7678  0.4754 -1.2549
   74MOL     C910375   1.052   5.982   2.919  0.6953 -0.2074 -0.3540
   74MOL    C1010376   1.055   6.060   2.792 -0.1466 -0.5210  0.2189
   74MOL    O1110377   1.127   5.984   2.699 -0.0676  0.1385  0.0578
   74MOL    H1210378   1.030   5.875   2.915  2.1823 -0.4624 -2.6600
   74MOL    H1310379   0.969   6.018   2.980  0.2582  0.2197 -1.1965
   74MOL    H1410380   1.111   6.153   2.795 -0.8088 -0.1056 -0.1495
   74MOL    H1510381   0.951   6.070   2.759 -0.4479  1.8379  1.7877
   74MOL    C1610382   1.135   6.049   2.572  0.2544 -0.5114 -0.4187
   74MOL    C1710383   1.208   5.955   2.474  0.1382 -0.9486 -0.2113
   74MOL    O1810384   1.107   5.877   2.417 -0.2654  0.3189 -0.5643
   74MOL    H1910385   1.033   6.077   2.542  0.3565  0.7322  0.3478
   74MOL    H2010386   1.177   6.149   2.568 -0.3281 -0.1755  1.5865
   74MOL    H2110387   1.291   5.898   2.516 -0.1602 -2.2150 -1.2827
   74MOL    H2210388   1.256   6.008   2.392  0.0556 -1.3353 -0.5144
   74MOL    C2310389   1.154   5.757   2.366 -0.2455  0.2422  0.0523
   74MOL    C2410390   1.033   5.677   2.320 -0.4936 -0.2214 -0.5994
   74MOL    O2510391   0.955   5.622   2.438 -0.4601 -0.2165 -0.2414
   74MOL    H2610392   1.219   5.771   2.280  1.9028 -1.1302  1.4023
   74MOL    H2710393   1.221   5.705   2.434 -0.3829 -0.7865 -0.5874
   74MOL    H2810394   1.065   5.586   2.268 -2.8155 -2.1193  1.1831
   74MOL    H2910395   0.971   5.730   2.247  0.7126 -1.1451 -2.3549
   74MOL    C3010396   0.884   5.712   2.523  0.1933  0.1174  0.1089
   74MOL    C3110397   0.802   5.631   2.629 -0.1036 -0.6334  0.1333
   74MOL    O3210398   0.700   5.550   2.568  0.7193  0.4019  0.4785
   74MOL    H3310399   0.952   5.783   2.571 -0.3403 -0.3961  1.6744
   74MOL    H3410400   0.832   5.769   2.447 -2.3633 -0.3213  1.4868
   74MOL    H3510401   0.754   5.696   2.701  2.2650 -1.1943  2.2846
   74MOL    H3610402   0.865   5.568   2.693 -1.5827  0.1160  2.3563
   74MOL    C3710403   0.619   5.485   2.671 -0.7560 -0.2062 -0.3876
   74MOL    C3810404   0.492   5.420   2.621  0.5587  0.3537  0.7106
   74MOL    O3910405   0.503   5.285   2.567  0.2096  0.3399  0.6385
   74MOL    H4010406   0.676   5.407   2.722  0.7413  0.1513 -1.4791
   74MOL    H4110407   0.588   5.561   2.742 -0.4583 -2.3397  2.1044
   74MOL    H4210408   0.473   5.489   2.538  0.2966 -1.1242 -0.4903
   74MOL    H4310409   0.418   5.415   2.701  0.0508 -1.2951  0.1602
   74MOL    C4410410   0.379   5.255   2.500 -0.0354 -0.0180 -0.3087
   74MOL    C4510411   0.400   5.108   2.444 -0.4576  0.4581  0.3133
   74MOL    O4610412   0.360   5.016   2.546  0.0562  0.6929 -0.1355
   74MOL    H4710413   0.292   5.254   2.567  0.9781 -0.7128  1.0325
   74MOL    H4810414   0.354   5.332   2.427 -1.0429  1.1819  1.2539
   74MOL    H4910415   0.499   5.100   2.400 -1.0568 -0.1006 -0.9379
   74MOL    H5010416   0.335   5.091   2.358 -0.1976 -0.9436  0.3856
   74MOL    C5110417   0.366   4.884   2.494 -0.0371  0.3527  0.5024
   74MOL    C5210418   0.326   4.775   2.597  0.1008 -0.3508 -0.2112
   74MOL    O5310419   0.222   4.695   2.548  0.5779  0.4234  0.4392
   74MOL    H5410420   0.293   4.888   2.413  0.7516  3.4872 -0.1316
   74MOL    H5510421   0.456   4.854   2.440 -0.5983  0.4462 -0.4998
   74MOL    H5610422   0.302   4.810   2.697 -0.0460  1.0954 -0.7560
   74MOL    H5710423   0.416   4.713   2.605 -0.4601 -1.1483  0.0695
   74MOL    C5810424   0.092   4.754   2.572  0.0598  0.7123 -0.3753
   74MOL    C5910425   0.018   4.663   2.671  0.0060  0.0536  0.0302
   74MOL    O6010426   0.086   4.692   2.789  0.3540 -0.1321 -0.0387
   74MOL    H6110427   0.097   4.856   2.608 -0.7949  1.0258 -1.1232
   74MOL    H6210428   0.041   4.770   2.477 -1.6212  1.5073  0.6440
   74MOL    H6310429   0.030   4.558   2.644 -3.8854 -0.4371 -0.0197
   74MOL    H6410430   7.687   4.696   2.691 -0.3619 -0.9978 -0.0768
   74MOL    C6510431   0.059   4.602   2.894  0.0008  0.4005 -0.1257
   74MOL    C6610432   0.145   4.628   3.013 -0.6237  0.4716 -0.2532
   74MOL    O6710433   0.271   4.588   2.989 -0.3632  0.0169 -0.4521
   74MOL    H6810434   7.728   4.618   2.928 -0.1211  2.3391 -1.3416
   74MOL    H6910435   0.052   4.496   2.872 -2.2029  0.3972  0.5535
   74MOL    H7010436   0.115   4.573   3.103  2.6088  0.7178  1.0295
   74MOL    H7110437   0.139   4.734   3.038  0.9891  0.3997  0.4740
   74MOL    C7210438   0.377   4.657   3.057  0.6997  0.1496  0.4228
   74MOL    C7310439   0.399   4.801   3.009  0.4814  0.0826  0.4267
   74MOL    O7410440   0.327   4.909   3.069  0.0960  0.4236 -0.4045
   74MOL    H7510441   0.366   4.655   3.165 -1.9329  2.1806  0.2611
   74MOL    H7610442   0.462   4.602   3.017  0.7330  0.0879  0.5788
   74MOL    H7710443   0.386   4.803   2.901 -0.8394  2.2319  0.6014
   74MOL    H7810444   0.502   4.835   3.019  1.0583 -1.3971 -0.3441
   74MOL    C7910445   0.337   5.033   3.003  0.4976  0.5817  0.6406
   74MOL    C8010446   0.219   5.071   2.915  0.6415  0.0676  0.0229
   74MOL    O8110447   0.122   5.133   3.000 -0.7641  0.5094  0.6151
   74MOL    H8210448   0.346   5.101   3.088 -3.0041 -0.6426  2.1027
   74MOL    H8310449   0.429   5.037   2.946  2.6917  0.6960  4.0353
   74MOL    H8410450   0.186   4.985   2.856  1.8186 -0.5777  0.2910
   74MOL    H8510451   0.247   5.148   2.844  0.9873  1.3950  1.5778
   74MOL    C8610452   0.007   5.174   2.926 -0.1394 -0.1066 -0.1388
   74MOL    C8710453   7.670   5.240   3.012  0.7551  0.6284 -0.0229
   74MOL    O8810454   7.581   5.132   3.054 -0.4296 -0.0681  0.1093
   74MOL    H8910455   0.030   5.240   2.843 -1.0752  0.5083  0.0725
   74MOL    H9010456   7.732   5.094   2.869  0.1813 -1.0539  0.9219
   74MOL    H9110457   7.623   5.325   2.963  0.6030  0.9897  0.7386
   74MOL    H9210458   7.708   5.277   3.107  1.2451 -0.5857  0.2674
   74MOL    C9310459   7.475   5.191   3.120  0.6901  0.4262  0.5024
   74MOL    C9410460   7.379   5.084   3.175 -0.1556 -0.1126 -0.1714
   74MOL    O9510461   7.433   5.055   3.301  0.1385  0.5320  0.8727
   74MOL    H9610462   7.510   5.262   3.195 -0.2141 -0.1070  1.4472
   74MOL    H9710463   7.423   5.251   3.045 -1.5203  0.8880  2.3194
   74MOL    H9810464   7.357   4.998   3.112 -1.6253  0.1371 -0.0280
   74MOL    H9910465   7.284   5.137   3.173  0.3929  0.8936  0.0367
   74MOL   C10010466   7.445   4.912   3.323 -0.1484  0.3789 -0.0880
   74MOL   C10110467   7.490   4.874   3.463 -0.3536  0.1879 -0.7694
   74MOL   O10210468   7.401   4.917   3.559 -0.3934  0.0682  0.1760
   74MOL   H10310469   7.343   4.877   3.308 -0.3749  1.3207 -0.7349
   74MOL   H10410470   7.515   4.880   3.246 -0.6456  2.5919 -1.4983
   74MOL   H10510471   7.590   4.917   3.472 -1.0717  1.7029  0.1454
   74MOL   H10610472   7.496   4.765   3.453  1.3299 -0.1663  3.1351
   74MOL   C10710473   7.472   4.912   3.687  0.3600 -0.2829  0.1109
   74MOL   C10810474   7.393   4.965   3.802 -0.2687  0.1000  0.2456
   74MOL   O10910475   7.329   4.854   3.853 -0.0267 -0.0046 -0.1910
   74MOL   H11010476   7.508   4.812   3.710  0.2611 -0.1610  0.7896
   74MOL   H11110477   7.557   4.979   3.678  0.8006 -0.8739 -0.0906
   74MOL   H11210478   7.325   5.046   3.775 -3.8757 -2.7487  0.3675
   74MOL   H11310479   7.458   5.007   3.879  0.6584 -0.5753 -0.1621
   74MOL   C11410480   7.206   4.882   3.924 -0.2168  0.4886 -0.0377
   74MOL   C11510481   7.150   4.739   3.968  0.0464  0.3381 -0.0195
   74MOL   O11610482   7.243   4.656   4.042  0.0883 -0.1210 -0.5767
   74MOL   H11710483   7.223   4.938   4.016 -2.8913  0.5325  0.4650
   74MOL   H11810484   7.133   4.934   3.862 -2.1616 -1.0986  0.8565
   74MOL   H11910485   7.121   4.680   3.880 -1.2170  0.3550  0.3745
   74MOL   H12010486   7.061   4.749   4.030  0.4423  3.7116  0.1227
   74MOL   C12110487   7.191   4.527   4.074  0.1297  0.2146  0.3403
   74MOL   C12210488   7.313   4.445   4.116 -0.1746 -0.0486  0.3868
   74MOL   O12310489   7.358   4.502   4.238  0.2794 -0.4542 -0.6215
   74MOL   H12410490   7.130   4.526   4.164 -2.1420  2.4301 -1.1127
   74MOL   H12510491   7.138   4.488   3.988  2.3237  0.6778 -1.2660
   74MOL   H12610492   7.385   4.450   4.035  0.9035  2.5196  1.4515
   74MOL   H12710493   7.284   4.340   4.125  1.0836 -0.5939 -1.6992
   74MOL   C12810494   7.457   4.427   4.305 -0.2637 -0.0330 -0.8460
   74MOL   C12910495   7.408   4.368   4.435  0.5217 -1.0078  0.5156
   74MOL   O13010496   7.464   4.238   4.446 -0.4858  0.0307 -0.4252
   74MOL   H13110497   7.492   4.346   4.242  0.6639  0.3809 -0.8599
   74MOL   H13210498   7.532   4.505   4.320 -0.3034 -0.3280  1.0774
   74MOL   H13310499   7.299   4.369   4.429  0.5241 -1.9770  0.2975
   74MOL   H13410500   7.448   4.435   4.511  0.7800  0.0549 -0.5422
   74MOL   C13510501   7.381   4.140   4.389  0.6704  0.7234  0.4713
   74MOL   C13610502   7.442   4.005   4.394  0.4293 -0.7736 -0.2420
   74MOL   O13710503   7.448   3.962   4.526 -0.1007  0.0849 -0.2167
   74MOL   H13810504   7.293   4.133   4.453  0.1977  0.0049 -0.2387
   74MOL   H13910505   7.365   4.171   4.286 -2.5439 -1.9670  0.0401
   74MOL   H14010506   7.546   4.000   4.362  0.8583  0.1355  0.9733
   74MOL   H14110507   7.392   3.928   4.335  0.4018 -2.1911  1.5934
   74MOL   H14210508   7.514   4.015   4.568  0.8603 -0.1142 -1.4605
   75MOL     C110509   0.704   4.353   6.570 -0.0698  0.1332  0.0805
   75MOL     C210510   0.815   4.287   6.635 -0.2830 -0.1022 -0.2377
   75MOL     O310511   0.770   4.191   6.727 -0.7342  0.1246  0.5238
   75MOL     H410512   0.633   4.395   6.640 -2.0786 -0.5036 -1.5281
   75MOL     H510513   0.647   4.282   6.511 -0.6266  1.1339 -0.6058
   75MOL     H610514   0.875   4.350   6.700 -0.1754 -0.2577 -0.1879
   75MOL     H710515   0.874   4.237   6.558 -1.2403 -1.7183  0.0490
   75MOL     H810516   0.731   4.431   6.499  1.0410 -0.9537 -0.7281
   75MOL     C910517   0.864   4.099   6.788  0.2162 -0.5819 -0.3719
   75MOL    C1010518   0.922   4.007   6.683 -0.1693  0.2643  0.3017
   75MOL    O1110519   1.036   4.066   6.614  0.1692  0.3576 -0.3109
   75MOL    H1210520   0.947   4.151   6.836  0.2223  1.3124 -2.3419
   75MOL    H1310521   0.812   4.048   6.870  0.6317 -2.0130 -0.9854
   75MOL    H1410522   0.846   3.994   6.606 -0.3526  1.0277  0.3531
   75MOL    H1510523   0.952   3.908   6.718 -0.6220  0.4757  1.2936
   75MOL    C1610524   1.117   3.975   6.540 -1.2573 -0.5045 -0.1872
   75MOL    C1710525   1.254   4.048   6.531  0.2903  0.1625 -0.4856
   75MOL    O1810526   1.319   4.042   6.663  0.2185 -0.2294  0.6078
   75MOL    H1910527   1.126   3.870   6.565  0.8109 -0.1409  0.6806
   75MOL    H2010528   1.074   3.967   6.440 -1.6789  0.9357 -0.1338
   75MOL    H2110529   1.240   4.149   6.494  3.0001  1.2011  1.1940
   75MOL    H2210530   1.317   3.993   6.461 -1.9289 -0.3236 -2.1403
   75MOL    C2310531   1.400   4.160   6.684  0.0487  0.0119  0.1036
   75MOL    C2410532   1.445   4.183   6.830 -0.2600 -1.0035 -0.7289
   75MOL    O2510533   1.341   4.227   6.911  0.2967  0.8229  0.3763
   75MOL    H2610534   1.491   4.145   6.625 -0.1595 -1.6958  0.1927
   75MOL    H2710535   1.344   4.242   6.641  0.6435 -0.2658 -1.2221
   75MOL    H2810536   1.524   4.257   6.832 -3.7526  2.9226  0.2165
   75MOL    H2910537   1.478   4.090   6.877 -2.8220 -1.4520  0.3019
   75MOL    C3010538   1.379   4.240   7.046 -0.0872 -0.4358  0.2251
   75MOL    C3110539   1.254   4.267   7.130 -0.0946 -0.1592 -0.6781
   75MOL    O3210540   1.211   4.399   7.105  0.0499  0.1126  0.0096
   75MOL    H3310541   1.437   4.164   7.100 -1.6441 -1.6126  0.2540
   75MOL    H3410542   1.445   4.326   7.059  0.1520 -0.8434  1.8097
   75MOL    H3510543   1.282   4.262   7.235 -0.0658 -0.0276 -0.6796
   75MOL    H3610544   1.185   4.183   7.123  0.4719 -0.5557 -1.5701
   75MOL    C3710545   1.106   4.408   7.012  0.7409 -0.5343 -0.4788
   75MOL    C3810546   0.970   4.389   7.076 -0.0922 -0.6397 -0.0610
   75MOL    O3910547   0.951   4.497   7.169  0.2189 -0.0583  0.1199
   75MOL    H4010548   1.114   4.509   6.972  1.1927 -0.2139  0.4096
   75MOL    H4110549   1.109   4.334   6.932 -1.0613 -1.3035  0.1551
   75MOL    H4210550   0.968   4.294   7.128 -0.6300 -0.4752  0.2192
   75MOL    H4310551   0.894   4.391   6.998  0.2642  0.6588 -0.4011
   75MOL    C4410552   0.836   4.579   7.159  0.4276  0.2032 -0.4696
   75MOL    C4510553   0.847   4.672   7.038 -0.1875  0.0495 -0.7399
   75MOL    O4610554   0.801   4.604   6.918 -0.1067  0.4495 -0.5561
   75MOL    H4710555   0.750   4.512   7.164  1.3717 -0.9558  0.7599
   75MOL    H4810556   0.817   4.639   7.247 -0.0559  0.5594 -0.8127
   75MOL    H4910557   0.953   4.695   7.051  0.2358 -1.5788 -1.2111
   75MOL    H5010558   0.785   4.760   7.056  1.5456  1.1625 -0.0751
   75MOL    C5110559   0.875   4.648   6.803 -0.1184  0.3508  0.5194
   75MOL    C5210560   0.862   4.800   6.784 -0.0577 -1.1772 -0.0234
   75MOL    O5310561   0.961   4.870   6.849  0.3244 -0.0942 -0.6649
   75MOL    H5410562   0.979   4.619   6.819 -0.9167 -2.1074  1.3596
   75MOL    H5510563   0.830   4.589   6.724  0.5142 -0.4317  0.7367
   75MOL    H5610564   0.760   4.834   6.802  0.7788  1.9582 -0.8219
   75MOL    H5710565   0.887   4.808   6.678 -1.9416  0.0770 -0.3844
   75MOL    C5810566   1.000   4.996   6.803 -0.6596  0.0795 -0.6510
   75MOL    C5910567   1.106   5.051   6.899 -0.7642 -0.1892  0.0773
   75MOL    O6010568   1.040   5.116   7.009 -0.2094  0.0831  0.3039
   75MOL    H6110569   1.055   4.995   6.709 -0.2774  1.3090 -0.4405
   75MOL    H6210570   0.913   5.061   6.801 -0.4806  0.4779  1.9618
   75MOL    H6310571   1.160   5.128   6.842 -0.0727 -2.0456 -1.8453
   75MOL    H6410572   1.180   4.979   6.935 -0.4157  0.9259  1.6894
   75MOL    C6510573   1.141   5.193   7.076  0.4682 -0.8212 -0.3853
   75MOL    C6610574   1.070   5.259   7.195 -0.6869  0.2395 -0.4386
   75MOL    O6710575   1.084   5.182   7.312 -0.3307 -0.1241  0.4569
   75MOL    H6810576   1.209   5.123   7.124 -0.4129 -0.4514  1.4885
   75MOL    H6910577   1.193   5.262   7.010 -1.2240 -0.2276 -1.1236
   75MOL    H7010578   0.969   5.284   7.163 -0.6626  1.0182  0.0933
   75MOL    H7110579   1.120   5.355   7.207  0.3892  0.0323 -2.9400
   75MOL    C7210580   1.034   5.256   7.425  0.4504 -0.1911 -0.0181
   75MOL    C7310581   1.044   5.171   7.553  0.1442 -0.4815  0.0525
   75MOL    O7410582   1.178   5.164   7.595  0.2066  0.0260 -0.1873
   75MOL    H7510583   1.074   5.358   7.434 -1.0535  0.4575 -0.5798
   75MOL    H7610584   0.931   5.286   7.406  0.5746  0.8975  0.9395
   75MOL    H7710585   0.985   5.079   7.546 -2.4923  1.1759 -0.2188
   75MOL    H7810586   0.994   5.220   7.637  0.0894  1.8925 -1.3204
   75MOL    C7910587   1.185   5.098   7.714  0.1815  0.4880 -0.2343
   75MOL    C8010588   1.149   5.175   0.079  0.2021 -0.1854  0.0100
   75MOL    O8110589   1.005   5.153   0.090  0.6467  0.1232 -0.5698
   75MOL    H8210590   1.127   5.007   7.702 -1.0906  1.1190  1.0896
   75MOL    H8310591   1.286   5.062   7.733 -0.8522 -0.8484  2.8832
   75MOL    H8410592   1.185   5.277   0.087  0.6479 -0.3332 -0.0899
   75MOL    H8510593   1.198   5.121   0.160 -0.4721  1.2926  1.4307
   75MOL    C8610594   0.946   5.212   0.209  0.1853  0.1670 -0.9179
   75MOL    C8710595   0.793   5.206   0.208 -0.0950  0.1300  0.5279
   75MOL    O8810596   0.753   5.141   0.330  0.2008  0.4329  0.1384
   75MOL    H8910597   0.990   5.164   0.296  0.0469  1.8242  0.0833
   75MOL    H9010598   0.982   5.315   0.206  2.1735 -0.5045 -0.6634
   75MOL    H9110599   0.767   5.135   0.129  2.0606  0.0043 -0.0964
   75MOL    H9210600   0.753   5.306   0.193 -0.4841 -0.2232 -0.8927
   75MOL    C9310601   0.616   5.113   0.344  0.0552 -0.5050 -0.2074
   75MOL    C9410602   0.527   5.238   0.363  0.1209 -0.3885  0.1421
   75MOL    O9510603   0.485   5.290   0.241 -0.1202 -0.3120 -0.5177
   75MOL    H9610604   0.584   5.038   0.271 -1.8489  0.8383 -0.7653
   75MOL    H9710605   0.611   5.067   0.442 -0.7709 -1.6460 -0.7666
   75MOL    H9810606   0.579   5.310   0.426 -1.8956  1.5014 -0.2995
   75MOL    H9910607   0.444   5.208   0.427  0.5000  1.1909  1.4007
   75MOL   C10010608   0.375   5.218   0.177 -0.1023  0.6780  0.0617
   75MOL   C10110609   0.357   5.282   0.038 -0.1937  0.6019 -0.6800
   75MOL   O10210610   0.482   5.262   7.744  0.0693  0.4193  0.1832
   75MOL   H10310611   0.394   5.111   0.164 -0.7232  0.6356 -0.5357
   75MOL   H10410612   0.289   5.235   0.242  0.2914  1.7972  0.2967
   75MOL   H10510613   0.336   5.389   0.031 -0.8612  0.5145 -0.0010
   75MOL   H10610614   0.283   5.223   7.755 -0.4840  1.4164 -1.1819
   75MOL   C10710615   0.488   5.291   7.606 -0.1261 -0.1683 -0.4403
   75MOL   C10810616   0.625   5.250   7.548 -0.2334 -0.2145 -0.1158
   75MOL   O10910617   0.718   5.359   7.568  0.2678 -0.9919  0.1590
   75MOL   H11010618   0.412   5.229   7.558  0.3128 -0.4902 -0.7359
   75MOL   H11110619   0.456   5.391   7.580 -2.6349 -0.5660  1.0179
   75MOL   H11210620   0.614   5.224   7.443 -1.3152  1.7637 -0.5200
   75MOL   H11310621   0.665   5.165   7.603  0.6971  0.9943  1.1126
   75MOL   C11410622   0.756   5.395   7.700 -0.1802 -0.0764  0.2221
   75MOL   C11510623   0.846   5.515   7.689 -0.0400 -0.2117 -0.2578
   75MOL   O11610624   0.992   5.478   7.698 -0.4915 -0.3250  0.3528
   75MOL   H11710625   0.669   5.400   7.766 -0.8346  2.4468 -0.7919
   75MOL   H11810626   0.809   5.307   7.736  2.1341  1.4108  0.5021
   75MOL   H11910627   0.822   5.584   7.770 -1.2915  0.6685 -1.3587
   75MOL   H12010628   0.840   5.573   7.597  1.2452  0.1384 -0.1380
   75MOL   C12110629   1.081   5.571   7.654  0.1420 -1.0865  0.0974
   75MOL   C12210630   1.217   5.521   7.672 -0.3315  0.2713 -0.1750
   75MOL   O12310631   1.251   5.537   0.043 -0.1170 -0.5210  0.0154
   75MOL   H12410632   1.064   5.592   7.548 -2.2168  0.8752  0.8284
   75MOL   H12510633   1.083   5.665   7.709 -0.1530 -1.1629  0.2345
   75MOL   H12610634   1.278   5.578   7.601 -0.9240  0.6384 -0.3916
   75MOL   H12710635   1.221   5.420   7.631  1.0408  0.4709 -0.5688
   75MOL   C12810636   1.379   5.492   0.071  0.4557 -0.3497 -0.6473
   75MOL   C12910637   1.413   5.552   0.197  0.1339  0.1343 -0.5953
   75MOL   O13010638   1.370   5.476   0.309  0.8508  0.3293 -0.0939
   75MOL   H13110639   1.394   5.385   0.073 -2.5819 -0.8085  0.3973
   75MOL   H13210640   1.447   5.528   7.765  1.4708  2.8616  1.6215
   75MOL   H13310641   1.406   5.660   0.204  0.7622  0.1628 -0.4258
   75MOL   H13410642   1.520   5.535   0.204  0.4389  2.2321  0.3405
   75MOL   C13510643   1.237   5.524   0.346 -0.6395 -0.1718  0.0411
   75MOL   C13610644   1.157   5.446   0.444 -0.9885 -0.2412 -0.0618
   75MOL   O13710645   1.230   5.443   0.566 -0.3469  0.6877  0.1262
   75MOL   H13810646   1.252   5.626   0.383 -0.0194 -0.2264 -0.0534
   75MOL   H13910647   1.178   5.541   0.256 -1.6770  1.7480  1.0510
   75MOL   H14010648   1.130   5.345   0.413 -0.7120  0.1822 -1.7117
   75MOL   H14110649   1.059   5.490   0.461 -1.7024 -2.1939  1.1140
   75MOL   H14210650   1.238   5.531   0.599  1.9456 -0.5012  2.9329
   76MOL     C110651   1.173   2.845   1.905 -0.3821 -0.2779 -0.1260
   76MOL     C210652   1.024   2.884   1.951 -0.1278  0.1900  0.1942
   76MOL     O310653   0.979   2.979   1.850  0.3731  1.2070  0.7039
   76MOL     H410654   1.236   2.934   1.912 -1.0291  0.2457 -0.7592
   76MOL     H510655   1.183   2.800   1.806  0.5103  1.1628 -0.7062
   76MOL     H610656   1.016   2.921   2.053 -2.5641  0.5984 -0.0962
   76MOL     H710657   0.956   2.799   1.943 -0.0843  0.1223  0.5393
   76MOL     H810658   1.224   2.771   1.966  0.9932  0.8722  0.1506
   76MOL     C910659   0.837   2.993   1.862  0.1889 -0.8046 -0.3601
   76MOL    C1010660   0.795   3.058   1.996  0.0510 -0.0410 -0.5692
   76MOL    O1110661   0.737   2.959   2.080 -0.1609  0.3793  0.2204
   76MOL    H1210662   0.798   3.046   1.775  0.7362  2.0805  1.0924
   76MOL    H1310663   0.783   2.899   1.851 -0.8689  0.0529 -2.8980
   76MOL    H1410664   0.723   3.133   1.966 -1.1847 -1.1493 -0.3974
   76MOL    H1510665   0.878   3.109   2.046  0.2214  0.2276 -1.1279
   76MOL    C1610666   0.749   2.983   2.214  0.1952  0.1411  0.0847
   76MOL    C1710667   0.691   2.871   2.305  0.0282  0.3158  0.1571
   76MOL    O1810668   0.548   2.870   2.304 -0.3394  0.2834 -0.0599
   76MOL    H1910669   0.855   2.998   2.235  0.2871  0.3637 -0.5176
   76MOL    H2010670   0.696   3.077   2.230  0.6457  0.3063  0.6342
   76MOL    H2110671   0.726   2.874   2.408 -1.6802  0.0425  0.7601
   76MOL    H2210672   0.726   2.772   2.274 -0.7103  0.5364 -1.4293
   76MOL    C2310673   0.492   2.798   2.410 -0.1564  0.2512 -0.2520
   76MOL    C2410674   0.344   2.811   2.375 -0.3410 -0.6387  0.5005
   76MOL    O2510675   0.292   2.948   2.380  0.0927  0.2746 -0.1049
   76MOL    H2610676   0.522   2.694   2.400 -1.3622 -0.3481  2.1346
   76MOL    H2710677   0.522   2.834   2.509 -0.0719 -0.0527 -0.1683
   76MOL    H2810678   0.294   2.749   2.450 -0.7246  0.9853  1.5926
   76MOL    H2910679   0.316   2.775   2.276  1.0436  0.9998 -0.5123
   76MOL    C3010680   0.150   2.964   2.402 -0.2853  0.2232  0.5398
   76MOL    C3110681   0.059   2.934   2.275 -0.4115  0.5877  0.2829
   76MOL    O3210682   0.042   2.796   2.254  0.3969  0.3257  0.3330
   76MOL    H3310683   0.111   2.898   2.480 -3.0553  0.2728 -0.7746
   76MOL    H3410684   0.133   3.071   2.408  0.1707  0.3923 -1.1454
   76MOL    H3510685   0.083   2.982   2.180 -0.9178 -1.1317 -0.7341
   76MOL    H3610686   7.726   2.963   2.293 -0.3666  2.2350 -1.9707
   76MOL    C3710687   7.765   2.772   2.122 -0.0336 -0.5208  0.2635
   76MOL    C3810688   7.755   2.622   2.107  0.4026  0.1225  0.7230
   76MOL    O3910689   7.623   2.592   2.159 -0.2436  0.2026  0.1873
   76MOL    H4010690   7.676   2.830   2.098  1.9265  2.6897  0.5088
   76MOL    H4110691   0.074   2.798   2.053  0.2234 -0.1281  0.7075
   76MOL    H4210692   0.069   2.575   2.156  0.5186  1.6517  2.0241
   76MOL    H4310693   7.761   2.597   2.001 -0.5812  0.7315  0.5137
   76MOL    C4410694   7.599   2.460   2.203  0.3048 -0.0827  0.1820
   76MOL    C4510695   7.447   2.431   2.227 -0.0380  0.6029 -0.3237
   76MOL    O4610696   7.409   2.498   2.350 -0.3472 -0.1820  0.7009
   76MOL    H4710697   7.629   2.397   2.119 -0.0621  3.5880 -2.8473
   76MOL    H4810698   7.662   2.431   2.288  1.4324  0.3707 -0.4815
   76MOL    H4910699   7.444   2.323   2.240 -0.4765  0.6464 -0.0424
   76MOL    H5010700   7.383   2.457   2.142  0.8530 -0.7610 -1.4390
   76MOL    C5110701   7.279   2.471   2.417  0.3668  0.3493 -0.3380
   76MOL    C5210702   7.296   2.373   2.530  0.0035 -0.3524  0.7089
   76MOL    O5310703   7.198   2.274   2.530 -0.7335 -0.1564  0.0770
   76MOL    H5410704   7.233   2.563   2.452 -0.4849  0.0014 -0.5365
   76MOL    H5510705   7.206   2.424   2.351 -1.3204  0.1677  1.6305
   76MOL    H5610706   7.317   2.415   2.629  2.0413  2.4219 -0.8498
   76MOL    H5710707   7.390   2.321   2.515 -0.7564 -1.0750 -1.6789
   76MOL    C5810708   7.169   2.223   2.662 -0.1358  0.4791 -0.5717
   76MOL    C5910709   7.120   2.325   2.769  0.3018  0.6091 -0.1434
   76MOL    O6010710   7.222   2.388   2.851  0.3708 -0.4995 -0.1877
   76MOL    H6110711   7.093   2.148   2.639  1.3948 -1.5575  0.8577
   76MOL    H6210712   7.249   2.164   2.705 -0.8233 -0.0732 -0.0295
   76MOL    H6310713   7.054   2.279   2.843  0.1609  1.7678  0.4564
   76MOL    H6410714   7.057   2.400   2.722  1.7362  1.3341 -0.9378
   76MOL    C6510715   7.165   2.485   2.931 -0.0018 -0.3425 -0.1211
   76MOL    C6610716   7.266   2.540   3.023  0.1374 -0.1967 -0.8022
   76MOL    O6710717   7.375   2.620   2.976 -0.3332 -0.1589  0.5129
   76MOL    H6810718   7.111   2.555   2.867  0.8742 -0.1858 -0.7151
   76MOL    H6910719   7.096   2.428   2.992 -0.7375  1.5788  0.8785
   76MOL    H7010720   7.301   2.463   3.091  0.7903  1.9860  1.3764
   76MOL    H7110721   7.207   2.598   3.095 -0.7253  0.3452 -1.9188
   76MOL    C7210722   7.345   2.734   2.902  0.1432 -0.6317  0.0288
   76MOL    C7310723   7.352   2.699   2.753 -0.9920  0.1173 -0.8935
   76MOL    O7410724   7.487   2.724   2.722  0.2779 -0.2842  0.0488
   76MOL    H7510725   7.245   2.769   2.925  0.3126 -0.3211  0.2834
   76MOL    H7610726   7.412   2.818   2.921 -1.4292  0.6770 -0.0993
   76MOL    H7710727   7.301   2.777   2.697 -0.1582  1.0413 -0.3812
   76MOL    H7810728   7.320   2.600   2.719 -2.0521  0.4632 -0.9259
   76MOL    C7910729   7.548   2.639   2.618 -0.0289 -0.5486 -0.2951
   76MOL    C8010730   7.695   2.678   2.612  0.0427 -0.2220 -0.5873
   76MOL    O8110731   0.002   2.611   2.708 -0.2105  0.0303 -0.1022
   76MOL    H8210732   7.531   2.533   2.638 -2.5404  0.3185  2.5797
   76MOL    H8310733   7.509   2.666   2.519  0.6466  0.2245 -0.3523
   76MOL    H8410734   7.716   2.784   2.623 -0.4965 -0.4178  2.7142
   76MOL    H8510735   7.735   2.659   2.512 -0.9816 -0.8638 -0.8832
   76MOL    C8610736   7.751   2.632   2.844 -0.4628 -0.1179  0.1415
   76MOL    C8710737   0.026   2.767   2.896 -0.6522 -0.1219 -0.2431
   76MOL    O8810738   0.161   2.781   2.940 -0.4206  0.2440 -0.5450
   76MOL    H8910739   7.655   2.600   2.884 -0.7406  0.2103 -0.2570
   76MOL    H9010740   0.043   2.556   2.889  1.6530  1.1462 -0.6451
   76MOL    H9110741   7.743   2.779   2.990 -0.9475  0.0411 -0.4355
   76MOL    H9210742   0.004   2.851   2.831  0.4703  0.1726 -0.2519
   76MOL    C9310743   0.204   2.890   3.016  0.9199  0.7421  0.3884
   76MOL    C9410744   0.341   2.864   3.081  0.3156 -0.0735 -0.5167
   76MOL    O9510745   0.445   2.883   2.985 -0.0499 -0.7217 -0.2473
   76MOL    H9610746   0.210   2.980   2.955 -1.7034  0.5440 -0.1961
   76MOL    H9710747   0.134   2.908   3.097  1.9864  0.5310  1.3751
   76MOL    H9810748   0.336   2.762   3.121  0.4235 -0.4743 -1.5229
   76MOL    H9910749   0.350   2.929   3.168  0.2570  1.9616 -1.9952
   76MOL   C10010750   0.571   2.873   3.037  0.0683  0.1156  0.0295
   76MOL   C10110751   0.675   2.842   2.935 -0.0850 -0.4015 -0.5635
   76MOL   O10210752   0.707   2.962   2.857  0.4682  0.2344 -0.1120
   76MOL   H10310753   0.600   2.961   3.094 -1.5554  0.8760 -0.2974
   76MOL   H10410754   0.571   2.797   3.116  2.4464 -0.3910 -0.4214
   76MOL   H10510755   0.646   2.761   2.868  0.5826 -0.6580 -0.5439
   76MOL   H10610756   0.767   2.800   2.975 -0.8729  0.9641  2.8462
   76MOL   C10710757   0.604   2.984   2.760  0.0604 -0.2242  0.1389
   76MOL   C10810758   0.667   3.048   2.642  0.2411 -0.3677  0.3511
   76MOL   O10910759   0.726   3.171   2.662 -0.7399  0.3167  0.0746
   76MOL   H11010760   0.545   2.894   2.746 -0.1278 -0.2369  1.0191
   76MOL   H11110761   0.526   3.050   2.798 -1.7902 -2.5871  0.5729
   76MOL   H11210762   0.585   3.053   2.570  0.6962  0.0535 -0.1403
   76MOL   H11310763   0.737   2.972   2.608 -0.4616 -0.3346 -1.2064
   76MOL   C11410764   0.801   3.221   2.547  0.3521 -0.1805 -0.3283
   76MOL   C11510765   0.929   3.299   2.588 -0.0123 -0.1490  0.0776
   76MOL   O11610766   0.894   3.428   2.614 -0.3679  0.4120 -0.2008
   76MOL   H11710767   0.817   3.141   2.475 -1.2116 -1.7597  1.0231
   76MOL   H11810768   0.730   3.294   2.508  0.0116 -0.1698  0.3052
   76MOL   H11910769   1.002   3.292   2.507  2.2489 -2.0939  2.2151
   76MOL   H12010770   0.982   3.255   2.672 -0.0889  1.1461  0.8022
   76MOL   C12110771   0.858   3.454   2.752 -0.4622 -0.0709  0.1404
   76MOL   C12210772   0.819   3.607   2.737 -0.0087  0.4442  0.0662
   76MOL   O12310773   0.685   3.628   2.704 -0.4036 -0.1100  0.8305
   76MOL   H12410774   0.782   3.387   2.792  1.4085 -1.2843  1.7858
   76MOL   H12510775   0.939   3.428   2.820 -0.2162 -0.2287 -0.2083
   76MOL   H12610776   0.886   3.657   2.667  0.1275  0.8827  0.5085
   76MOL   H12710777   0.830   3.650   2.836 -0.4504  2.2210 -0.6341
   76MOL   C12810778   0.644   3.580   2.572  0.3514  0.2605 -0.3347
   76MOL   C12910779   0.515   3.646   2.522 -0.5001 -0.3421 -0.2267
   76MOL   O13010780   0.528   3.715   2.398  0.4553 -0.1214 -0.3686
   76MOL   H13110781   0.725   3.606   2.504 -0.9984  1.9370 -1.3331
   76MOL   H13210782   0.624   3.473   2.574  0.8886  0.1652  0.3994
   76MOL   H13310783   0.471   3.705   2.602  1.0978 -1.8113  1.8224
   76MOL   H13410784   0.453   3.562   2.491 -0.9047  0.6858 -2.2650
   76MOL   C13510785   0.589   3.844   2.413  0.0322 -0.0831  0.4567
   76MOL   C13610786   0.570   3.907   2.275 -1.2360 -0.0347  0.8144
   76MOL   O13710787   0.682   3.876   2.194 -0.2092 -0.0810 -0.2413
   76MOL   H13810788   0.544   3.896   2.498  1.1439  1.5933  0.0574
   76MOL   H13910789   0.697   3.833   2.426  0.1920  0.2845 -0.4979
   76MOL   H14010790   0.565   4.013   2.299  0.1307  0.6487 -1.6828
   76MOL   H14110791   0.479   3.876   2.222 -0.6764  2.1363 -1.5372
   76MOL   H14210792   0.718   3.793   2.220  0.8939  0.4142 -0.1696
   77MOL     C110793   2.590   7.338   4.210 -0.2993 -0.2316 -0.0281
   77MOL     C210794   2.461   7.409   4.186  1.0968  0.1471  0.1197
   77MOL     O310795   2.455   7.421   4.054 -0.3772 -0.3319 -0.4073
   77MOL     H410796   2.596   7.248   4.148 -2.8297 -0.6346  0.2461
   77MOL     H510797   2.595   7.309   4.315 -0.3824 -2.1215 -0.5157
   77MOL     H610798   2.454   7.506   4.234 -1.4867 -0.4114  0.9775
   77MOL     H710799   2.381   7.343   4.223 -0.7395  1.8094 -0.7984
   77MOL     H810800   2.682   7.390   4.185  0.2968  0.4848  3.5146
   77MOL     C910801   2.328   7.472   4.024  0.6703 -0.4986  0.3635
   77MOL    C1010802   2.320   7.501   3.864  1.1847  0.2441 -0.6295
   77MOL    O1110803   2.305   7.643   3.851  0.3741 -0.3421  0.1297
   77MOL    H1210804   2.248   7.401   4.046 -0.3016  0.4851  0.0429
   77MOL    H1310805   2.299   7.559   4.081  0.7856  0.9935 -1.7740
   77MOL    H1410806   2.236   7.445   3.821  0.7289  0.6983 -0.3419
   77MOL    H1510807   2.405   7.452   3.817  0.4068 -0.7097 -1.0565
   77MOL    C1610808   2.424   7.705   3.886  0.4273 -0.6915  0.1982
   77MOL    C1710809   2.428   0.069   3.820  0.0944 -0.7581 -0.2739
   77MOL    O1810810   2.543   0.141   3.822  0.3309  0.0979  0.2352
   77MOL    H1910811   2.448   7.715   3.992  1.9050 -1.1162 -0.0868
   77MOL    H2010812   2.507   7.650   3.840  0.6111 -0.2399 -0.0130
   77MOL    H2110813   2.354   0.135   3.865  0.2615  1.1250 -2.6837
   77MOL    H2210814   2.392   0.074   3.717 -1.9354 -0.3665  0.4328
   77MOL    C2310815   2.648   0.113   3.723  0.4439 -0.6781 -0.2190
   77MOL    C2410816   2.752   0.224   3.731 -0.7073 -0.3001 -0.2091
   77MOL    O2510817   2.712   0.346   3.658  1.0690  0.3555 -0.5656
   77MOL    H2610818   2.685   0.015   3.753 -0.4725 -0.6574  1.0161
   77MOL    H2710819   2.602   0.098   3.625 -1.7365 -1.0815  0.8106
   77MOL    H2810820   2.839   0.177   3.684 -0.9679  0.6742 -1.7051
   77MOL    H2910821   2.772   0.247   3.835 -0.4125  0.1223 -0.3555
   77MOL    C3010822   2.606   0.422   3.722 -0.2056  0.2706  0.7940
   77MOL    C3110823   2.609   0.568   3.690 -0.3380 -0.1352  0.3084
   77MOL    O3210824   2.535   0.590   3.573  0.0470 -0.3571  0.2399
   77MOL    H3310825   2.507   0.391   3.688  0.8137 -3.8427  1.2806
   77MOL    H3410826   2.619   0.412   3.830  0.9910 -0.1595  0.6199
   77MOL    H3510827   2.712   0.604   3.695 -0.0096 -1.1657  1.0852
   77MOL    H3610828   2.564   0.622   3.773 -0.7255 -1.0555  0.6955
   77MOL    C3710829   2.599   0.556   3.451 -0.8401 -0.0498  0.3396
   77MOL    C3810830   2.494   0.579   3.345  0.2915 -0.6763  0.3013
   77MOL    O3910831   2.540   0.637   3.220  0.0885  0.2789  0.0147
   77MOL    H4010832   2.672   0.630   3.420 -1.3328  0.3310  0.0824
   77MOL    H4110833   2.637   0.454   3.450 -1.8630 -0.6138  5.2383
   77MOL    H4210834   2.400   0.621   3.379 -0.8083 -2.0750 -0.9075
   77MOL    H4310835   2.457   0.480   3.317  1.8318 -1.0168 -0.5878
   77MOL    C4410836   2.438   0.644   3.126 -0.1517 -0.0692 -0.2552
   77MOL    C4510837   2.477   0.725   3.008  0.8717 -0.0646  0.6674
   77MOL    O4610838   2.490   0.860   3.045 -0.1171 -0.3080  0.7149
   77MOL    H4710839   2.390   0.550   3.099 -2.0376  0.6235  0.6290
   77MOL    H4810840   2.353   0.695   3.171  0.5010  0.3605  0.5032
   77MOL    H4910841   2.400   0.715   2.932  2.3727 -1.4479 -0.7093
   77MOL    H5010842   2.571   0.692   2.964  0.0048  0.2478 -1.4616
   77MOL    C5110843   2.483   0.961   2.939  0.1304  0.0196  0.1191
   77MOL    C5210844   2.541   1.096   2.982  0.0196  0.1370 -0.2187
   77MOL    O5310845   2.442   1.164   3.056 -0.1730 -0.5188  0.3868
   77MOL    H5410846   2.535   0.925   2.850  3.2163 -0.9952  2.2745
   77MOL    H5510847   2.383   0.975   2.896  0.3512 -1.1735 -0.8075
   77MOL    H5610848   2.572   1.159   2.899 -0.5909 -0.8908 -1.2364
   77MOL    H5710849   2.630   1.071   3.040  0.4344 -0.0699 -0.9416
   77MOL    C5810850   2.459   1.304   3.061  0.4042 -0.3084  0.4502
   77MOL    C5910851   2.343   1.390   3.119  0.6240 -1.0177  0.7457
   77MOL    O6010852   2.363   1.391   3.261 -0.5557 -0.2838 -0.5562
   77MOL    H6110853   2.548   1.325   3.121  0.4743  0.0492  0.2212
   77MOL    H6210854   2.484   1.348   2.965 -0.9702  0.0575  0.2501
   77MOL    H6310855   2.249   1.337   3.100 -0.0498  1.2268 -2.8293
   77MOL    H6410856   2.334   1.487   3.071 -0.9999 -1.1650  0.6988
   77MOL    C6510857   2.250   1.434   3.336  0.5555  0.3125  0.5136
   77MOL    C6610858   2.244   1.585   3.345 -0.7129 -0.4628  0.4016
   77MOL    O6710859   2.222   1.658   3.222 -0.4042 -0.5989 -0.0728
   77MOL    H6810860   2.161   1.374   3.314  1.5525 -0.6194 -1.1404
   77MOL    H6910861   2.254   1.406   3.441 -0.8598 -3.0955 -0.2687
   77MOL    H7010862   2.344   1.612   3.379 -0.3938 -0.3793 -0.5809
   77MOL    H7110863   2.182   1.630   3.422 -0.0542 -1.0630  1.2942
   77MOL    C7210864   2.095   1.654   3.170 -0.2055  0.5512 -0.1868
   77MOL    C7310865   2.089   1.722   3.035 -0.2201 -0.8311  0.2459
   77MOL    O7410866   2.100   1.868   3.040  0.1255 -0.5209 -0.3193
   77MOL    H7510867   2.065   1.550   3.152  1.1646  0.4598 -2.0898
   77MOL    H7610868   2.030   1.699   3.244 -0.9572 -1.4495  0.4173
   77MOL    H7710869   1.994   1.701   2.987 -0.3683 -1.8345  0.9584
   77MOL    H7810870   2.176   1.684   2.980 -1.2434 -2.0208 -0.5829
   77MOL    C7910871   1.989   1.942   3.092 -0.3757  0.2919  0.3290
   77MOL    C8010872   1.892   1.957   2.982  0.0120 -0.0983  0.3829
   77MOL    O8110873   1.794   1.858   2.991 -0.1750  0.2088 -0.0719
   77MOL    H8210874   1.943   1.906   3.184 -1.9509 -0.7519 -0.8479
   77MOL    H8310875   2.037   2.038   3.113 -3.6500  1.9280  0.5994
   77MOL    H8410876   1.951   1.952   2.890  0.9729 -1.4518  1.0595
   77MOL    H8510877   1.841   2.053   2.988 -2.4204 -1.2628 -0.8392
   77MOL    C8610878   1.667   1.898   3.045 -0.1934  0.3694  0.8413
   77MOL    C8710879   1.565   1.779   3.056  0.3485  0.1998 -0.3492
   77MOL    O8810880   1.539   1.733   3.187  0.5691 -0.1725 -0.2387
   77MOL    H8910881   1.680   1.948   3.140  1.0243  4.5018 -1.3715
   77MOL    H9010882   1.621   1.965   2.972 -1.8932 -0.4045  1.1792
   77MOL    H9110883   1.589   1.707   2.978  2.2983  1.4481 -0.9375
   77MOL    H9210884   1.471   1.829   3.030  0.4534 -0.1342 -1.3728
   77MOL    C9310885   1.431   1.649   3.204  0.0201  0.0929 -0.1696
   77MOL    C9410886   1.445   1.583   3.342 -0.2157 -0.1803  0.3214
   77MOL    O9510887   1.426   1.672   3.449  0.6385  0.6987 -0.0520
   77MOL    H9610888   1.337   1.703   3.195  1.7439  3.1911 -0.1630
   77MOL    H9710889   1.434   1.571   3.128  0.2916  1.3275 -1.4438
   77MOL    H9810890   1.546   1.542   3.342 -0.3061 -0.4571 -1.7963
   77MOL    H9910891   1.383   1.493   3.335 -0.8654  0.1561  1.6259
   77MOL   C10010892   1.432   1.590   3.570  0.8897 -0.4131 -0.0007
   77MOL   C10110893   1.408   1.681   3.693  0.5189  0.3450 -0.1378
   77MOL   O10210894   1.403   1.609   3.810 -0.0163  0.1265 -0.2851
   77MOL   H10310895   1.349   1.520   3.578 -0.3304  1.1129  0.9685
   77MOL   H10410896   1.520   1.527   3.587  0.4191  0.0255  4.7914
   77MOL   H10510897   1.314   1.733   3.678 -0.2789 -0.4928  1.6948
   77MOL   H10610898   1.490   1.750   3.712  0.9069 -0.0212 -0.4800
   77MOL   C10710899   1.390   1.686   3.926 -0.1270 -0.0635  0.1209
   77MOL   C10810900   1.306   1.615   4.027  0.1177  0.3570 -0.3009
   77MOL   O10910901   1.361   1.490   4.071 -0.3993 -0.4458  0.3685
   77MOL   H11010902   1.491   1.707   3.963  1.0068 -1.7698 -1.8845
   77MOL   H11110903   1.342   1.782   3.910  2.6018  1.7593  2.2161
   77MOL   H11210904   1.206   1.603   3.986 -0.4284  0.4122  0.9977
   77MOL   H11310905   1.296   1.679   4.115 -1.2022 -0.8842  0.4824
   77MOL   C11410906   1.299   1.447   4.194 -0.9652  0.2474 -0.0469
   77MOL   C11510907   1.341   1.307   4.226 -0.6627 -0.1199  0.3186
   77MOL   O11610908   1.298   1.279   4.356 -0.0689  0.2615  0.3141
   77MOL   H11710909   1.339   1.514   4.271 -0.3547  2.0030 -1.8523
   77MOL   H11810910   1.192   1.468   4.182 -0.8433  0.3366 -1.0272
   77MOL   H11910911   1.450   1.303   4.213 -0.5096 -0.2664  1.5718
   77MOL   H12010912   1.297   1.239   4.154 -0.4092  0.3806 -0.3236
   77MOL   C12110913   1.335   1.145   4.401  0.5444 -0.7040  0.2142
   77MOL   C12210914   1.338   1.130   4.553  0.3105 -0.1247 -0.1456
   77MOL   O12310915   1.202   1.158   4.590 -0.0669  0.2954 -0.3293
   77MOL   H12410916   1.265   1.072   4.360  2.1534 -2.2458  0.1592
   77MOL   H12510917   1.431   1.121   4.355  0.1937 -2.2469  0.2620
   77MOL   H12610918   1.407   1.201   4.598 -1.2118 -0.1384  2.2656
   77MOL   H12710919   1.367   1.030   4.584 -1.5758 -0.6210  0.0765
   77MOL   C12810920   1.183   1.199   4.726 -0.7199 -0.2828  0.0224
   77MOL   C12910921   1.170   1.072   4.813  0.1769  0.3162  0.2337
   77MOL   O13010922   1.040   1.027   4.783 -0.4777  0.0556  0.1749
   77MOL   H13110923   1.265   1.261   4.763 -0.6658  1.1074 -2.3292
   77MOL   H13210924   1.099   1.267   4.713 -1.9562 -2.0312 -1.2391
   77MOL   H13310925   1.162   1.091   4.920  1.5537  0.0629  0.3912
   77MOL   H13410926   1.244   0.996   4.790 -0.6367 -0.5481  0.3981
   77MOL   C13510927   1.009   0.900   4.835  0.0552  0.1047  0.1761
   77MOL   C13610928   1.051   0.786   4.745 -0.5906 -0.1046 -0.2764
   77MOL   O13710929   1.005   0.671   4.810  0.0214 -0.6692 -0.2129
   77MOL   H13810930   1.040   0.901   4.940  0.3350 -2.7576  0.1619
   77MOL   H13910931   0.900   0.899   4.827 -0.0371  1.7652  0.8562
   77MOL   H14010932   1.158   0.785   4.728 -0.4787 -0.9724  0.4084
   77MOL   H14110933   0.994   0.799   4.653  1.2383  1.8513 -1.1646
   77MOL   H14210934   0.914   0.675   4.835 -0.1738 -1.2233 -0.8125
   78MOL     C110935   2.102   4.717   2.808 -0.2827 -0.6203 -0.1993
   78MOL     C210936   2.049   4.798   2.930 -0.5995 -0.2579  0.0546
   78MOL     O310937   2.156   4.864   2.989  0.4057 -0.1724  0.0153
   78MOL     H410938   2.101   4.610   2.833 -1.4791 -0.5496  0.0746
   78MOL     H510939   2.201   4.745   2.772 -0.4756 -0.8993 -0.9607
   78MOL     H610940   1.983   4.744   2.998  0.5455  1.6154  2.7475
   78MOL     H710941   1.984   4.871   2.881  0.3511  0.9283  0.5290
   78MOL     H810942   2.038   4.718   2.721  0.8178  0.8848 -1.0034
   78MOL     C910943   2.129   4.938   3.104  0.6672 -0.2596  0.1492
   78MOL    C1010944   2.053   5.065   3.062  0.1279 -0.2393 -0.5376
   78MOL    O1110945   1.914   5.054   3.070  0.3681  0.4599  0.1623
   78MOL    H1210946   2.078   4.871   3.173  1.9655 -2.0143 -0.5697
   78MOL    H1310947   2.219   4.963   3.159 -0.6784 -0.5725  2.5610
   78MOL    H1410948   2.074   5.100   2.961 -2.4495  0.2655 -0.9173
   78MOL    H1510949   2.094   5.147   3.122  1.1246 -0.9318 -0.2573
   78MOL    C1610950   1.848   5.179   3.046  0.0279  0.6005 -0.5008
   78MOL    C1710951   1.858   5.275   3.167  0.5186  0.4595 -0.2084
   78MOL    O1810952   1.975   5.354   3.153  0.4519  0.2188  0.4549
   78MOL    H1910953   1.890   5.232   2.960 -0.0353  0.1604 -0.8031
   78MOL    H2010954   1.745   5.162   3.016 -0.1718  1.1726 -0.1414
   78MOL    H2110955   1.852   5.216   3.259  0.7009 -0.1637 -0.5890
   78MOL    H2210956   1.772   5.342   3.168 -0.6574 -0.9940 -1.5211
   78MOL    C2310957   1.986   5.466   3.246  0.7201 -0.0302 -0.4443
   78MOL    C2410958   1.909   5.591   3.207  0.2712 -0.1119 -0.0762
   78MOL    O2510959   1.771   5.573   3.238 -0.0674 -0.6793 -0.1641
   78MOL    H2610960   1.958   5.442   3.349  0.1815 -0.2707 -0.6473
   78MOL    H2710961   2.094   5.477   3.259  0.6546  0.1875 -0.0685
   78MOL    H2810962   1.921   5.591   3.099 -1.4362  0.6129 -0.2918
   78MOL    H2910963   1.940   5.681   3.261  0.4553  0.3649 -0.9758
   78MOL    C3010964   1.681   5.650   3.158  0.4459  0.2920 -0.3903
   78MOL    C3110965   1.542   5.608   3.199 -0.5028 -0.0105  0.0129
   78MOL    O3210966   1.513   5.485   3.139  0.3050 -0.2235  0.0760
   78MOL    H3310967   1.709   5.755   3.170  1.4119 -0.1295  1.3872
   78MOL    H3410968   1.704   5.628   3.054 -0.5522 -0.1803 -0.5145
   78MOL    H3510969   1.476   5.689   3.168 -1.1638 -0.5893 -0.1011
   78MOL    H3610970   1.537   5.591   3.307 -3.1230  2.4371  0.3541
   78MOL    C3710971   1.374   5.450   3.136 -0.0962 -0.3595 -0.1068
   78MOL    C3810972   1.355   5.293   3.120  0.1112 -0.0587  0.5069
   78MOL    O3910973   1.330   5.226   3.238  0.2488  0.5844 -0.0463
   78MOL    H4010974   1.322   5.472   3.229  1.2301 -0.7274  0.7348
   78MOL    H4110975   1.322   5.492   3.050  0.9036 -0.0877 -0.5812
   78MOL    H4210976   1.439   5.249   3.067 -0.6544 -0.4700 -0.3662
   78MOL    H4310977   1.281   5.268   3.045  1.2796  0.5770 -0.8853
   78MOL    C4410978   1.443   5.208   3.327  0.2065 -0.2281 -0.0956
   78MOL    C4510979   1.476   5.063   3.366 -0.5529  0.2292 -0.3875
   78MOL    O4610980   1.531   4.989   3.261  0.2832 -0.0871  0.5153
   78MOL    H4710981   1.534   5.236   3.275  0.5255 -1.5278 -0.2655
   78MOL    H4810982   1.427   5.270   3.415 -0.6877 -0.4662 -0.0789
   78MOL    H4910983   1.395   5.003   3.410  0.2595 -0.2376  0.4843
   78MOL    H5010984   1.546   5.068   3.449  0.9087 -1.6114 -1.4891
   78MOL    C5110985   1.665   4.938   3.289 -0.1607  0.5425 -0.5071
   78MOL    C5210986   1.690   4.807   3.211 -0.2482 -0.8405 -0.0624
   78MOL    O5310987   1.622   4.695   3.265  0.1060  0.3755  0.4764
   78MOL    H5410988   1.737   5.014   3.258  2.4523 -1.6096  0.0540
   78MOL    H5510989   1.665   4.918   3.397 -3.0299 -0.4053 -0.6287
   78MOL    H5610990   1.796   4.787   3.224 -0.5754 -1.6852  1.3035
   78MOL    H5710991   1.661   4.831   3.108  0.8168  0.3916 -0.0987
   78MOL    C5810992   1.609   4.587   3.171  0.3796 -0.1457 -1.1515
   78MOL    C5910993   1.537   4.474   3.242  0.2155  0.2944  0.1146
   78MOL    O6010994   1.396   4.502   3.227  0.3104 -0.3270 -0.4065
   78MOL    H6110995   1.554   4.618   3.083 -2.1941 -1.3509 -0.0298
   78MOL    H6210996   1.713   4.565   3.146  1.2782  0.0386  2.1594
   78MOL    H6310997   1.572   4.472   3.346  4.2206 -2.4880 -1.1611
   78MOL    H6410998   1.566   4.381   3.194 -0.3751 -0.4198  1.1309
   78MOL    C6510999   1.320   4.396   3.286  0.0015 -0.7065  0.2800
   78MOL    C6611000   1.167   4.420   3.277  0.2317 -0.2545 -0.6913
   78MOL    O6711001   1.116   4.364   3.156  0.1526 -0.1869 -0.2528
   78MOL    H6811002   1.341   4.298   3.242  0.7660 -0.6716  0.5538
   78MOL    H6911003   1.339   4.378   3.392  1.8612  0.5322  0.1778
   78MOL    H7011004   1.144   4.527   3.286 -1.8699 -0.8925  2.2823
   78MOL    H7111005   1.123   4.368   3.362 -0.3551 -0.1960 -0.9624
   78MOL    C7211006   0.980   4.333   3.171 -0.4586 -0.2559  0.2053
   78MOL    C7311007   0.911   4.323   3.031 -0.3333  0.5843 -0.3689
   78MOL    O7411008   0.960   4.226   2.936 -0.5672 -0.0722  0.1569
   78MOL    H7511009   0.976   4.237   3.223  0.4120  0.1098  0.9626
   78MOL    H7611010   0.912   4.400   3.224  1.7128  0.4011  2.2725
   78MOL    H7711011   0.931   4.423   2.991 -1.2177  1.6120  1.6459
   78MOL    H7811012   0.804   4.306   3.046 -0.0290 -1.3709 -0.3698
   78MOL    C7911013   0.998   4.098   2.993  0.0581  0.2857 -0.1781
   78MOL    C8011014   1.017   3.982   2.894  0.7094  0.5768 -0.1114
   78MOL    O8111015   1.142   3.971   2.829 -0.1527  0.6381 -0.3818
   78MOL    H8211016   1.094   4.113   3.042  0.5874 -0.8698 -0.8520
   78MOL    H8311017   0.925   4.055   3.062 -0.3039 -1.3229 -1.5068
   78MOL    H8411018   0.931   3.971   2.827 -0.0409  0.8457  0.8082
   78MOL    H8511019   1.002   3.892   2.954  0.3908  0.7005 -0.0082
   78MOL    C8611020   1.155   4.071   2.730  0.1876 -0.5191 -0.2822
   78MOL    C8711021   1.070   4.052   2.605 -0.1119 -0.3792  0.1381
   78MOL    O8811022   1.098   4.145   2.507 -0.0645  0.8081  0.1092
   78MOL    H8911023   1.138   4.172   2.767  0.7072 -0.5387  0.0092
   78MOL    H9011024   1.261   4.072   2.706  0.2630  3.2933 -0.1029
   78MOL    H9111025   0.965   4.061   2.633  0.7131  1.0919  2.9021
   78MOL    H9211026   1.078   3.954   2.558 -2.7063 -0.7645  0.4083
   78MOL    C9311027   1.004   4.156   2.398 -0.0269 -0.4348  0.2629
   78MOL    C9411028   1.063   4.068   2.281 -0.0009 -0.2673 -0.1613
   78MOL    O9511029   1.006   3.935   2.280 -0.2070 -0.1316  0.1538
   78MOL    H9611030   0.903   4.129   2.429 -0.2174 -0.6781 -0.5501
   78MOL    H9711031   1.000   4.262   2.377 -1.2177 -0.0789  2.1843
   78MOL    H9811032   1.170   4.056   2.292 -0.0868  0.3232  1.4624
   78MOL    H9911033   1.028   4.116   2.189  0.7092  0.0623 -0.2612
   78MOL   C10011034   1.041   3.848   2.173 -0.0659 -0.3161  0.0598
   78MOL   C10111035   1.018   3.698   2.207  0.4813  1.1361 -0.7435
   78MOL   O10211036   0.881   3.660   2.227  0.2665 -0.0993 -0.1335
   78MOL   H10311037   0.987   3.872   2.082  1.5298 -0.3072 -0.9159
   78MOL   H10411038   1.147   3.865   2.154 -0.0879 -0.1584  0.0750
   78MOL   H10511039   1.080   3.658   2.287  0.2701  0.4369 -0.9227
   78MOL   H10611040   1.055   3.653   2.115  0.8795  0.0205 -0.0418
   78MOL   C10711041   0.867   3.517   2.240  0.4050  0.1900  0.2115
   78MOL   C10811042   0.726   3.463   2.210  0.1633 -0.6071 -0.6011
   78MOL   O10911043   0.718   3.400   2.086  0.2713 -0.4107 -0.1295
   78MOL   H11011044   0.930   3.464   2.168 -1.8543 -1.9988 -0.2201
   78MOL   H11111045   0.893   3.495   2.344 -0.8788  1.2234  0.7593
   78MOL   H11211046   0.647   3.537   2.224  0.3050 -0.3096 -1.3256
   78MOL   H11311047   0.706   3.373   2.267  0.6576 -0.7253 -0.6120
   78MOL   C11411048   0.716   3.502   1.979 -0.2688  0.2057  0.0999
   78MOL   C11511049   0.716   3.436   1.838 -0.3765 -0.3409 -0.0144
   78MOL   O11611050   0.594   3.434   1.763 -0.0548 -0.4060 -0.1960
   78MOL   H11711051   0.632   3.572   1.984  0.2546  1.0699 -2.2730
   78MOL   H11811052   0.803   3.567   1.976  1.0182 -1.3711  1.9515
   78MOL   H11911053   0.757   3.338   1.863 -0.0072  0.4101  2.4834
   78MOL   H12011054   0.785   3.497   1.780  1.0406 -1.0803  0.8329
   78MOL   C12111055   0.481   3.376   1.836  0.2853 -0.5804 -0.1609
   78MOL   C12211056   0.346   3.429   1.779 -0.4382 -0.4906  0.9949
   78MOL   O12311057   0.331   3.398   1.643  0.2703 -0.2535  0.7173
   78MOL   H12411058   0.482   3.267   1.825 -0.2226 -0.3639 -2.5122
   78MOL   H12511059   0.480   3.397   1.943  1.0360 -0.6512 -0.1435
   78MOL   H12611060   0.344   3.534   1.806 -1.0261  0.2133 -1.6291
   78MOL   H12711061   0.270   3.386   1.844  0.6345 -0.4479  2.3006
   78MOL   C12811062   0.197   3.430   1.592 -0.5536 -0.0901  0.6400
   78MOL   C12911063   0.182   3.392   1.446 -0.3351  0.1434 -0.0992
   78MOL   O13011064   0.173   3.253   1.430 -0.1886 -0.2452 -0.3412
   78MOL   H13111065   0.122   3.385   1.658 -1.1762 -1.7998 -1.1990
   78MOL   H13211066   0.179   3.537   1.587  0.5616  0.0297 -1.3363
   78MOL   H13311067   0.261   3.434   1.384  0.3935 -3.9558 -2.1726
   78MOL   H13411068   0.089   3.436   1.410 -0.0844  0.6300 -0.1410
   78MOL   C13511069   0.167   3.204   1.292  0.1369  0.3048 -0.5129
   78MOL   C13611070   0.167   3.046   1.302 -0.4621 -0.3711  0.2348
   78MOL   O13711071   0.198   2.999   1.174 -0.4991 -0.3294 -0.0499
   78MOL   H13811072   0.076   3.239   1.243 -0.8543 -2.5879 -0.8539
   78MOL   H13911073   0.261   3.226   1.241  0.8897  3.7508  2.1908
   78MOL   H14011074   0.074   3.010   1.345 -0.4787  0.8280  1.2343
   78MOL   H14111075   0.247   3.013   1.368  1.9362  2.8196 -0.9173
   78MOL   H14211076   0.283   2.957   1.176 -1.2689 -2.0684 -1.8683
   79MOL     C111077   0.207   6.587   3.533 -0.1599  0.6967  0.1285
   79MOL     C211078   0.082   6.641   3.589 -0.0873 -0.3739 -0.4747
   79MOL     O311079   0.025   6.549   3.674  0.3697 -0.0688 -0.1240
   79MOL     H411080   0.292   6.586   3.601  0.0506 -3.4456 -0.1016
   79MOL     H511081   0.229   6.650   3.447  0.0410  1.3546  0.6585
   79MOL     H611082   0.004   6.676   3.521  0.1400  1.5143  0.2040
   79MOL     H711083   0.106   6.735   3.639  1.7910 -0.3950 -1.3144
   79MOL     H811084   0.189   6.498   3.472 -2.1164  2.0220 -1.3146
   79MOL     C911085   0.083   6.554   3.805  1.0491  0.1738 -0.2450
   79MOL    C1011086   0.033   6.439   3.894  0.9225  0.2345 -0.3745
   79MOL    O1111087   7.702   6.476   3.986  0.0481  0.0256 -0.2964
   79MOL    H1211088   0.189   6.533   3.813  0.9741 -0.7117 -1.3721
   79MOL    H1311089   0.068   6.649   3.856  4.4349  2.0268 -2.5791
   79MOL    H1411090   0.116   6.417   3.961  1.3828  0.5766 -0.8307
   79MOL    H1511091   0.014   6.349   3.837 -0.1593 -0.9103  1.7067
   79MOL    C1611092   7.580   6.514   3.915 -0.1261 -0.4680 -0.8944
   79MOL    C1711093   7.481   6.547   4.018 -0.1692 -0.0083  0.9501
   79MOL    O1811094   7.453   6.426   4.085 -0.0789 -0.2809  0.0625
   79MOL    H1911095   7.611   6.602   3.859 -0.2460  1.1979  1.5945
   79MOL    H2011096   7.542   6.432   3.854  0.6259  0.4540 -2.6336
   79MOL    H2111097   7.391   6.583   3.969  0.1245 -0.7566 -0.1582
   79MOL    H2211098   7.507   6.626   4.089  0.6753 -0.5687  1.2695
   79MOL    C2311099   7.361   6.426   4.190  0.3228 -0.5743 -0.1368
   79MOL    C2411100   7.218   6.414   4.147 -0.4075 -0.2721 -0.2441
   79MOL    O2511101   7.173   6.522   4.065  0.2755 -0.2724 -0.4597
   79MOL    H2611102   7.388   6.342   4.253 -0.9705 -0.4480  0.6307
   79MOL    H2711103   7.383   6.520   4.242  0.3294 -0.2778 -0.6732
   79MOL    H2811104   7.149   6.405   4.230 -1.0960  0.3230 -0.7475
   79MOL    H2911105   7.206   6.325   4.086  0.5663  0.4398 -1.5008
   79MOL    C3011106   7.037   6.512   4.032  0.3964 -0.2970 -0.2770
   79MOL    C3111107   6.996   6.625   3.941  0.0878  0.2295 -1.0852
   79MOL    O3211108   7.047   6.606   3.810 -0.1880  0.3625 -0.3241
   79MOL    H3311109   7.016   6.416   3.985  0.6260  0.1364 -1.2614
   79MOL    H3411110   6.979   6.517   4.125  2.1009  2.2940  0.6820
   79MOL    H3511111   7.030   6.714   3.996 -1.6178 -0.0110  0.4031
   79MOL    H3611112   6.890   6.643   3.925  0.4379  1.6892 -1.8782
   79MOL    C3711113   7.052   6.729   3.736 -0.1466 -0.2853  0.0546
   79MOL    C3811114   7.093   6.706   3.594  0.4311 -0.4924 -0.8152
   79MOL    O3911115   7.238   6.712   3.583 -0.2376  0.3355 -0.2196
   79MOL    H4011116   6.953   6.774   3.730  0.8928  1.8559 -2.1467
   79MOL    H4111117   7.120   6.801   3.782 -0.8133  0.7731 -0.5917
   79MOL    H4211118   7.064   6.784   3.524  2.3173  1.4144  0.4584
   79MOL    H4311119   7.057   6.611   3.553 -1.2924 -0.2071  0.0165
   79MOL    C4411120   7.284   6.712   3.450 -0.4380  0.1862 -0.0219
   79MOL    C4511121   7.430   6.688   3.438 -0.1003  0.1000  0.6506
   79MOL    O4611122   7.463   6.629   3.313 -0.4764  0.3718  0.7090
   79MOL    H4711123   7.232   6.640   3.387 -2.4067  0.0941  1.6507
   79MOL    H4811124   7.261   6.807   3.403  1.2205  1.5623  1.8637
   79MOL    H4911125   7.466   6.629   3.523 -0.4836 -2.9774 -1.2384
   79MOL    H5011126   7.483   6.782   3.452 -3.3459  2.1136 -0.1520
   79MOL    C5111127   7.579   6.551   3.314 -0.0751 -0.6577 -0.1784
   79MOL    C5211128   7.612   6.524   3.168 -0.1482  0.1974  0.6520
   79MOL    O5311129   7.661   6.640   3.096  0.1967  0.1472 -0.3744
   79MOL    H5411130   7.665   6.592   3.366 -0.5381 -0.8459  0.7499
   79MOL    H5511131   7.544   6.456   3.354 -1.7416  0.5390  1.3019
   79MOL    H5611132   7.521   6.488   3.119  0.3031  0.5760 -0.4928
   79MOL    H5711133   7.682   6.441   3.153  0.5652  0.9656 -0.3478
   79MOL    C5811134   7.680   6.607   2.956  0.4132 -0.0003  0.3733
   79MOL    C5911135   7.758   6.722   2.898  0.2122 -0.1702  0.0289
   79MOL    O6011136   7.745   6.735   2.752 -0.2825 -0.0234 -0.9395
   79MOL    H6111137   7.742   6.519   2.937  0.7639  0.3751 -0.2263
   79MOL    H6211138   7.586   6.595   2.903 -0.7379  0.0451  2.3606
   79MOL    H6311139   0.090   6.706   2.928  0.6271  1.8505 -0.2264
   79MOL    H6411140   7.720   6.814   2.942 -2.1955 -0.1611 -1.9245
   79MOL    C6511141   7.639   6.805   2.691  0.3302  0.6182 -0.0663
   79MOL    C6611142   7.670   6.804   2.544  0.3870 -0.2026  1.3014
   79MOL    O6711143   7.719   6.929   2.500 -0.8097 -0.3442 -0.5438
   79MOL    H6811144   7.547   6.750   2.712  0.9256 -0.2109  0.4050
   79MOL    H6911145   7.627   6.905   2.734 -0.4220  0.9775 -1.0906
   79MOL    H7011146   7.577   6.791   2.490  0.4904 -0.4084  1.1696
   79MOL    H7111147   7.735   6.718   2.526 -1.0176 -2.0749  4.7723
   79MOL    C7211148   7.760   6.930   2.366 -0.0047  0.7129 -0.2073
   79MOL    C7311149   7.651   7.001   2.278 -0.8170  0.0075  0.3668
   79MOL    O7411150   7.569   6.897   2.217 -0.8648  0.5898 -0.0835
   79MOL    H7511151   0.086   6.980   2.361  0.4342 -0.0966  0.0753
   79MOL    H7611152   7.768   6.826   2.334  0.8247  0.4836  0.7088
   79MOL    H7711153   7.704   7.056   2.201  3.1483 -0.5386  2.5585
   79MOL    H7811154   7.602   7.082   2.332  0.1145  1.7948 -1.4075
   79MOL    C7911155   7.564   6.910   2.073 -0.6223 -0.0503  1.1169
   79MOL    C8011156   7.691   6.868   1.990  0.0900 -0.4574 -0.2267
   79MOL    O8111157   7.706   6.729   2.014 -0.0263 -0.2295  0.8660
   79MOL    H8211158   7.480   6.847   2.043 -0.2723  0.5970 -1.3290
   79MOL    H8311159   7.541   7.015   2.055  1.8708  0.0922 -1.7095
   79MOL    H8411160   0.003   6.938   2.007  1.6007 -1.5670 -2.7272
   79MOL    H8511161   7.675   6.882   1.883  0.0177  1.7010  0.0322
   79MOL    C8611162   0.070   6.691   2.000  0.6064  0.0062  0.7798
   79MOL    C8711163   0.082   6.549   1.944  0.0124 -0.5157  0.1565
   79MOL    O8811164   0.067   6.563   1.800  0.5626 -0.2066  0.0238
   79MOL    H8911165   0.120   6.759   1.931  0.8850 -0.7580  0.2155
   79MOL    H9011166   0.110   6.708   2.100  1.3597  1.9472  0.1694
   79MOL    H9111167   7.762   6.508   1.987 -0.4046  1.2161  0.9597
   79MOL    H9211168   0.167   6.490   1.978  1.2652  0.3912 -1.3568
   79MOL    C9311169   0.069   6.426   1.746  0.1647  0.4479 -0.2582
   79MOL    C9411170   0.036   6.436   1.599 -0.3121 -0.4252  0.3432
   79MOL    O9511171   0.153   6.467   1.522 -0.0506 -0.1891 -0.6298
   79MOL    H9611172   0.167   6.380   1.740 -1.2858 -2.8154 -0.1677
   79MOL    H9711173   7.766   6.359   1.790  0.6466 -0.2934 -0.5698
   79MOL    H9811174   7.728   6.510   1.584 -0.1806 -0.4013 -0.2510
   79MOL    H9911175   7.756   6.347   1.562  0.9197 -0.4483 -1.4208
   79MOL   C10011176   0.122   6.485   1.386  0.3006  0.3505 -0.3559
   79MOL   C10111177   0.246   6.519   1.303  0.7516 -0.1673 -0.0870
   79MOL   O10211178   0.279   6.657   1.314  0.0278  0.4501 -0.1101
   79MOL   H10311179   0.060   6.406   1.343 -0.8612  0.8974  0.2811
   79MOL   H10411180   0.053   6.568   1.369 -0.1352 -0.3323 -2.0870
   79MOL   H10511181   0.228   6.500   1.197  0.7520 -0.1097 -0.0977
   79MOL   H10611182   0.334   6.458   1.323  0.3782 -0.9171 -0.7292
   79MOL   C10711183   0.351   6.698   1.429  0.0245 -0.4848 -0.2084
   79MOL   C10811184   0.378   6.850   1.422  0.0571  0.6824 -0.0406
   79MOL   O10911185   0.492   6.889   1.345 -0.2417 -0.6143  0.2720
   79MOL   H11011186   0.293   6.667   1.516  1.1717 -0.7523  0.4601
   79MOL   H11111187   0.442   6.639   1.439  1.3570  1.4568 -0.5694
   79MOL   H11211188   0.383   6.893   1.522  0.5654 -0.4971  0.4374
   79MOL   H11311189   0.298   6.909   1.376  0.2266 -0.2232 -1.5238
   79MOL   C11411190   0.531   7.030   1.341  0.3734 -0.0078  1.0185
   79MOL   C11511191   0.545   7.088   1.482 -0.0364  0.5786  0.6330
   79MOL   O11611192   0.426   7.144   1.529 -0.5585  0.2872 -0.3235
   79MOL   H11711193   0.612   7.052   1.271 -0.8198  1.2492  0.0054
   79MOL   H11811194   0.451   7.086   1.292 -1.2777 -1.8608  1.4992
   79MOL   H11911195   0.620   7.167   1.483  1.0194 -0.3817 -0.1732
   79MOL   H12011196   0.589   7.004   1.536  0.6068 -0.1001 -0.9147
   79MOL   C12111197   0.427   7.206   1.653 -0.5895 -0.3288 -0.5530
   79MOL   C12211198   0.290   7.195   1.714 -0.4811 -0.4579 -0.4966
   79MOL   O12311199   0.252   7.062   1.754  0.4960  0.3283 -0.5830
   79MOL   H12411200   0.493   7.163   1.729  0.3501 -2.0753 -2.3015
   79MOL   H12511201   0.455   7.311   1.647 -0.7351 -0.2085  0.6164
   79MOL   H12611202   0.217   7.233   1.643 -1.6735  1.0670  1.5074
   79MOL   H12711203   0.286   7.264   1.798 -1.3225 -0.0243 -0.8963
   79MOL   C12811204   0.302   7.014   1.878  0.4896  0.7526 -0.3672
   79MOL   C12911205   0.382   6.883   1.855 -0.1088  0.2912  0.8966
   79MOL   O13011206   0.398   6.815   1.975  0.0228  0.6524 -0.6076
   79MOL   H13111207   0.351   7.088   1.941 -0.5992 -0.7193  2.2498
   79MOL   H13211208   0.213   6.993   1.937  1.2464 -0.6207  0.2904
   79MOL   H13311209   0.476   6.892   1.801  0.0787  1.2778  1.3709
   79MOL   H13411210   0.324   6.820   1.787 -1.2177  2.4702 -0.2177
   79MOL   C13511211   0.430   6.676   1.964  0.8702  0.0417  0.0882
   79MOL   C13611212   0.426   6.616   2.104  0.7021 -0.1029  0.1004
   79MOL   O13711213   0.552   6.624   2.173  0.1228  0.5959  0.6339
   79MOL   H13811214   0.347   6.641   1.903 -1.7865  1.1837  2.8925
   79MOL   H13911215   0.515   6.654   1.901  0.1418 -3.0763  0.0817
   79MOL   H14011216   0.417   6.508   2.104  1.9904 -0.2388 -1.3934
   79MOL   H14111217   0.354   6.660   2.173  0.0854 -0.4467 -0.3273
   79MOL   H14211218   0.605   6.701   2.161  0.0984  0.0425 -3.9763
   80MOL     C111219   5.853   4.688   2.536 -0.5040  0.3266  0.2491
   80MOL     C211220   5.962   4.592   2.577  0.5591 -0.5596 -0.6885
   80MOL     O311221   5.974   4.612   2.719 -0.0899  0.3660  0.2559
   80MOL     H411222   5.859   4.717   2.431  0.2003  0.2305  0.2562
   80MOL     H511223   5.868   4.779   2.593  2.1123  1.0827 -1.5170
   80MOL     H611224   6.063   4.600   2.535  1.0624  1.0565  0.7691
   80MOL     H711225   5.915   4.496   2.554 -3.6081  1.4231 -0.8691
   80MOL     H811226   5.751   4.654   2.553  0.2125 -1.9191  0.2124
   80MOL     C911227   6.056   4.508   2.783  0.2638 -0.3320 -0.2415
   80MOL    C1011228   6.084   4.539   2.925 -1.1406  0.1420 -0.2225
   80MOL    O1111229   6.149   4.424   2.991  0.3546 -0.4603 -0.5300
   80MOL    H1211230   6.013   4.409   2.772  1.5063 -0.7391 -1.5266
   80MOL    H1311231   6.157   4.510   2.742  0.0496  0.9867 -0.7490
   80MOL    H1411232   5.985   4.558   2.966 -0.6048 -1.1093  1.7091
   80MOL    H1511233   6.142   4.631   2.935 -1.7441  0.2527  2.9875
   80MOL    C1611234   6.162   4.468   3.124  0.8145 -0.0777 -0.2008
   80MOL    C1711235   6.230   4.379   3.227 -0.5838 -0.1835 -0.7759
   80MOL    O1811236   6.224   4.443   3.358  0.7543  0.5225 -0.4149
   80MOL    H1911237   6.232   4.551   3.115  3.3450 -2.3008 -1.5490
   80MOL    H2011238   6.072   4.511   3.168 -1.0276 -1.5991 -2.3688
   80MOL    H2111239   6.334   4.369   3.197 -0.0045  1.7578  0.4981
   80MOL    H2211240   6.182   4.281   3.233  1.9421 -1.5124 -1.3879
   80MOL    C2311241   6.353   4.443   3.423 -0.1307  0.0079  0.2551
   80MOL    C2411242   6.343   4.478   3.573  0.0126 -0.3079  0.0700
   80MOL    O2511243   6.312   4.613   3.592 -0.0876  0.0112 -0.0699
   80MOL    H2611244   6.395   4.343   3.417  0.0195  0.0704  0.2713
   80MOL    H2711245   6.423   4.513   3.376 -1.9790  0.9676 -1.1682
   80MOL    H2811246   6.442   4.449   3.608  0.3235  1.3731  0.6217
   80MOL    H2911247   6.264   4.415   3.613  0.4105  0.3315  1.9033
   80MOL    C3011248   6.311   4.662   3.731  0.2260 -0.1145 -0.1694
   80MOL    C3111249   6.245   4.801   3.744 -0.0939  0.4069 -0.2617
   80MOL    O3211250   6.110   4.785   3.795  0.2971 -0.4379  0.4356
   80MOL    H3311251   6.248   4.592   3.786 -0.2117 -0.7090 -1.4083
   80MOL    H3411252   6.405   4.667   3.787  0.8633  1.3965 -1.3421
   80MOL    H3511253   6.241   4.848   3.646 -3.0982  1.6592  0.4022
   80MOL    H3611254   6.295   4.868   3.814 -2.9561  1.9914  0.3406
   80MOL    C3711255   6.044   4.913   3.794 -0.6012  0.5334  0.0815
   80MOL    C3811256   5.958   4.916   3.915  0.3592 -0.2432  0.4885
   80MOL    O3911257   6.040   4.951   4.025  0.2875  0.0998  0.1232
   80MOL    H4011258   6.112   4.998   3.784 -0.4132  0.4234  0.4183
   80MOL    H4111259   5.995   4.931   3.698 -0.4492  1.2564  0.1379
   80MOL    H4211260   5.910   4.819   3.923  1.4699 -0.7394  1.4206
   80MOL    H4311261   5.876   4.985   3.896  0.5088  0.1343  1.1656
   80MOL    C4411262   5.968   4.944   4.151  0.2286 -0.5108  0.0447
   80MOL    C4511263   6.052   4.969   4.272  0.5008  0.3467 -0.0821
   80MOL    O4611264   5.984   4.977   4.400 -0.3532  0.0612  0.0904
   80MOL    H4711265   5.889   5.020   4.143  1.5468  0.8249 -0.5999
   80MOL    H4811266   5.918   4.848   4.153 -0.8204  0.0410  2.0905
   80MOL    H4911267   6.102   5.066   4.265 -0.8569  1.1603  1.2751
   80MOL    H5011268   6.136   4.901   4.258  0.4864  0.7047 -2.0943
   80MOL    C5111269   5.929   4.855   4.450 -0.6227 -0.5473  0.5770
   80MOL    C5211270   5.853   4.899   4.579 -0.2447  0.4044  0.5745
   80MOL    O5311271   5.722   4.942   4.547  0.0019 -0.3249  0.2818
   80MOL    H5411272   5.860   4.810   4.379  0.5284 -0.3989 -0.6323
   80MOL    H5511273   6.000   4.774   4.466  0.6483  0.3440 -0.4735
   80MOL    H5611274   5.902   4.966   4.648  0.1391  0.9193 -0.1906
   80MOL    H5711275   5.834   4.814   4.645 -1.9382  0.5659  0.3145
   80MOL    C5811276   5.713   5.068   4.479  0.2036 -0.9995 -0.2177
   80MOL    C5911277   5.561   5.111   4.475  0.6524  0.0100  0.9058
   80MOL    O6011278   5.551   5.236   4.407  0.3892  0.1108  0.1970
   80MOL    H6111279   5.769   5.149   4.525  0.9985 -2.6003  1.6698
   80MOL    H6211280   5.739   5.053   4.374 -0.3720 -1.1749 -0.3387
   80MOL    H6311281   5.523   5.118   4.577  1.2592 -0.5685  1.1790
   80MOL    H6411282   5.514   5.029   4.421 -0.5622  1.5912 -0.4759
   80MOL    C6511283   5.419   5.276   4.373 -0.4320  0.0633 -0.5346
   80MOL    C6611284   5.430   5.424   4.333 -0.2193 -0.1713 -0.3628
   80MOL    O6711285   5.451   5.433   4.196  0.1179  0.7951 -0.2088
   80MOL    H6811286   5.380   5.206   4.299 -1.8397 -0.1578  0.3942
   80MOL    H6911287   5.358   5.266   4.463 -0.3849 -0.4261 -0.5577
   80MOL    H7011288   5.507   5.484   4.383  0.1271  1.6956 -3.0740
   80MOL    H7111289   5.333   5.471   4.348 -0.6201 -1.0857 -0.0425
   80MOL    C7211290   5.586   5.405   4.157  1.1682 -0.5718  0.1004
   80MOL    C7311291   5.593   5.410   4.004 -0.3346  0.1984 -0.3175
   80MOL    O7411292   5.583   5.538   3.956  0.4466 -1.0292  0.6832
   80MOL    H7511293   5.647   5.481   4.206  0.2723  0.9392 -1.0797
   80MOL    H7611294   5.623   5.306   4.185  2.1609 -0.3859 -0.5563
   80MOL    H7711295   5.515   5.354   3.955 -1.3011  0.2870  1.0799
   80MOL    H7811296   5.692   5.373   3.975 -0.4662 -0.7006  0.3560
   80MOL    C7911297   5.704   5.616   3.957  0.0009  0.3699 -0.5094
   80MOL    C8011298   5.669   5.756   3.899 -0.3221  0.6374 -1.1124
   80MOL    O8111299   5.792   5.821   3.875 -0.1544 -0.2094 -1.0330
   80MOL    H8211300   5.762   5.626   4.049  1.0267 -0.9342 -1.0043
   80MOL    H8311301   5.768   5.565   3.885 -1.0386 -0.5910 -0.7635
   80MOL    H8411302   5.617   5.811   3.978 -2.5405 -0.7470 -1.5707
   80MOL    H8511303   5.605   5.736   3.813 -0.3859 -0.7655 -0.7564
   80MOL    C8611304   5.782   5.954   3.824  0.3139  0.7818  0.4820
   80MOL    C8711305   5.925   6.005   3.775 -0.3817 -0.2718 -0.2405
   80MOL    O8811306   5.995   6.066   3.880 -0.0290  0.4401 -0.1395
   80MOL    H8911307   5.721   5.943   3.734 -1.2402  1.5191  1.4147
   80MOL    H9011308   5.734   6.023   3.893 -1.5977  2.1122 -2.1042
   80MOL    H9111309   5.914   6.093   3.711 -0.1438  1.0961  1.5662
   80MOL    H9211310   5.976   5.930   3.714 -0.6662 -1.3280  0.8282
   80MOL    C9311311   6.127   6.086   3.845  0.4283  0.0238 -0.5314
   80MOL    C9411312   6.186   6.182   3.942  0.0863  0.4744  0.6701
   80MOL    O9511313   6.242   6.109   4.053 -0.3651  0.4690 -0.3972
   80MOL    H9611314   6.192   5.999   3.856  3.6095  2.4069  0.4311
   80MOL    H9711315   6.144   6.131   3.747 -0.4935  0.2664 -0.5756
   80MOL    H9811316   6.105   6.249   3.969 -0.2394  0.5378 -0.4583
   80MOL    H9911317   6.263   6.239   3.890 -0.2749  1.6089  1.3498
   80MOL   C10011318   6.269   6.211   4.150  0.0907  1.0649 -0.4356
   80MOL   C10111319   6.313   6.148   4.278  0.4621  0.4626  0.9008
   80MOL   O10211320   6.453   6.137   4.259  0.4684 -0.1044  0.2627
   80MOL   H10311321   6.346   6.285   4.129 -0.1963  1.3455 -0.4906
   80MOL   H10411322   6.174   6.258   4.175 -1.1774 -2.3245  1.3804
   80MOL   H10511323   6.269   6.053   4.307 -1.0750  0.5605 -0.9715
   80MOL   H10611324   6.287   6.205   4.368 -1.3721 -0.0859  0.7521
   80MOL   C10711325   6.509   6.092   4.384  0.5519  0.2798  0.5075
   80MOL   C10811326   6.652   6.027   4.360  0.6508  0.3436 -0.0479
   80MOL   O10911327   6.734   6.129   4.326 -0.2843  0.2689 -0.0873
   80MOL   H11011328   6.500   6.182   4.445  0.9329  0.4153  0.3612
   80MOL   H11111329   6.450   6.019   4.440 -1.9881 -1.3452 -4.0046
   80MOL   H11211330   6.646   5.964   4.271  0.0857  0.1484  0.1311
   80MOL   H11311331   6.685   5.969   4.446  0.1006  0.7067  0.4090
   80MOL   C11411332   6.785   6.193   4.445 -0.6171 -0.0682 -0.0242
   80MOL   C11511333   6.904   6.280   4.408  0.1833  0.4892  0.2617
   80MOL   O11611334   7.035   6.224   4.423 -0.3442  0.5212 -0.1681
   80MOL   H11711335   6.711   6.261   4.487 -0.5838 -0.7518  1.1527
   80MOL   H11811336   6.827   6.129   4.522 -1.1634 -0.8185 -0.3471
   80MOL   H11911337   6.877   6.373   4.459  0.5915 -0.8795  3.0518
   80MOL   H12011338   6.888   6.315   4.306 -3.1006 -1.8506 -0.0800
   80MOL   C12111339   7.053   6.081   4.403 -0.3515  0.1327 -0.0025
   80MOL   C12211340   7.192   6.050   4.378 -0.3712 -0.2260 -0.0354
   80MOL   O12311341   7.234   6.092   4.250 -0.6265 -0.0943 -0.0457
   80MOL   H12411342   7.014   6.032   4.492  0.4231  0.6748  0.6421
   80MOL   H12511343   6.992   6.055   4.317 -0.6830  1.2314 -0.1081
   80MOL   H12611344   7.205   5.942   4.373  2.9652  0.1429 -0.7337
   80MOL   H12711345   7.253   6.091   4.459 -0.4199 -1.1042  0.4503
   80MOL   C12811346   7.369   6.064   4.215  0.5015 -0.3312 -0.3134
   80MOL   C12911347   7.381   5.922   4.168  0.4133  0.1321  0.7583
   80MOL   O13011348   7.370   5.833   4.283  0.0671 -0.0266  0.5548
   80MOL   H13111349   7.393   6.127   4.129  1.3773 -0.6858 -0.3302
   80MOL   H13211350   7.431   6.093   4.300  1.4865 -1.3836 -0.6720
   80MOL   H13311351   7.482   5.913   4.127  0.7672  0.3213  1.5728
   80MOL   H13411352   7.317   5.903   4.082  1.0794  1.9916 -0.1709
   80MOL   C13511353   7.339   5.703   4.241 -0.1540  0.5564 -0.4006
   80MOL   C13611354   7.328   5.604   4.357  0.4082 -0.5892  0.4184
   80MOL   O13711355   7.237   5.501   4.322 -0.1384 -0.0021  0.0633
   80MOL   H13811356   7.247   5.718   4.185 -0.7512  0.2957  0.5127
   80MOL   H13911357   7.422   5.678   4.175  0.7359  0.2304  0.8237
   80MOL   H14011358   7.291   5.651   4.448 -1.3830  0.6481 -0.8973
   80MOL   H14111359   7.424   5.559   4.380  0.8630  1.4310  2.6457
   80MOL   H14211360   7.241   5.426   4.380 -0.3850 -1.1104 -1.3101
   81MOL     C111361   2.263   0.341   3.483 -0.1464 -0.4373 -0.0011
   81MOL     C211362   2.183   0.418   3.587  0.4254 -0.7289  0.0272
   81MOL     O311363   2.062   0.460   3.538 -0.0437  0.1181  0.0360
   81MOL     H411364   2.214   0.252   3.444  1.2668 -1.3214  0.1993
   81MOL     H511365   2.362   0.309   3.516  0.3939  0.6642 -0.5513
   81MOL     H611366   2.237   0.511   3.601  0.1835 -0.1685 -2.4557
   81MOL     H711367   2.175   0.362   3.681  1.1407  1.0323  1.1464
   81MOL     H811368   2.274   0.401   3.392 -0.6976 -0.7584 -0.2798
   81MOL     C911369   1.994   0.533   3.632  0.4893  0.1772  0.3728
   81MOL    C1011370   1.870   0.586   3.571  0.3801 -0.1963  0.3743
   81MOL    O1111371   1.881   0.728   3.540 -0.5448  0.4132 -0.3166
   81MOL    H1211372   1.966   0.476   3.721 -2.6502  1.6795  0.4034
   81MOL    H1311373   2.051   0.616   3.673 -1.4017  2.3719 -1.3048
   81MOL    H1411374   1.784   0.579   3.638  0.4768  1.2565  0.6620
   81MOL    H1511375   1.843   0.531   3.482 -0.0127  0.8762 -0.1781
   81MOL    C1611376   1.752   0.792   3.498  0.7674  0.2807  0.5369
   81MOL    C1711377   1.771   0.928   3.443  0.7547  0.0432  0.2946
   81MOL    O1811378   1.656   0.954   3.364 -0.1109  0.0187 -0.1752
   81MOL    H1911379   1.736   0.728   3.412 -1.1478 -0.1127  1.1582
   81MOL    H2011380   1.666   0.786   3.564 -2.3733  2.5126 -3.1506
   81MOL    H2111381   1.851   0.929   3.369  0.3096 -1.4771 -0.2317
   81MOL    H2211382   1.787   1.002   3.521  1.2859  0.3642 -0.1115
   81MOL    C2311383   1.554   1.034   3.424 -0.0987 -0.3934 -0.0135
   81MOL    C2411384   1.429   1.040   3.343 -0.0263 -0.9783  1.0443
   81MOL    O2511385   1.343   0.927   3.373 -0.3041  0.4976  0.7314
   81MOL    H2611386   1.544   1.012   3.530  0.2452 -0.4188  0.0152
   81MOL    H2711387   1.587   1.138   3.430  0.3974 -0.5341 -0.2588
   81MOL    H2811388   1.444   1.034   3.235  0.6017  0.7022  1.0235
   81MOL    H2911389   1.365   1.127   3.362 -0.7101 -1.2911  0.2155
   81MOL    C3011390   1.377   0.813   3.299  0.3287 -0.7033  0.1171
   81MOL    C3111391   1.321   0.693   3.375 -0.3622  0.4272 -0.1755
   81MOL    O3211392   1.426   0.656   3.465 -0.3456 -0.7173  0.2765
   81MOL    H3311393   1.333   0.814   3.199  2.6104 -1.4087 -0.9237
   81MOL    H3411394   1.481   0.794   3.276  0.3838  0.1970 -0.3815
   81MOL    H3511395   1.313   0.602   3.316  2.0422  0.2090 -0.2213
   81MOL    H3611396   1.232   0.722   3.431  0.3697 -1.6150  2.1646
   81MOL    C3711397   1.387   0.543   3.541 -0.1292 -0.3901  0.7387
   81MOL    C3811398   1.464   0.420   3.497  0.6288 -0.0316  0.3313
   81MOL    O3911399   1.414   0.388   3.374  0.3968  0.0580 -0.3598
   81MOL    H4011400   1.380   0.566   3.648 -3.4795  0.5297  0.3832
   81MOL    H4111401   1.283   0.513   3.524  0.5582 -2.0587 -0.5791
   81MOL    H4211402   1.452   0.335   3.565 -0.3555 -0.8721 -0.8709
   81MOL    H4311403   1.572   0.437   3.501  0.3314  1.9240  0.6457
   81MOL    C4411404   1.511   0.341   3.282 -0.3563  0.2605 -0.4624
   81MOL    C4511405   1.616   0.444   3.234 -0.3962  0.4441 -0.3503
   81MOL    O4611406   1.561   0.532   3.140 -0.3545  0.5223 -0.7877
   81MOL    H4711407   1.572   0.262   3.325  0.5368  2.2521  2.0750
   81MOL    H4811408   1.452   0.301   3.200 -1.8120 -1.4361  1.3556
   81MOL    H4911409   1.695   0.382   3.191 -1.6246 -1.0770 -0.4561
   81MOL    H5011410   1.670   0.497   3.313 -1.1837 -1.0966  1.2600
   81MOL    C5111411   1.644   0.630   3.091  0.1145 -0.3690  0.1723
   81MOL    C5211412   1.751   0.570   3.004 -0.0004  0.0285 -0.2199
   81MOL    O5311413   1.861   0.515   3.081  0.2034 -0.6737 -0.1583
   81MOL    H5411414   1.566   0.691   3.045  0.1864  0.1385  0.7175
   81MOL    H5511415   1.683   0.689   3.174  1.4567  0.2011 -0.8256
   81MOL    H5611416   1.784   0.640   2.928  1.4065  0.9251  1.1846
   81MOL    H5711417   1.707   0.485   2.952  0.1442 -0.0571 -0.2038
   81MOL    C5811418   1.956   0.613   3.128  0.4006 -0.6457  0.9848
   81MOL    C5911419   2.026   0.547   3.246 -0.6500  0.1072  0.8880
   81MOL    O6011420   2.144   0.484   3.197 -0.2796 -0.2035 -0.1079
   81MOL    H6111421   2.017   0.652   3.047  0.6646 -2.2551  0.3952
   81MOL    H6211422   1.902   0.701   3.163  2.3309  0.9102  0.1525
   81MOL    H6311423   1.966   0.476   3.303 -0.6188 -0.7979 -0.2104
   81MOL    H6411424   2.061   0.620   3.319  0.4559  0.4932 -0.0148
   81MOL    C6511425   2.123   0.367   3.116  0.0334 -0.3459  0.1738
   81MOL    C6611426   2.253   0.291   3.085 -0.0818 -0.1208 -0.1236
   81MOL    O6711427   2.331   0.351   2.978 -0.1680  0.6423  0.3523
   81MOL    H6811428   2.062   0.293   3.168  0.8627 -1.5717 -0.5809
   81MOL    H6911429   2.071   0.394   3.025  0.7067  1.6412  0.3578
   81MOL    H7011430   2.236   0.186   3.060 -1.8735  0.5077 -1.6685
   81MOL    H7111431   2.319   0.291   3.172 -3.0018  0.6790  2.1869
   81MOL    C7211432   2.423   0.260   2.923  0.0403 -0.2162  0.9772
   81MOL    C7311433   2.531   0.319   2.830  0.4861 -0.5762 -0.0999
   81MOL    O7411434   2.470   0.326   2.699  0.2537 -0.1177  0.3352
   81MOL    H7511435   2.463   0.191   2.997 -0.5090 -1.3535  0.2278
   81MOL    H7611436   2.369   0.185   2.865 -1.0084 -0.4207  2.2019
   81MOL    H7711437   2.613   0.248   2.827  0.4250 -0.6066 -1.7946
   81MOL    H7811438   2.560   0.416   2.870 -0.6082 -1.1398  2.1131
   81MOL    C7911439   2.545   0.396   2.603  0.7755 -0.7219 -0.2810
   81MOL    C8011440   2.451   0.401   2.483 -0.1987  0.0697  0.3568
   81MOL    O8111441   2.407   0.273   2.443  0.0182  0.6624 -0.2109
   81MOL    H8211442   2.570   0.498   2.631  0.6101 -1.1562  1.4684
   81MOL    H8311443   2.634   0.336   2.583  2.4777  0.5942  3.0907
   81MOL    H8411444   2.498   0.458   2.404  0.5822  0.9738  1.4628
   81MOL    H8511445   2.360   0.455   2.510 -1.3937 -0.8055 -1.7827
   81MOL    C8611446   2.342   0.277   2.321  0.6395 -0.6474 -0.6311
   81MOL    C8711447   2.314   0.132   2.280 -0.4459  0.5643  0.0906
   81MOL    O8811448   2.188   0.105   2.215 -0.4053 -0.4224 -0.7730
   81MOL    H8911449   2.248   0.331   2.335  0.9656 -0.5977  1.4262
   81MOL    H9011450   2.417   0.327   2.260  0.7956  0.0456  0.1189
   81MOL    H9111451   2.313   0.073   2.372  1.5595  1.0937  0.4724
   81MOL    H9211452   2.401   0.094   2.228  1.4655 -0.5187  3.8844
   81MOL    C9311453   2.170   7.740   2.180 -0.1623  1.0738 -0.1099
   81MOL    C9411454   2.024   7.724   2.155 -0.4402 -0.0936  0.2082
   81MOL    O9511455   1.971   7.671   2.282  0.4805  1.2393 -0.4710
   81MOL    H9611456   2.220   7.729   2.084  0.6670  0.2990  0.4075
   81MOL    H9711457   2.198   7.657   2.244  0.5085 -1.4794 -3.6001
   81MOL    H9811458   2.017   7.639   2.087 -1.1922  1.4605 -1.7181
   81MOL    H9911459   1.973   0.042   2.118  0.2400  0.0185 -0.4597
   81MOL   C10011460   1.973   7.762   2.390  0.2401 -0.1645  0.1842
   81MOL   C10111461   1.862   7.706   2.483 -0.2232 -0.2350  0.0903
   81MOL   O10211462   1.887   7.572   2.519 -0.3713 -0.2362 -0.0556
   81MOL   H10311463   2.071   7.757   2.437  0.5432  2.4663 -0.0949
   81MOL   H10411464   1.949   0.095   2.372  1.4617  0.6166  2.8058
   81MOL   H10511465   1.770   7.702   2.425  0.9993 -0.3842 -1.9160
   81MOL   H10611466   1.860   0.002   2.569 -1.8395 -0.9259  0.6080
   81MOL   C10711467   1.801   7.522   2.613 -0.3418  0.0348 -0.1878
   81MOL   C10811468   1.796   7.370   2.582 -1.0595 -0.3010  0.2375
   81MOL   O10911469   1.718   7.369   2.464 -0.3239 -0.4663 -0.1017
   81MOL   H11011470   1.843   7.552   2.709  0.6060  1.3533 -1.0056
   81MOL   H11111471   1.702   7.568   2.617 -1.3405 -2.1754  2.0547
   81MOL   H11211472   1.739   7.318   2.659 -0.2684 -0.9397  0.4027
   81MOL   H11311473   1.891   7.316   2.577 -1.1261 -0.4268  0.3243
   81MOL   C11411474   1.698   7.242   2.402 -0.2505  0.1272  0.0204
   81MOL   C11511475   1.612   7.163   2.496 -0.2610 -0.4127 -0.0432
   81MOL   O11611476   1.534   7.065   2.427  0.0448 -0.0777  0.1027
   81MOL   H11711477   1.646   7.260   2.308 -1.5364 -0.2664  0.6589
   81MOL   H11811478   1.790   7.188   2.380 -0.2791  1.1957 -3.0107
   81MOL   H11911479   1.541   7.232   2.541 -1.4275 -0.4874 -1.7099
   81MOL   H12011480   1.666   7.124   2.582  0.5142 -3.0237 -1.6379
   81MOL   C12111481   1.588   6.935   2.415  0.2394 -0.2237  0.4058
   81MOL   C12211482   1.505   6.858   2.317 -0.4314 -0.2640 -0.1918
   81MOL   O12311483   1.382   6.803   2.374  0.1271  0.0298  0.0896
   81MOL   H12411484   1.690   6.940   2.378 -0.4195  0.6528 -1.3556
   81MOL   H12511485   1.595   6.878   2.507 -0.8869 -1.3717 -0.2040
   81MOL   H12611486   1.564   6.770   2.290 -0.7917 -1.5991  3.0780
   81MOL   H12711487   1.496   6.921   2.229  1.3310  0.3255  0.0305
   81MOL   C12811488   1.269   6.871   2.318 -0.3065  0.0552 -0.8757
   81MOL   C12911489   1.139   6.800   2.360 -0.8348  0.0529  0.5308
   81MOL   O13011490   1.022   6.854   2.297 -0.2165 -0.1292  0.6212
   81MOL   H13111491   1.261   6.973   2.357  2.5933 -0.3850  0.9907
   81MOL   H13211492   1.276   6.875   2.210 -0.3581 -0.8387 -0.9105
   81MOL   H13311493   1.132   6.815   2.468 -0.7322  3.1264  0.1521
   81MOL   H13411494   1.146   6.693   2.339  0.1339  0.6796 -2.5532
   81MOL   C13511495   0.910   6.779   2.334  0.1597 -0.9301 -0.4225
   81MOL   C13611496   0.784   6.858   2.298 -0.0024 -0.1659 -0.7826
   81MOL   O13711497   0.748   6.849   2.160 -0.3214 -0.1776  0.5443
   81MOL   H13811498   0.904   6.682   2.284  0.0658 -0.4732 -1.3067
   81MOL   H13911499   0.905   6.765   2.442 -0.5576 -0.9383 -0.4509
   81MOL   H14011500   0.796   6.962   2.327  1.1265  0.2112 -2.5860
   81MOL   H14111501   0.697   6.820   2.352 -0.8439 -0.9165 -2.6406
   81MOL   H14211502   0.820   6.881   2.109 -0.0213 -0.6101  0.6903
   82MOL     C111503   7.172   6.593   4.535  0.6035  0.2464  0.2258
   82MOL     C211504   7.153   6.672   4.408  0.5207  0.1338  0.3789
   82MOL     O311505   7.021   6.724   4.392 -0.0270  0.2664 -0.2624
   82MOL     H411506   7.100   6.511   4.529  0.7889  0.1597 -0.8527
   82MOL     H511507   7.163   6.656   4.624  2.0952  1.5295 -0.5098
   82MOL     H611508   7.177   6.613   4.320  1.2232 -0.2524  0.8204
   82MOL     H711509   7.220   6.759   4.399 -0.5869  0.9294 -0.2320
   82MOL     H811510   7.268   6.543   4.524  0.8253  0.7257 -0.0301
   82MOL     C911511   6.998   6.817   4.283 -0.4371  0.5959 -0.2329
   82MOL    C1011512   6.981   6.951   4.349 -0.4198 -0.0976 -0.0448
   82MOL    O1111513   6.852   6.998   4.325 -0.3624 -0.0542  0.1037
   82MOL    H1211514   7.075   6.835   4.208  0.2927  1.2465  0.6590
   82MOL    H1311515   6.906   6.795   4.229  0.2174  2.4073 -2.1701
   82MOL    H1411516   7.044   7.027   4.304  0.6700 -1.0293 -0.1413
   82MOL    H1511517   7.006   6.957   4.455 -0.0904 -0.1649 -0.1203
   82MOL    C1611518   6.747   6.923   4.384 -0.1225  0.0843  0.2712
   82MOL    C1711519   6.622   6.905   4.302 -0.5739  0.0986 -0.1439
   82MOL    O1811520   6.635   6.782   4.241 -0.1429  0.5958  0.3556
   82MOL    H1911521   6.785   6.824   4.410  1.7344  0.3888 -1.1803
   82MOL    H2011522   6.723   6.976   4.476 -0.9294 -0.2132  0.2365
   82MOL    H2111523   6.606   6.988   4.233  0.6463 -0.6596 -1.3702
   82MOL    H2211524   6.537   6.893   4.369 -0.1996 -3.6314 -0.2216
   82MOL    C2311525   6.529   6.748   4.155  0.4886 -0.0040  0.2603
   82MOL    C2411526   6.557   6.625   4.062 -0.2251  0.3275 -0.4925
   82MOL    O2511527   6.534   6.506   4.133  0.4656  0.3001 -0.4711
   82MOL    H2611528   6.434   6.734   4.205 -0.1785  2.8291 -0.1413
   82MOL    H2711529   6.506   6.831   4.087 -0.2660  0.4719  1.0814
   82MOL    H2811530   6.659   6.632   4.024 -0.1201 -1.3469 -0.5515
   82MOL    H2911531   6.495   6.614   3.973  0.7895 -1.0309 -1.0449
   82MOL    C3011532   6.646   6.421   4.144  0.3620  0.2028  0.9438
   82MOL    C3111533   6.680   6.333   4.018  0.2162 -0.6043  0.1502
   82MOL    O3211534   6.754   6.410   3.934 -0.9384 -0.1656  0.1251
   82MOL    H3311535   6.744   6.456   4.178  0.1275  0.0636  1.7839
   82MOL    H3411536   6.620   6.357   4.228  1.6977 -1.9268 -0.2233
   82MOL    H3511537   6.591   6.288   3.975  0.2138 -0.8210  0.3840
   82MOL    H3611538   6.743   6.258   4.065  2.6173  1.7294  0.8010
   82MOL    C3711539   6.776   6.338   3.810  0.2474  0.1324 -0.1410
   82MOL    C3811540   6.776   6.429   3.691 -0.3637 -0.3143 -0.5080
   82MOL    O3911541   6.645   6.430   3.637  0.4107 -0.1690  0.7408
   82MOL    H4011542   6.871   6.285   3.812 -0.5731 -1.4895 -2.1475
   82MOL    H4111543   6.726   6.246   3.779  0.4421 -0.0309  0.0319
   82MOL    H4211544   6.857   6.381   3.637  0.0406 -1.3104  0.9528
   82MOL    H4311545   6.815   6.528   3.714  0.0338 -0.9450  1.7012
   82MOL    C4411546   6.554   6.513   3.706  0.3802  0.1279 -0.0918
   82MOL    C4511547   6.433   6.548   3.619  0.1324 -0.0438  0.3589
   82MOL    O4611548   6.456   6.655   3.532  0.1517  0.0717 -0.2403
   82MOL    H4711549   6.507   6.460   3.788  0.8613  0.6393  0.5135
   82MOL    H4811550   6.602   6.609   3.724 -1.6965  1.1110  0.3620
   82MOL    H4911551   6.358   6.582   3.691 -0.8035  0.4627 -0.8411
   82MOL    H5011552   6.400   6.457   3.568 -2.6121  0.6728  0.7434
   82MOL    C5111553   6.332   6.724   3.509 -0.3311 -0.8908  0.3204
   82MOL    C5211554   6.355   6.842   3.417 -0.5387 -0.2735  0.9198
   82MOL    O5311555   6.365   6.790   3.287  0.0984  0.6206  0.0534
   82MOL    H5411556   6.259   6.655   3.467 -0.8262 -0.0882 -0.1519
   82MOL    H5511557   6.281   6.752   3.601 -1.2585 -1.7170  0.0711
   82MOL    H5611558   6.438   6.901   3.456 -0.1563 -2.1545  3.1373
   82MOL    H5711559   6.273   6.914   3.420 -1.0833 -0.7046 -2.1863
   82MOL    C5811560   6.321   6.879   3.181  0.1153 -0.0224  0.4520
   82MOL    C5911561   6.377   6.820   3.049 -0.3258  1.4412  0.3037
   82MOL    O6011562   6.270   6.836   2.955  0.0437  0.2827  0.1322
   82MOL    H6111563   6.212   6.881   3.183  0.1134  0.0722  0.2446
   82MOL    H6211564   6.364   6.979   3.190  0.7350 -0.4284  2.1834
   82MOL    H6311565   6.412   6.718   3.063 -1.4308  1.0024 -0.0986
   82MOL    H6411566   6.464   6.872   3.008  0.6685 -0.6403 -0.2661
   82MOL    C6511567   6.284   6.786   2.820  0.1680  0.6805  0.0216
   82MOL    C6611568   6.405   6.842   2.755 -0.3268 -0.1039  0.2843
   82MOL    O6711569   6.402   6.839   2.612 -0.1593  0.5321 -0.0127
   82MOL    H6811570   6.296   6.678   2.832  1.2083  0.9187  1.1871
   82MOL    H6911571   6.191   6.810   2.767 -0.8633 -0.7059  1.1561
   82MOL    H7011572   6.480   6.769   2.784 -2.2941 -1.4473  2.1727
   82MOL    H7111573   6.431   6.942   2.791 -1.2858 -0.5251  2.2206
   82MOL    C7211574   6.337   6.951   2.556 -0.3841 -0.6091 -0.0876
   82MOL    C7311575   6.329   6.964   2.406 -0.3862  0.1173 -0.1856
   82MOL    O7411576   6.211   6.890   2.357 -0.5527 -0.5136  0.6416
   82MOL    H7511577   6.241   6.955   2.606  0.1095  0.6130  0.7635
   82MOL    H7611578   6.393   7.038   2.590  1.3806 -2.0441  0.7788
   82MOL    H7711579   6.425   6.926   2.371 -1.0753 -1.0208 -0.8718
   82MOL    H7811580   6.327   7.066   2.366 -0.6046 -0.1047 -0.7527
   82MOL    C7911581   6.227   6.844   2.221 -0.4862 -0.4204 -0.2535
   82MOL    C8011582   6.098   6.775   2.160 -0.7619 -0.2757 -0.4263
   82MOL    O8111583   6.070   6.652   2.235  0.1882  0.5984  0.0585
   82MOL    H8211584   6.230   6.933   2.158  1.9298 -1.5203 -1.7809
   82MOL    H8311585   6.321   6.789   2.209 -1.4823 -2.8914  2.6981
   82MOL    H8411586   6.110   6.764   2.053  0.2306 -0.7730 -0.2661
   82MOL    H8511587   6.014   6.845   2.163 -0.4548  0.0545  1.2671
   82MOL    C8611588   5.973   6.575   2.174 -0.1366  0.0847  0.0787
   82MOL    C8711589   5.949   6.448   2.252  0.7765  0.5649 -0.0857
   82MOL    O8811590   5.852   6.465   2.358  0.4905  0.2185 -0.3726
   82MOL    H8911591   5.882   6.632   2.158 -0.4365 -0.8684 -1.6760
   82MOL    H9011592   6.019   6.546   2.080  0.8545  1.9467 -0.0318
   82MOL    H9111593   6.041   6.402   2.289  0.3500 -0.0003  0.2886
   82MOL    H9211594   5.903   6.376   2.184 -0.9809  1.2699  0.3251
   82MOL    C9311595   5.831   6.357   2.442 -0.5434 -0.1609  0.2043
   82MOL    C9411596   5.759   6.236   2.372 -0.5891 -0.0539 -0.5128
   82MOL    O9511597   5.856   6.150   2.306  0.0947  0.3940 -0.2167
   82MOL    H9611598   5.916   6.319   2.500 -3.0659 -1.1080  3.4004
   82MOL    H9711599   5.767   6.395   2.521  1.6703  3.5188  0.3152
   82MOL    H9811600   5.686   6.276   2.302  0.6806  1.1106 -1.1991
   82MOL    H9911601   5.699   6.176   2.440 -0.2991  0.0690 -0.1451
   82MOL   C10011602   5.835   6.004   2.313 -0.6412  0.3973  0.1763
   82MOL   C10111603   5.958   5.935   2.253  0.2315 -0.3222 -0.1733
   82MOL   O10211604   5.977   5.960   2.119 -0.0557 -0.1782 -0.1209
   82MOL   H10311605   5.828   5.986   2.420  1.9836  0.1820  0.3518
   82MOL   H10411606   5.747   5.980   2.253  0.9188  0.7340 -2.3263
   82MOL   H10511607   5.951   5.828   2.272  0.1495 -0.6027 -1.7099
   82MOL   H10611608   6.047   5.961   2.311  0.3051 -1.0726  0.0501
   82MOL   C10711609   6.068   6.067   2.098 -0.1514 -0.3346  0.4428
   82MOL   C10811610   6.089   6.084   1.945 -0.0480  0.2954  0.5553
   82MOL   O10911611   6.197   6.174   1.925  0.1293  1.0193  0.3206
   82MOL   H11011612   6.045   6.167   2.136  0.2838 -0.2490  0.4918
   82MOL   H11111613   6.165   6.032   2.136 -0.7656 -2.7882 -0.1605
   82MOL   H11211614   5.993   6.111   1.901  0.0416  0.1886  0.2907
   82MOL   H11311615   6.124   5.985   1.917 -1.1733  0.0542 -0.0334
   82MOL   C11411616   6.216   6.212   1.790 -0.2699  1.0504 -0.0053
   82MOL   C11511617   6.101   6.310   1.742 -0.2328  0.0524  0.5571
   82MOL   O11611618   5.989   6.249   1.686 -0.2496  0.3048 -0.2362
   82MOL   H11711619   6.312   6.260   1.778  0.1224  0.2084 -0.2870
   82MOL   H11811620   6.227   6.116   1.739  0.3088  1.7145 -1.1303
   82MOL   H11911621   6.140   6.371   1.661 -1.8616 -0.5329 -0.6911
   82MOL   H12011622   6.081   6.361   1.836  1.6025  2.6283 -0.4112
   82MOL   C12111623   5.873   6.326   1.682  0.5448 -0.5279 -0.1904
   82MOL   C12211624   5.804   6.328   1.820  0.1808 -0.0631 -1.3304
   82MOL   O12311625   5.726   6.212   1.841  0.2823 -0.1122  0.0447
   82MOL   H12411626   5.894   6.425   1.643 -1.1156 -0.5325 -1.1010
   82MOL   H12511627   5.795   6.303   1.610 -1.0998  0.1051  1.3395
   82MOL   H12611628   5.751   6.423   1.827 -0.0895 -0.2957 -0.1680
   82MOL   H12711629   5.878   6.332   1.900 -0.6793  1.3026 -0.5936
   82MOL   C12811630   5.665   6.200   1.970  0.3572 -0.3319 -0.2205
   82MOL   C12911631   5.617   6.055   2.001 -0.3567 -0.1434 -0.1551
   82MOL   O13011632   5.536   6.042   2.118 -0.5007  0.3082 -0.0587
   82MOL   H13111633   5.734   6.231   2.048 -0.5602  2.1801 -0.3387
   82MOL   H13211634   5.580   6.267   1.984  0.5209 -0.0846 -0.4068
   82MOL   H13311635   5.714   6.009   2.022 -0.1660  0.9658  1.4710
   82MOL   H13411636   5.558   6.015   1.919  0.0615  0.0003 -0.5339
   82MOL   C13511637   5.506   5.900   2.139 -0.1076  0.5235  0.0374
   82MOL   C13611638   5.433   5.872   2.274  0.0117  0.9948 -0.6882
   82MOL   O13711639   5.387   5.736   2.283  0.0091 -0.4754 -0.2928
   82MOL   H13811640   5.450   5.865   2.052  1.7979 -0.9422 -0.6504
   82MOL   H13911641   5.601   5.845   2.146 -0.6942 -0.4320  0.5425
   82MOL   H14011642   5.342   5.931   2.271 -0.2502  0.6409  0.1636
   82MOL   H14111643   5.504   5.889   2.354 -0.7959 -1.2969  0.5551
   82MOL   H14211644   5.296   5.720   2.264  0.4872 -2.4713 -0.9573
   83MOL     C111645   0.018   0.099   1.482 -0.4013  0.2494 -0.1139
   83MOL     C211646   0.027   0.246   1.437  0.4103  0.2621  0.0695
   83MOL     O311647   7.716   0.260   1.322 -0.1274  0.1742  0.0379
   83MOL     H411648   0.054   0.020   1.416 -0.7637  0.5117 -0.6321
   83MOL     H511649   7.689   0.065   1.510 -0.6842  1.2145  0.0666
   83MOL     H611650   0.129   0.272   1.409  0.6557  0.2539  0.9594
   83MOL     H711651   7.767   0.312   1.518 -0.2143 -0.9587  0.8472
   83MOL     H811652   0.082   0.091   1.570  0.4752  1.6330 -0.6125
   83MOL     C911653   7.684   0.392   1.296 -0.5280 -0.2386  0.4410
   83MOL    C1011654   7.596   0.407   1.173  0.6592 -0.3863  0.5059
   83MOL    O1111655   7.460   0.434   1.212 -0.6758  1.1528  0.1869
   83MOL    H1211656   7.648   0.442   1.386  0.2093  0.0970  0.5523
   83MOL    H1311657   0.002   0.448   1.267 -1.6496  2.3181  1.6755
   83MOL    H1411658   7.612   0.325   1.103  0.9423 -0.0377  0.1592
   83MOL    H1511659   7.626   0.503   1.130 -2.3924  0.6344  0.5132
   83MOL    C1611660   7.370   0.454   1.106 -1.0146 -0.5411  0.0078
   83MOL    C1711661   7.245   0.509   1.167  0.9377  0.1875 -0.4167
   83MOL    O1811662   7.169   0.413   1.235  0.6232 -0.7219  0.1004
   83MOL    H1911663   7.407   0.521   1.028 -2.8457  2.5143  1.6371
   83MOL    H2011664   7.357   0.361   1.052  1.0247 -0.7367 -0.2113
   83MOL    H2111665   7.188   0.542   1.081  0.1493 -0.3767 -0.1206
   83MOL    H2211666   7.273   0.596   1.227 -1.5848 -0.8516  2.3857
   83MOL    C2311667   7.036   0.452   1.254  0.3490  0.3368  0.8883
   83MOL    C2411668   6.948   0.323   1.292 -0.0750  0.2554  0.1810
   83MOL    O2511669   6.963   0.224   1.204  0.6066  0.2752 -0.1351
   83MOL    H2611670   7.036   0.523   1.337 -0.1524  0.4713  0.7768
   83MOL    H2711671   7.005   0.503   1.162  2.1130  0.5142  0.3696
   83MOL    H2811672   6.847   0.352   1.320 -0.4103  1.8353 -2.5722
   83MOL    H2911673   6.992   0.281   1.383 -0.9221  2.1967  1.5504
   83MOL    C3011674   6.871   0.247   1.098  0.1063  0.8072  0.6958
   83MOL    C3111675   6.915   0.163   0.975 -0.3836 -0.0476  0.8131
   83MOL    O3211676   6.810   0.126   0.887 -0.5774 -0.0398  0.2073
   83MOL    H3311677   6.777   0.206   1.135  0.1053  0.1177 -0.0477
   83MOL    H3411678   6.845   0.351   1.077  1.8565  0.9524 -0.9442
   83MOL    H3511679   6.957   0.073   1.019  0.4033  0.3099  0.8205
   83MOL    H3611680   6.996   0.219   0.926  0.2595 -0.0669  1.8414
   83MOL    C3711681   6.759   0.230   0.811 -0.4707  0.0938 -0.1465
   83MOL    C3811682   6.640   0.153   0.741 -0.3182 -0.8081 -0.7924
   83MOL    O3911683   6.685   0.057   0.646  0.2013  0.2064 -0.4936
   83MOL    H4011684   6.718   0.308   0.875 -0.3892 -2.1784  2.8083
   83MOL    H4111685   6.830   0.277   0.743 -1.2397  0.0722 -0.9658
   83MOL    H4211686   6.575   0.221   0.688 -0.2780  0.1735  0.3871
   83MOL    H4311687   6.577   0.111   0.820 -0.6092 -1.4109 -1.3347
   83MOL    C4411688   6.587   7.735   0.610  0.6340  0.7091  1.1734
   83MOL    C4511689   6.635   7.632   0.507  0.3706  0.4462  0.4203
   83MOL    O4611690   6.624   7.693   0.379  0.1557  0.0809  0.3331
   83MOL    H4711691   6.560   7.673   0.696  3.2761 -1.6993  0.3496
   83MOL    H4811692   6.493   0.013   0.583  0.2469  1.0023  2.9820
   83MOL    H4911693   6.566   7.548   0.511  0.3123  0.4807  0.1515
   83MOL    H5011694   6.728   7.578   0.527  0.0238 -0.6431 -0.8249
   83MOL    C5111695   6.671   7.603   0.282 -0.4386  0.2874  0.3236
   83MOL    C5211696   6.599   7.624   0.150 -0.4973  0.4260  0.2352
   83MOL    O5311697   6.665   7.730   0.076 -0.3964  0.5735  0.1785
   83MOL    H5411698   6.779   7.610   0.264 -0.4107 -1.2848 -0.1345
   83MOL    H5511699   6.656   7.498   0.307  1.2537 -0.0105  0.1433
   83MOL    H5611700   6.493   7.633   0.177 -0.6181 -0.5197  0.0977
   83MOL    H5711701   6.605   7.538   0.084 -1.7662  1.5433 -1.3650
   83MOL    C5811702   6.675   0.084   0.141 -0.9298 -0.1752 -0.4829
   83MOL    C5911703   6.737   0.178   0.036  0.4549 -0.8497  0.8426
   83MOL    O6011704   6.640   0.237   7.714 -0.2602 -0.2822  0.3966
   83MOL    H6111705   6.578   0.126   0.165 -1.0188 -1.3824  1.3597
   83MOL    H6211706   6.749   0.077   0.220 -0.0327  3.0329 -0.9612
   83MOL    H6311707   6.818   0.130   7.753  0.7966 -0.5012  1.0373
   83MOL    H6411708   6.786   0.261   0.087  1.2188 -1.0848  0.4886
   83MOL    C6511709   6.607   0.368   7.744 -0.2950 -0.4586 -0.1172
   83MOL    C6611710   6.509   0.430   7.649  0.0640 -0.2642 -0.2306
   83MOL    O6711711   6.562   0.468   7.524  0.3588 -0.1988 -0.3622
   83MOL    H6811712   6.570   0.356   0.076 -1.2398  3.1204  0.0239
   83MOL    H6911713   6.695   0.431   7.750  0.0505 -1.0776  2.0053
   83MOL    H7011714   6.476   0.521   7.700  0.0410  0.8600 -2.1764
   83MOL    H7111715   6.422   0.367   7.634  0.4759 -0.7323 -0.6789
   83MOL    C7211716   6.568   0.367   7.424  0.1429 -0.5673 -0.2529
   83MOL    C7311717   6.658   0.410   7.311  0.2782  0.0592  0.0946
   83MOL    O7411718   6.802   0.398   7.335  0.0397  0.4066 -0.7653
   83MOL    H7511719   6.606   0.276   7.472 -1.2278 -1.5412 -0.9902
   83MOL    H7611720   6.472   0.350   7.375  0.0632 -1.0884  0.0772
   83MOL    H7711721   6.631   0.514   7.291  0.4075 -0.2138 -1.5867
   83MOL    H7811722   6.650   0.351   7.220 -1.0564  1.2450 -0.5834
   83MOL    C7911723   6.849   0.488   7.438 -0.8582  0.0409 -0.4123
   83MOL    C8011724   7.005   0.485   7.442 -0.9448 -0.2119 -0.2219
   83MOL    O8111725   7.066   0.566   7.342  0.1304  0.1380 -0.2209
   83MOL    H8211726   6.823   0.591   7.414  0.8690  0.4495 -0.5702
   83MOL    H8311727   6.807   0.466   7.536  1.0692  1.1261  0.6651
   83MOL    H8411728   7.047   0.385   7.449  0.5979  0.4731  0.5882
   83MOL    H8511729   7.045   0.528   7.534 -0.8651  0.0651 -0.3851
   83MOL    C8611730   7.080   0.530   7.207  1.6019  0.9857 -0.4637
   83MOL    C8711731   7.191   0.609   7.136  0.1772  0.2474 -0.5418
   83MOL    O8811732   7.203   0.555   7.009  0.0721  0.1134  0.1689
   83MOL    H8911733   7.118   0.428   7.218  0.7674  0.7472  0.2331
   83MOL    H9011734   6.987   0.515   7.152  1.7508 -1.1351 -0.2126
   83MOL    H9111735   7.282   0.596   7.194  0.1372 -1.0757 -0.7673
   83MOL    H9211736   7.157   0.713   7.126 -0.4861  0.0528 -0.3381
   83MOL    C9311737   7.310   0.618   6.936 -0.5700  0.0249  0.1423
   83MOL    C9411738   7.264   0.652   6.799  0.5605 -0.0957  0.1583
   83MOL    O9511739   7.244   0.787   6.784 -0.0476  0.1766  0.2928
   83MOL    H9611740   7.353   0.703   6.990  0.2611 -0.3267  0.0357
   83MOL    H9711741   7.390   0.545   6.930 -0.5332 -0.0505  1.3575
   83MOL    H9811742   7.175   0.597   6.769  0.9697 -0.7675  0.1733
   83MOL    H9911743   7.347   0.630   6.733  1.5330 -0.1683  1.3933
   83MOL   C10011744   7.192   0.803   6.652  0.0658 -0.0985  0.1458
   83MOL   C10111745   7.178   0.957   6.619 -0.3868  0.5102 -0.5697
   83MOL   O10211746   7.087   1.015   6.699  0.4776  0.0506  0.3064
   83MOL   H10311747   7.259   0.757   6.580 -0.6205 -0.1307 -0.4713
   83MOL   H10411748   7.092   0.763   6.662 -0.7400  1.9010  0.3539
   83MOL   H10511749   7.141   0.961   6.517  1.7299 -1.5723 -1.4486
   83MOL   H10611750   7.274   1.009   6.612 -1.2563  2.5942  2.0729
   83MOL   C10711751   7.064   1.152   6.674  0.5140  0.1851 -0.1095
   83MOL   C10811752   6.931   1.182   6.743 -0.3641  0.3509 -0.4959
   83MOL   O10911753   6.811   1.160   6.671 -0.2358 -0.3462 -0.0155
   83MOL   H11011754   7.130   1.226   6.720  0.5879  1.0610 -1.5816
   83MOL   H11111755   7.059   1.191   6.572  1.2952  0.8322  0.0991
   83MOL   H11211756   6.937   1.288   6.768  3.2504  0.1932 -0.3645
   83MOL   H11311757   6.942   1.122   6.834  2.6820 -0.0895 -1.0812
   83MOL   C11411758   6.776   1.022   6.671 -0.2539 -0.4422 -0.4395
   83MOL   C11511759   6.632   1.005   6.631 -0.8627 -0.1056  0.1139
   83MOL   O11611760   6.631   0.967   6.492 -0.1811  0.3708  0.0168
   83MOL   H11711761   6.843   0.961   6.610  2.5219  1.2239  0.8522
   83MOL   H11811762   6.785   0.976   6.769  1.9944  1.1732  0.1234
   83MOL   H11911763   6.579   1.097   6.655 -0.6122 -0.3226  1.5489
   83MOL   H12011764   6.591   0.921   6.687 -2.0096 -0.0950 -0.6922
   83MOL   C12111765   6.501   0.912   6.458  0.0473 -0.0860  0.0577
   83MOL   C12211766   6.460   0.970   6.324  0.1524 -0.4661 -0.6508
   83MOL   O12311767   6.512   0.896   6.213  0.4297 -0.1633 -0.2779
   83MOL   H12411768   6.490   0.804   6.449  0.5934 -0.0048 -1.8456
   83MOL   H12511769   6.423   0.949   6.524  1.5300 -1.0017  2.3567
   83MOL   H12611770   6.497   1.072   6.321 -2.9075  0.6669 -1.3634
   83MOL   H12711771   6.351   0.967   6.323  0.1312 -0.5269  0.9495
   83MOL   C12811772   6.479   0.956   6.086 -0.3557 -0.1187  0.0258
   83MOL   C12911773   6.544   0.872   5.976  0.3917  0.6967  0.2003
   83MOL   O13011774   6.678   0.914   5.965 -0.4636  0.1730 -0.3326
   83MOL   H13111775   6.370   0.957   6.083 -0.3616  0.6316  0.5181
   83MOL   H13211776   6.511   1.059   6.073 -0.0981 -0.1770  0.1973
   83MOL   H13311777   6.497   0.891   5.880 -1.1730  2.3717  1.2797
   83MOL   H13411778   6.540   0.771   6.018 -0.0798  0.7838  0.3684
   83MOL   C13511779   6.740   0.857   5.845 -0.1501 -0.0226  0.2674
   83MOL   C13611780   6.891   0.848   5.865  0.1214  0.2607  0.5713
   83MOL   O13711781   6.952   0.792   5.754  0.7404 -0.4955  0.0188
   83MOL   H13811782   6.704   0.758   5.820  0.7783 -0.0340 -1.0473
   83MOL   H13911783   6.719   0.932   5.769 -0.7296  2.1237  2.4658
   83MOL   H14011784   6.924   0.780   5.944  2.2145  2.0342  1.2815
   83MOL   H14111785   6.939   0.942   5.890  0.0037  0.2065  1.0128
   83MOL   H14211786   6.948   0.857   5.686  2.0239 -1.8748 -1.4037
   84MOL     C111787   4.459   6.257   6.192 -0.3939  0.2979 -0.0868
   84MOL     C211788   4.355   6.165   6.250 -0.0435  0.0398 -0.5283
   84MOL     O311789   4.411   6.032   6.254  0.4112  0.3277  0.1846
   84MOL     H411790   4.560   6.246   6.233  1.5311  1.3639 -4.2235
   84MOL     H511791   4.434   6.363   6.197 -0.7457  0.4063 -3.4587
   84MOL     H611792   4.267   6.165   6.186 -1.3250 -1.3688  1.1764
   84MOL     H711793   4.326   6.208   6.346  0.1607 -0.4901 -0.2279
   84MOL     H811794   4.479   6.239   6.087 -0.9840 -0.0227 -0.1421
   84MOL     C911795   4.500   6.003   6.370 -0.3721 -0.7750 -0.0947
   84MOL    C1011796   4.425   5.991   6.498  0.1095  0.0443  0.7453
   84MOL    O1111797   4.400   6.125   6.554  0.6710  0.0999 -0.1586
   84MOL    H1211798   4.547   5.905   6.355 -1.8682 -1.1970 -2.2360
   84MOL    H1311799   4.590   6.061   6.390  0.3702 -0.6260 -3.5410
   84MOL    H1411800   4.486   5.926   6.562  0.3914 -0.4089  0.0151
   84MOL    H1511801   4.327   5.950   6.473 -0.4442  1.2501  0.9053
   84MOL    C1611802   4.337   6.140   6.681 -0.7881  0.7425 -0.0589
   84MOL    C1711803   4.184   6.106   6.678 -0.1858  0.5728  0.2002
   84MOL    O1811804   4.168   5.964   6.688  0.1581  0.6001 -0.0614
   84MOL    H1911805   4.383   6.085   6.762 -0.0137  1.6601  0.1267
   84MOL    H2011806   4.345   6.244   6.712  1.6905  0.3676  0.6118
   84MOL    H2111807   4.141   6.153   6.590 -1.2520  1.7782  1.3410
   84MOL    H2211808   4.131   6.157   6.759 -0.3337 -0.6733  0.9012
   84MOL    C2311809   4.030   5.912   6.691 -0.6395 -0.0605  0.0758
   84MOL    C2411810   3.958   5.943   6.562  0.3610  0.2513  0.1574
   84MOL    O2511811   3.917   6.082   6.554 -0.2891 -0.3605 -0.0513
   84MOL    H2611812   4.026   5.803   6.697 -1.4728  0.0556  1.9494
   84MOL    H2711813   3.977   5.953   6.776  0.3258  0.4276  0.4534
   84MOL    H2811814   3.877   5.872   6.547 -0.1936  0.3444  2.6164
   84MOL    H2911815   4.034   5.939   6.484  0.5498  0.4308  0.3332
   84MOL    C3011816   3.822   6.103   6.450 -0.7565 -0.7221  0.2803
   84MOL    C3111817   3.794   6.256   6.440  0.7797 -0.6860 -0.2816
   84MOL    O3211818   3.732   6.302   6.565 -0.1766 -0.0785 -0.0794
   84MOL    H3311819   3.871   6.085   6.354  0.0538 -0.5518  0.6639
   84MOL    H3411820   3.733   6.041   6.461 -0.2966 -1.3843  0.3226
   84MOL    H3511821   3.729   6.277   6.355 -0.1823 -1.9775  0.1207
   84MOL    H3611822   3.886   6.307   6.411  0.6858 -0.7685 -0.7195
   84MOL    C3711823   3.710   6.443   6.562 -0.1391 -0.3046  0.0044
   84MOL    C3811824   3.586   6.495   6.630  0.7462 -0.2863 -0.0156
   84MOL    O3911825   3.471   6.473   6.552  0.2844  0.1221  0.1901
   84MOL    H4011826   3.804   6.487   6.595 -0.0061  0.0044 -0.7649
   84MOL    H4111827   3.719   6.466   6.455 -3.4466  2.9799  0.2916
   84MOL    H4211828   3.595   6.602   6.649  1.0051 -0.4182  0.6011
   84MOL    H4311829   3.567   6.450   6.727 -0.3020  0.3525  0.0771
   84MOL    C4411830   3.353   6.480   6.620 -0.5158 -0.0840  0.1352
   84MOL    C4511831   3.242   6.451   6.529  0.0621 -0.0725  0.2869
   84MOL    O4611832   3.224   6.564   6.446  0.6387  0.2193 -0.1566
   84MOL    H4711833   3.365   6.402   6.696  1.1355 -2.8784 -2.8464
   84MOL    H4811834   3.345   6.579   6.664  1.3928 -0.5374  1.6033
   84MOL    H4911835   3.154   6.442   6.592 -0.5647  1.0693 -0.4165
   84MOL    H5011836   3.248   6.361   6.468 -1.1450  0.5526 -0.7627
   84MOL    C5111837   3.124   6.542   6.348 -0.5228  0.4074  1.0038
   84MOL    C5211838   3.110   6.663   6.255 -0.4931 -1.2579  0.7423
   84MOL    O5311839   3.050   6.769   6.329 -0.2025  0.2517 -0.4419
   84MOL    H5411840   3.149   6.459   6.283  2.6625  1.1483  1.2101
   84MOL    H5511841   3.031   6.507   6.392  0.6428 -1.9732  1.6399
   84MOL    H5611842   3.047   6.643   6.168  0.6321  1.5790 -0.8366
   84MOL    H5711843   3.209   6.700   6.228 -0.1999 -0.9766  2.1966
   84MOL    C5811844   3.059   6.891   6.254  0.8065 -0.1746  0.3626
   84MOL    C5911845   2.999   7.009   6.330  0.5599 -0.5214 -0.6840
   84MOL    O6011846   2.863   6.986   6.366 -0.5062  0.1639  0.2810
   84MOL    H6111847   3.163   6.921   6.237  0.6645  1.3692  2.0426
   84MOL    H6211848   3.011   6.867   6.159 -2.5335 -2.1776  2.4697
   84MOL    H6311849   3.012   7.110   6.292 -1.4931 -0.6425 -1.7928
   84MOL    H6411850   3.049   6.997   6.426 -0.1177 -2.2676 -0.5377
   84MOL    C6511851   2.813   7.092   6.443 -0.1097  0.9198 -0.7974
   84MOL    C6611852   2.673   7.055   6.494  0.8900 -0.1783  0.3011
   84MOL    O6711853   2.595   7.076   6.380 -0.2200  0.5726  0.0609
   84MOL    H6811854   2.872   7.119   6.531 -3.2128  2.5519  0.8761
   84MOL    H6911855   2.821   7.188   6.392 -2.8316  1.0233 -1.1071
   84MOL    H7011856   2.633   7.124   6.569 -1.6158  0.3772 -1.4654
   84MOL    H7111857   2.671   6.954   6.534  2.0551  0.1514  1.2101
   84MOL    C7211858   2.455   7.058   6.396  0.4724 -0.1308 -0.4714
   84MOL    C7311859   2.386   7.089   6.258  0.2931  0.7946  0.5672
   84MOL    O7411860   2.409   6.999   6.155 -0.3988  0.3504 -0.2688
   84MOL    H7511861   2.431   6.953   6.415 -1.3616  0.5031  0.8253
   84MOL    H7611862   2.412   7.128   6.467  0.9283  0.1668 -0.4838
   84MOL    H7711863   2.420   7.189   6.230 -1.7365  0.7226 -2.4375
   84MOL    H7811864   2.281   7.084   6.286 -0.0655 -0.1911 -0.8807
   84MOL    C7911865   2.341   7.049   6.044  0.2779 -0.7130  0.6847
   84MOL    C8011866   2.384   6.968   5.916  0.9518 -0.2206  0.5194
   84MOL    O8111867   2.459   7.047   5.829 -0.4579 -0.7767  0.5539
   84MOL    H8211868   2.235   7.054   6.069  0.8069  0.6304  2.7970
   84MOL    H8311869   2.360   7.153   6.016  0.8031 -0.6933  1.1110
   84MOL    H8411870   2.293   6.946   5.859  1.4902  0.9587 -0.8345
   84MOL    H8511871   2.427   6.871   5.943  2.0940 -0.2873 -1.4515
   84MOL    C8611872   2.475   6.977   5.705  0.0755  0.4182 -0.0947
   84MOL    C8711873   2.531   7.062   5.594 -0.4569  0.5129  0.8949
   84MOL    O8811874   2.668   7.033   5.575  0.0484  0.4965 -0.5472
   84MOL    H8911875   2.539   6.894   5.734 -2.0158 -0.6519  1.5983
   84MOL    H9011876   2.387   6.923   5.668  0.7426  0.4480 -1.7897
   84MOL    H9111877   2.522   7.169   5.615 -1.1860  0.6849 -0.2793
   84MOL    H9211878   2.470   7.048   5.505 -0.4194  2.1844  0.5811
   84MOL    C9311879   2.702   7.000   5.438 -0.7601 -0.2977 -0.2751
   84MOL    C9411880   2.801   6.891   5.445 -0.6599 -0.0093 -0.1771
   84MOL    O9511881   2.836   6.849   5.314 -0.2539  0.6676  0.2347
   84MOL    H9611882   2.619   6.979   5.370 -0.7580 -3.1226  0.5325
   84MOL    H9711883   2.769   7.076   5.398 -0.5131  0.2998  1.2320
   84MOL    H9811884   2.759   6.816   5.512  0.7203  0.6476  1.4648
   84MOL    H9911885   2.889   6.938   5.490  0.4302 -0.9539 -1.2896
   84MOL   C10011886   2.959   6.776   5.319  0.2159  0.4824 -0.3040
   84MOL   C10111887   3.009   6.739   5.183  0.7223 -0.5918  0.7240
   84MOL   O10211888   3.061   6.864   5.124  0.0847  0.2380 -0.2307
   84MOL   H10311889   3.032   6.839   5.371  0.3349  1.5084 -1.6994
   84MOL   H10411890   2.934   6.697   5.390  0.3743 -0.2244 -1.0333
   84MOL   H10511891   2.926   6.706   5.121  0.4035  2.3191 -0.4641
   84MOL   H10611892   3.081   6.657   5.183 -0.3231 -1.5250 -0.6211
   84MOL   C10711893   3.097   6.845   4.989  0.0007  0.3178  0.8400
   84MOL   C10811894   3.164   6.972   4.938 -0.4263  0.2331  0.2467
   84MOL   O10911895   3.298   6.963   4.984  0.2293 -0.3528 -0.6022
   84MOL   H11011896   3.163   6.758   4.985  1.7130  1.6080  0.7199
   84MOL   H11111897   3.005   6.833   4.933  1.1496  2.7200 -1.6697
   84MOL   H11211898   3.123   7.070   4.965  0.2447  0.5756  0.0424
   84MOL   H11311899   3.180   6.965   4.831  2.6083  1.6841  0.5347
   84MOL   C11411900   3.370   7.087   4.966 -0.8883 -0.8972  0.4621
   84MOL   C11511901   3.521   7.055   4.995  0.2660 -0.2989 -0.0338
   84MOL   O11611902   3.609   7.161   4.987 -1.0206 -0.0544 -0.7835
   84MOL   H11711903   3.362   7.126   4.865  0.5693  0.0034  0.6765
   84MOL   H11811904   3.326   7.157   5.038 -0.6922 -1.7162  1.3868
   84MOL   H11911905   3.551   6.968   4.937  2.4343  0.5908 -0.3115
   84MOL   H12011906   3.527   7.028   5.100  2.0631 -3.1498 -0.8153
   84MOL   C12111907   3.744   7.111   5.001  0.0403 -0.9752 -0.1237
   84MOL   C12211908   3.849   7.216   4.963  0.6032 -0.0465  0.5981
   84MOL   O12311909   3.859   7.239   4.824 -0.5472 -0.3865  0.3440
   84MOL   H12411910   3.761   7.100   5.108  1.2228  1.0504 -0.0727
   84MOL   H12511911   3.775   7.015   4.958 -0.6665 -3.2030  4.1064
   84MOL   H12611912   3.944   7.180   5.002  0.2854 -1.4798  0.0888
   84MOL   H12711913   3.837   7.310   5.016  0.5107 -0.5039  1.4133
   84MOL   C12811914   3.952   7.336   4.775  0.1803  0.1496  0.1717
   84MOL   C12911915   3.945   7.317   4.626  0.1001  0.4079 -0.1962
   84MOL   O13011916   4.047   7.231   4.572  0.0071 -0.3675 -0.4436
   84MOL   H13111917   3.921   7.437   4.802 -1.2179 -0.4385  0.7992
   84MOL   H13211918   4.053   7.319   4.812  0.0323 -1.3960 -0.1153
   84MOL   H13311919   3.968   7.409   4.572  1.3631  1.1782  1.5933
   84MOL   H13411920   3.848   7.286   4.587  1.0789 -0.2250 -2.1585
   84MOL   C13511921   4.012   7.095   4.586 -0.0531  0.7877  0.0683
   84MOL   C13611922   4.110   7.034   4.479  0.3109  0.3418  0.1280
   84MOL   O13711923   4.068   7.069   4.346 -0.0362  0.7000 -0.0602
   84MOL   H13811924   4.033   7.064   4.688 -2.3783 -1.7311 -0.1667
   84MOL   H13911925   3.909   7.063   4.572 -0.1244  0.6068  0.9990
   84MOL   H14011926   4.114   6.925   4.487 -1.9590  0.1283 -1.1954
   84MOL   H14111927   4.210   7.077   4.491 -0.1614  1.4575  0.0550
   84MOL   H14211928   4.068   7.163   4.347  1.1554  0.7109 -0.6745
   85MOL     C111929   0.794   3.651   1.493  0.1300 -0.4464 -0.6183
   85MOL     C211930   0.706   3.772   1.548 -0.0012  0.0148 -0.3092
   85MOL     O311931   0.729   3.873   1.454  0.4395 -0.0614  0.1064
   85MOL     H411932   0.760   3.619   1.394 -1.1765 -1.5392  0.1727
   85MOL     H511933   0.794   3.568   1.564 -0.8693  1.1496  1.2977
   85MOL     H611934   0.737   3.807   1.647  1.3547 -0.8763 -0.3963
   85MOL     H711935   0.599   3.753   1.552 -0.0338  0.5624  1.9228
   85MOL     H811936   0.897   3.686   1.485 -0.3899  1.1390 -0.6206
   85MOL     C911937   0.638   3.984   1.470 -0.6664 -0.0581 -0.1289
   85MOL    C1011938   0.712   4.117   1.467 -0.3981  0.7520 -0.3355
   85MOL    O1111939   0.765   4.141   1.336 -0.3646 -0.2124  0.1249
   85MOL    H1211940   0.572   3.989   1.384  0.7522  0.3387 -1.2119
   85MOL    H1311941   0.576   3.964   1.558 -1.7215  0.0647 -0.8302
   85MOL    H1411942   0.793   4.109   1.539 -0.0526 -4.3452 -1.1325
   85MOL    H1511943   0.651   4.199   1.505 -1.0654 -0.0208  0.2741
   85MOL    C1611944   0.830   4.265   1.324 -0.5900  0.6575 -0.3646
   85MOL    C1711945   0.817   4.334   1.193  0.6500 -0.6144 -0.5283
   85MOL    O1811946   0.879   4.260   1.093 -0.3164 -0.3113  0.9035
   85MOL    H1911947   0.802   4.330   1.407  0.6640  0.1827  0.4416
   85MOL    H2011948   0.934   4.254   1.357 -0.1068 -0.5931 -2.2105
   85MOL    H2111949   0.871   4.426   1.213  1.3451 -1.3689  1.1379
   85MOL    H2211950   0.713   4.358   1.169  0.7953  0.5834  0.0146
   85MOL    C2311951   0.802   4.166   1.026  0.1911 -0.7248 -0.2419
   85MOL    C2411952   0.884   4.101   0.913  0.2347 -0.1547  0.2184
   85MOL    O2511953   0.877   4.170   0.787  0.0021  0.0242 -0.2821
   85MOL    H2611954   0.781   4.086   1.097  0.6667  0.9578  1.8161
   85MOL    H2711955   0.715   4.210   0.979  0.5424  0.2848  0.0406
   85MOL    H2811956   0.845   4.000   0.910  0.6031 -0.3065  0.5409
   85MOL    H2911957   0.989   4.083   0.937  0.0842 -0.0983  0.9284
   85MOL    C3011958   0.963   4.116   0.688  0.2043  0.4915  0.4084
   85MOL    C3111959   0.975   4.196   0.563 -0.4481 -0.4271 -0.1676
   85MOL    O3211960   1.060   4.314   0.571  0.0784 -0.0760  0.5359
   85MOL    H3311961   1.061   4.108   0.734  1.2261  0.2597 -1.7892
   85MOL    H3411962   0.930   4.019   0.650  0.1311  1.0157 -0.8733
   85MOL    H3511963   0.873   4.218   0.535 -0.8089 -0.5233  1.0507
   85MOL    H3611964   1.008   4.132   0.481  1.3685 -0.0889  0.2677
   85MOL    C3711965   1.017   4.410   0.659 -0.0884 -0.8248  0.0808
   85MOL    C3811966   1.074   4.557   0.631  0.3006 -0.3523 -0.1202
   85MOL    O3911967   1.012   4.616   0.519  0.0897  0.1892 -0.2682
   85MOL    H4011968   0.908   4.417   0.661 -0.1030 -0.9195 -0.2566
   85MOL    H4111969   1.057   4.379   0.756  2.0497 -2.8249 -1.3800
   85MOL    H4211970   1.182   4.558   0.619  0.1470 -0.9967 -1.6599
   85MOL    H4311971   1.060   4.615   0.722 -0.8739  0.1376 -0.5979
   85MOL    C4411972   1.054   4.746   0.478 -0.4478  0.0753  0.0133
   85MOL    C4511973   0.954   4.852   0.516  0.2046  0.3650  0.5217
   85MOL    O4611974   0.962   4.884   0.658 -0.4183 -0.3353 -0.1601
   85MOL    H4711975   1.154   4.754   0.520 -0.5048 -0.0778  0.1805
   85MOL    H4811976   1.063   4.749   0.369 -2.6683  0.8706 -0.1669
   85MOL    H4911977   0.850   4.821   0.509  0.8903 -1.3314 -3.3719
   85MOL    H5011978   0.952   4.935   0.445  0.3462  1.5255  1.8469
   85MOL    C5111979   0.872   4.979   0.704  0.2317  0.3766  0.2150
   85MOL    C5211980   0.898   5.123   0.657 -1.0614  0.4946 -0.3316
   85MOL    O5311981   0.860   5.224   0.761 -0.5759  0.0982 -0.4334
   85MOL    H5411982   0.773   4.953   0.667 -1.4291  2.6882  2.8999
   85MOL    H5511983   0.870   4.970   0.813 -0.1752 -1.0367  0.0999
   85MOL    H5611984   0.855   5.146   0.560  0.2894  0.6389 -0.9133
   85MOL    H5711985   1.004   5.128   0.629 -1.5658  0.7282 -2.2273
   85MOL    C5811986   0.909   5.354   0.739 -0.3504 -0.5644  0.4233
   85MOL    C5911987   0.797   5.431   0.663  0.0515  0.1438 -1.2726
   85MOL    O6011988   0.698   5.473   0.752  0.5166 -0.0853  0.3533
   85MOL    H6111989   0.919   5.408   0.834  3.1943 -1.6538  0.7277
   85MOL    H6211990   1.008   5.366   0.694 -0.6920  1.9522  0.2611
   85MOL    H6311991   0.763   5.369   0.580 -0.4045 -0.1634 -0.8593
   85MOL    H6411992   0.845   5.520   0.621  0.8441  0.5983  0.5392
   85MOL    C6511993   0.592   5.539   0.689  0.4499 -0.0299 -0.0567
   85MOL    C6611994   0.488   5.601   0.787 -0.0966 -0.5354  0.6212
   85MOL    O6711995   0.407   5.494   0.831  0.0634  0.1257  0.9661
   85MOL    H6811996   0.633   5.612   0.620  0.3768 -0.1500 -0.2274
   85MOL    H6911997   0.538   5.472   0.622 -0.7541  0.3349  0.5243
   85MOL    H7011998   0.422   5.671   0.736  0.4053  0.3759  1.2115
   85MOL    H7111999   0.539   5.655   0.867  0.7885  1.9734 -1.5454
   85MOL    C7212000   0.288   5.534   0.900  0.1522  0.3616  0.1988
   85MOL    C7312001   0.210   5.411   0.948  0.1605 -0.3531  0.5145
   85MOL    O7412002   0.161   5.337   0.833  0.2547 -0.5852 -0.3153
   85MOL    H7512003   0.314   5.600   0.983 -1.3254 -2.2151  2.7771
   85MOL    H7612004   0.228   5.598   0.835 -0.2656  1.0928  1.2920
   85MOL    H7712005   0.129   5.432   1.018  0.6197  0.1616  0.8950
   85MOL    H7812006   0.286   5.352   1.000 -1.2714 -3.4012 -0.7052
   85MOL    C7912007   0.109   5.208   0.869 -0.3081  0.7112  0.3596
   85MOL    C8012008   0.049   5.120   0.766  0.2679  0.3406  0.7186
   85MOL    O8112009   0.145   5.082   0.668  0.1465 -0.2223  0.3274
   85MOL    H8212010   0.188   5.157   0.925 -0.3089  0.1030 -0.1969
   85MOL    H8312011   0.025   5.225   0.937 -0.6010 -0.9257  0.4300
   85MOL    H8412012   7.741   5.179   0.720  1.7201  0.4704 -1.7053
   85MOL    H8512013   0.008   5.032   0.815  2.2174 -1.4762 -0.8104
   85MOL    C8612014   0.094   5.006   0.559 -0.1784 -0.0104 -0.0101
   85MOL    C8712015   0.045   4.870   0.601  0.1209  0.0552  0.0426
   85MOL    O8812016   7.675   4.874   0.606 -0.3765 -0.5691 -0.1778
   85MOL    H8912017   0.022   5.058   0.496 -2.3579 -2.7869  0.0597
   85MOL    H9012018   0.174   4.990   0.487 -2.5639 -3.1391 -2.1317
   85MOL    H9112019   0.092   4.843   0.695  2.9895  0.2483 -1.2614
   85MOL    H9212020   0.081   4.806   0.520 -0.7819  0.8750 -1.0216
   85MOL    C9312021   7.617   4.753   0.663 -0.1184  0.3895 -0.2804
   85MOL    C9412022   7.465   4.765   0.692  0.5844  0.0799 -0.0933
   85MOL    O9512023   7.382   4.755   0.578 -0.4968  0.4136  0.1798
   85MOL    H9612024   7.638   4.673   0.591 -2.1236  0.5657 -1.0910
   85MOL    H9712025   7.659   4.723   0.759 -0.8122 -1.5891 -0.5558
   85MOL    H9812026   7.444   4.846   0.762 -1.3264 -1.2807  0.9496
   85MOL    H9912027   7.449   4.674   0.751 -1.3364  1.5512  1.7287
   85MOL   C10012028   7.246   4.749   0.621  0.6135  0.9174  0.0525
   85MOL   C10112029   7.151   4.727   0.502 -0.4659  0.3684  0.3469
   85MOL   O10212030   7.136   4.853   0.435 -0.0187  0.6514  0.7221
   85MOL   H10312031   7.230   4.674   0.699 -0.6644  2.1516  0.9973
   85MOL   H10412032   7.217   4.843   0.669 -1.3828 -0.7735  2.2462
   85MOL   H10512033   7.051   4.689   0.521 -0.3037 -0.5469 -0.5484
   85MOL   H10612034   7.205   4.650   0.447 -0.5225 -1.0435  2.2240
   85MOL   C10712035   7.089   4.851   0.301  0.2451 -0.5787 -0.1340
   85MOL   C10812036   7.032   4.987   0.272  0.2831 -0.4753  0.2916
   85MOL   O10912037   6.890   4.991   0.311 -0.4774  0.1547 -0.2335
   85MOL   H11012038   7.173   4.825   0.237  0.1211  3.1322 -1.9296
   85MOL   H11112039   7.003   4.786   0.285 -0.6737  0.7784 -0.8806
   85MOL   H11212040   7.045   5.003   0.165  2.5143  1.6775  0.8227
   85MOL   H11312041   7.099   5.057   0.321 -0.6297 -0.8386  2.1023
   85MOL   C11412042   6.841   5.102   0.387 -0.5415  0.5401 -0.2687
   85MOL   C11512043   6.828   5.221   0.295  0.1991 -0.3720 -0.6508
   85MOL   O11612044   6.961   5.264   0.272 -0.5103 -0.0658 -0.3163
   85MOL   H11712045   6.743   5.084   0.431 -0.8509  2.0971 -0.2617
   85MOL   H11812046   6.899   5.116   0.478 -0.1618  1.0960 -0.5884
   85MOL   H11912047   6.776   5.296   0.355  1.6512  2.0876 -2.3765
   85MOL   H12012048   6.768   5.202   0.205  0.0251 -0.4087 -0.5277
   85MOL   C12112049   6.964   5.378   0.193 -0.3872 -0.7706 -0.1934
   85MOL   C12212050   7.107   5.429   0.179 -0.3657 -0.2345 -0.5376
   85MOL   O12312051   7.173   5.424   0.306  0.5859 -0.6232  0.2452
   85MOL   H12412052   6.919   5.355   0.096  0.9427 -1.9999 -0.5475
   85MOL   H12512053   6.899   5.449   0.242 -0.9532 -0.9842 -0.6249
   85MOL   H12612054   7.099   5.527   0.133 -1.3905  1.0289  2.2250
   85MOL   H12712055   7.168   5.364   0.116 -0.2422 -0.1087 -0.5452
   85MOL   C12812056   7.306   5.472   0.296  0.0970 -0.6918  0.5452
   85MOL   C12912057   7.346   5.461   0.444 -0.5279 -0.5266  0.1315
   85MOL   O13012058   7.437   5.347   0.459 -0.1795  0.6704 -0.2217
   85MOL   H13112059   7.370   5.410   0.234  1.2541  0.6996  0.3214
   85MOL   H13212060   7.325   5.575   0.266  1.6686 -0.6407  1.6542
   85MOL   H13312061   7.267   5.452   0.519 -2.7473  1.7059 -1.8334
   85MOL   H13412062   7.400   5.548   0.480  1.3046 -2.1437  1.4259
   85MOL   C13512063   7.367   5.227   0.487  0.5428  0.2979  0.5931
   85MOL   C13612064   7.484   5.118   0.477 -0.6432  0.0185 -0.0422
   85MOL   O13712065   7.540   5.106   0.343  0.2539  0.6275 -0.6085
   85MOL   H13812066   7.320   5.237   0.585 -1.4092  0.8652 -0.3729
   85MOL   H13912067   7.292   5.206   0.412  0.5462  0.3553  0.5738
   85MOL   H14012068   7.440   5.025   0.512 -2.0003  0.8881  0.6492
   85MOL   H14112069   7.559   5.142   0.551 -0.7745  0.4351 -0.0401
   85MOL   H14212070   7.590   5.185   0.330 -0.3891  0.9993 -0.8712
   86MOL     C112071   4.726   6.478   3.978  0.3925 -0.8026 -0.1344
   86MOL     C212072   4.719   6.625   4.017  0.5655 -0.2128 -0.1197
   86MOL     O312073   4.835   6.704   3.980 -0.5124 -0.2470 -0.3876
   86MOL     H412074   4.806   6.417   4.020  0.9884 -0.5598 -0.8990
   86MOL     H512075   4.733   6.459   3.871  3.3076 -3.3835  0.4411
   86MOL     H612076   4.694   6.631   4.122 -0.8372 -0.5824 -0.4273
   86MOL     H712077   4.638   6.654   3.950  0.1471 -2.0552 -0.4337
   86MOL     H812078   4.635   6.429   4.011 -0.2641  0.4706 -0.0251
   86MOL     C912079   4.942   6.716   4.063  0.0952  0.2229 -0.2364
   86MOL    C1012080   5.037   6.802   3.987 -0.2193  0.1194 -0.4433
   86MOL    O1112081   4.996   6.933   4.009  0.2604  0.3529 -0.4280
   86MOL    H1212082   4.926   6.744   4.167 -1.1270 -0.1129 -0.3245
   86MOL    H1312083   4.990   6.618   4.064  0.5757  0.4090 -2.2102
   86MOL    H1412084   5.033   6.781   3.880 -2.5401  3.7652 -1.1751
   86MOL    H1512085   5.134   6.791   4.034 -0.1499  2.6599  0.0516
   86MOL    C1612086   5.083   7.030   3.960  0.0523 -0.0651  0.2493
   86MOL    C1712087   5.016   7.164   3.976  0.8152  0.1270  0.7766
   86MOL    O1812088   5.006   7.197   4.117 -0.0501 -0.4257 -0.4824
   86MOL    H1912089   5.174   7.037   4.021 -0.6164  1.6118  1.0939
   86MOL    H2012090   5.108   7.013   3.856  1.1529  1.3987  0.2492
   86MOL    H2112091   4.923   7.161   3.920 -0.4749  3.2845  2.5908
   86MOL    H2212092   5.082   7.236   3.927  2.4279 -0.8588  1.4803
   86MOL    C2312093   5.002   7.339   4.143  0.3377 -0.3767 -0.2248
   86MOL    C2412094   4.992   7.360   4.296  0.0060  0.2417 -0.5623
   86MOL    O2512095   5.105   7.294   4.348  0.1342 -1.0302 -0.0322
   86MOL    H2612096   5.087   7.387   4.093  0.5590  0.7992  1.2457
   86MOL    H2712097   4.912   7.384   4.100  0.5838 -0.8134 -1.1946
   86MOL    H2812098   4.899   7.315   4.331 -0.8022  2.6690  0.5374
   86MOL    H2912099   4.989   7.468   4.313  0.8593  0.2862 -0.7023
   86MOL    C3012100   5.097   7.292   4.492 -0.2563  0.0542 -0.0870
   86MOL    C3112101   5.162   7.418   4.558  0.5111  0.3219  0.7477
   86MOL    O3212102   5.075   7.528   4.557 -0.3770 -0.1726  0.0400
   86MOL    H3312103   4.995   7.280   4.527  0.0994 -1.8536  0.3077
   86MOL    H3412104   5.155   7.206   4.524  0.3097 -0.5094 -2.4979
   86MOL    H3512105   5.261   7.452   4.528 -0.4930  2.0230 -0.7196
   86MOL    H3612106   5.185   7.384   4.659 -1.3080  0.7627  1.3174
   86MOL    C3712107   5.093   7.624   4.654 -0.4953  0.8186  0.3874
   86MOL    C3812108   4.973   7.724   4.651  0.1403 -1.3135 -0.1589
   86MOL    O3912109   4.841   7.663   4.663  0.1533 -0.1241  0.4839
   86MOL    H4012110   5.107   7.583   4.755 -0.5793 -1.1753 -0.3779
   86MOL    H4112111   5.186   7.678   4.636  0.0298 -0.2943 -0.2688
   86MOL    H4212112   4.986   0.017   4.563 -0.9096 -0.8025  0.0512
   86MOL    H4312113   4.992   0.020   4.735 -1.1690 -2.3698  1.0057
   86MOL    C4412114   4.806   7.589   4.546  0.4201  0.0283  0.6063
   86MOL    C4512115   4.664   7.563   4.560  0.7711 -0.1087  0.1175
   86MOL    O4612116   4.626   7.464   4.463 -0.2507 -0.1384 -0.1848
   86MOL    H4712117   4.841   7.616   4.446  0.9720 -0.5946  0.6276
   86MOL    H4812118   4.855   7.493   4.563  0.8566  0.0424 -0.5452
   86MOL    H4912119   4.610   7.657   4.547 -0.6468 -0.7312  1.3518
   86MOL    H5012120   4.641   7.526   4.660  1.6702 -2.2495 -0.4309
   86MOL    C5112121   4.498   7.411   4.494 -0.2912  0.2849 -0.3777
   86MOL    C5212122   4.477   7.296   4.400 -0.1083  0.6168 -0.3518
   86MOL    O5312123   4.404   7.357   4.294  0.1096 -0.2108  0.1036
   86MOL    H5412124   4.503   7.370   4.595 -2.5635 -0.9945 -0.7465
   86MOL    H5512125   4.420   7.486   4.481 -1.5455 -0.7533  1.0126
   86MOL    H5612126   4.421   7.217   4.449 -0.8122  0.4774 -1.3526
   86MOL    H5712127   4.568   7.256   4.355 -0.3078  0.7789 -0.9127
   86MOL    C5812128   4.377   7.274   4.189  0.5634  1.0869  0.7026
   86MOL    C5912129   4.509   7.251   4.105  0.0127 -0.2260 -0.7852
   86MOL    O6012130   4.557   7.117   4.133 -0.0051  0.4838 -0.2246
   86MOL    H6112131   4.336   7.178   4.220 -0.3509  1.0759 -0.5093
   86MOL    H6212132   4.299   7.313   4.124  0.8501  0.1610 -0.2248
   86MOL    H6312133   4.590   7.320   4.127  1.5587 -2.2966  0.1386
   86MOL    H6412134   4.488   7.261   3.998  1.5250  2.5234 -0.8834
   86MOL    C6512135   4.656   7.078   4.039  0.2742  0.6663 -0.6628
   86MOL    C6612136   4.603   7.065   3.896  0.3246 -0.4432 -0.4335
   86MOL    O6712137   4.471   7.033   3.909  0.0668  0.0854 -0.1889
   86MOL    H6812138   4.737   7.149   4.056  1.4865 -0.2566 -2.4263
   86MOL    H6912139   4.692   6.981   4.074 -0.1309 -0.0278 -2.1124
   86MOL    H7012140   4.674   7.002   3.842  0.6859 -0.5160  0.1092
   86MOL    H7112141   4.627   7.161   3.852  1.5948  0.4141  2.0047
   86MOL    C7212142   4.391   7.041   3.793  0.4979  0.3975 -0.2421
   86MOL    C7312143   4.241   7.080   3.814 -0.3140  0.0732 -0.0568
   86MOL    O7412144   4.229   7.216   3.854  0.3646 -0.5080  0.4104
   86MOL    H7512145   4.426   7.126   3.735  0.9624 -0.6345 -1.4981
   86MOL    H7612146   4.406   6.954   3.728 -0.8966  0.4613 -0.6620
   86MOL    H7712147   4.210   7.018   3.898 -2.1510  1.7050  0.5060
   86MOL    H7812148   4.189   7.057   3.721  0.8792  0.0846 -0.7365
   86MOL    C7912149   4.098   7.253   3.875  0.0222 -0.3783 -0.1121
   86MOL    C8012150   4.068   7.398   3.934 -0.4181  0.0561  0.5090
   86MOL    O8112151   4.017   7.378   4.067  0.5265 -0.2365  0.1576
   86MOL    H8212152   4.040   7.248   3.783 -0.3169  1.8535 -0.0506
   86MOL    H8312153   4.055   7.172   3.935  1.0744  0.5789  1.9684
   86MOL    H8412154   3.983   7.444   3.884  1.8245  1.7417 -1.9075
   86MOL    H8512155   4.161   7.448   3.908 -1.0239  1.4624  1.0373
   86MOL    C8612156   4.000   7.499   4.132 -0.4071 -0.6961 -0.2643
   86MOL    C8712157   4.014   7.468   4.281  0.2077  0.4417 -0.1453
   86MOL    O8812158   3.957   7.561   4.369 -0.0803 -0.4544  0.8837
   86MOL    H8912159   4.074   7.573   4.104  1.2715 -1.8693  1.0071
   86MOL    H9012160   3.899   7.536   4.113 -0.1790 -0.0968 -0.3035
   86MOL    H9112161   4.120   7.459   4.304  0.2639  0.2785 -0.4566
   86MOL    H9212162   3.975   7.371   4.311  0.9872 -0.4330 -1.8920
   86MOL    C9312163   4.022   7.702   4.358  0.3065 -0.6478 -0.1072
   86MOL    C9412164   3.984   0.019   4.475  0.0669 -0.2707 -0.1389
   86MOL    O9512165   4.067   0.137   4.495 -0.1629 -0.5643 -0.1471
   86MOL    H9612166   4.129   7.689   4.371  0.7929  2.1168 -1.0135
   86MOL    H9712167   3.998   7.757   4.267  1.4783 -0.0120 -0.0383
   86MOL    H9812168   3.983   7.718   4.557 -0.9082 -0.1852 -0.0702
   86MOL    H9912169   3.886   0.063   4.460 -0.3223 -0.1299  2.4888
   86MOL   C10012170   3.995   0.237   4.560 -0.6168 -0.6060 -0.4272
   86MOL   C10112171   3.990   0.201   4.713  0.3398 -0.3695  0.3730
   86MOL   O10212172   3.891   0.103   4.743  0.0967  0.3493 -0.4817
   86MOL   H10312173   4.043   0.334   4.544  1.4215 -1.6996 -1.0285
   86MOL   H10412174   3.894   0.263   4.528 -0.7851 -0.9549 -0.1800
   86MOL   H10512175   3.956   0.294   4.758 -0.8133 -1.7099  2.3816
   86MOL   H10612176   4.090   0.182   4.753 -0.0303  1.9070  2.4703
   86MOL   C10712177   3.871   0.079   4.884  0.7397 -0.1118  0.5908
   86MOL   C10812178   3.741   0.141   4.934  0.1259 -0.2875 -0.3058
   86MOL   O10912179   3.782   0.272   4.962  0.1133 -0.1134 -0.4857
   86MOL   H11012180   3.871   7.743   4.900  2.4558 -0.1964  0.1225
   86MOL   H11112181   3.950   0.111   4.951 -0.5233  0.1291  1.9924
   86MOL   H11212182   3.716   0.100   5.032  1.1514 -1.7528 -0.6489
   86MOL   H11312183   3.670   0.141   4.852  0.4972  2.7701 -0.6966
   86MOL   C11412184   3.676   0.346   5.018  0.5525 -0.6240  0.2933
   86MOL   C11512185   3.725   0.489   5.038  0.7687 -0.3577  0.1611
   86MOL   O11612186   3.745   0.556   4.913 -0.8677 -0.4752 -0.5557
   86MOL   H11712187   3.588   0.349   4.953  1.5004  2.3519 -0.9492
   86MOL   H11812188   3.649   0.304   5.115 -1.2112 -0.9807 -0.3366
   86MOL   H11912189   3.822   0.486   5.086 -0.2210  1.3868  2.3199
   86MOL   H12012190   3.666   0.539   5.114 -0.6835  0.4402 -1.4474
   86MOL   C12112191   3.793   0.684   4.927 -0.5773 -0.2792 -0.1330
   86MOL   C12212192   3.947   0.674   4.922  0.5378 -0.1253 -0.1716
   86MOL   O12312193   3.996   0.686   4.789 -0.5496  0.5212  0.1073
   86MOL   H12412194   3.763   0.751   4.846 -0.0308 -1.4510 -1.3291
   86MOL   H12512195   3.761   0.720   5.024  0.8139  0.7284 -0.0496
   86MOL   H12612196   3.982   0.576   4.953 -1.9716 -1.8532 -2.6085
   86MOL   H12712197   3.984   0.762   4.975 -0.8779 -0.8612  2.1140
   86MOL   C12812198   4.129   0.729   4.782 -0.0661  1.0657  0.4752
   86MOL   C12912199   4.175   0.702   4.645 -0.6765 -0.0114 -0.1006
   86MOL   O13012200   4.304   0.747   4.635 -0.4470 -0.2798  0.0184
   86MOL   H13112201   4.135   0.834   4.808  1.1731  1.2253 -0.4382
   86MOL   H13212202   4.193   0.676   4.853  1.3338  0.6771 -1.0494
   86MOL   H13312203   4.109   0.759   4.579 -0.5341  1.0054  0.6345
   86MOL   H13412204   4.159   0.597   4.617  2.0688 -0.5093  0.0492
   86MOL   C13512205   4.403   0.652   4.648 -0.1290  0.1064 -0.4098
   86MOL   C13612206   4.398   0.537   4.544  0.3783  0.1108  0.3597
   86MOL   O13712207   4.524   0.492   4.510 -0.1986 -0.1664 -0.4229
   86MOL   H13812208   4.503   0.694   4.647  0.2769 -0.8365  0.0371
   86MOL   H13912209   4.400   0.615   4.750 -0.5386 -2.2807 -1.2433
   86MOL   H14012210   4.355   0.567   4.449  0.5041  1.3245  0.6789
   86MOL   H14112211   4.345   0.453   4.589  0.5254 -0.1034  0.1353
   86MOL   H14212212   4.524   0.460   4.421  0.6950 -1.9140  0.1755
   87MOL     C112213   0.801   5.018   4.541  0.3498 -0.1574  0.4826
   87MOL     C212214   0.770   5.014   4.392 -0.4778  1.1069  0.8148
   87MOL     O312215   0.775   4.882   4.336 -0.3988 -0.0641  0.2505
   87MOL     H412216   0.789   5.115   4.590  2.0846 -1.2726  3.2500
   87MOL     H512217   0.904   4.985   4.558  0.3398  0.2577  1.3692
   87MOL     H612218   0.846   5.062   4.329 -1.9537  0.8609 -1.1906
   87MOL     H712219   0.684   5.072   4.359 -1.1281  0.8519  2.0400
   87MOL     H812220   0.743   4.942   4.592 -1.9358  1.3520  0.2216
   87MOL     C912221   0.768   4.876   4.192 -0.2225 -0.0932  0.6391
   87MOL    C1012222   0.811   4.751   4.115 -0.3053  0.2775 -0.3013
   87MOL    O1112223   0.952   4.745   4.089  0.2555 -0.1577 -0.7474
   87MOL    H1212224   0.663   4.893   4.169  0.3744  1.2439 -1.2714
   87MOL    H1312225   0.816   4.954   4.133 -3.4199  0.0471 -1.8901
   87MOL    H1412226   0.750   4.755   4.025  0.9594  0.6753 -1.1535
   87MOL    H1512227   0.779   4.657   4.160  1.8045  0.0015  0.7049
   87MOL    C1612228   0.987   4.609   4.048 -0.5393  0.0127 -0.1608
   87MOL    C1712229   1.121   4.629   3.972 -0.0123 -0.1330 -0.3190
   87MOL    O1812230   1.170   4.501   3.941 -0.7766 -0.0259  0.0341
   87MOL    H1912231   1.016   4.539   4.127 -1.4467  0.0229  0.1877
   87MOL    H2012232   0.909   4.567   3.984 -0.9966  1.2738 -0.4482
   87MOL    H2112233   1.201   4.683   4.021 -0.9251 -0.8154  1.9889
   87MOL    H2212234   1.096   4.696   3.890  0.8504  0.4377 -0.1152
   87MOL    C2312235   1.266   4.513   3.836  0.0725  0.1580  0.4739
   87MOL    C2412236   1.242   4.427   3.708  0.3511 -0.5805 -0.5941
   87MOL    O2512237   1.126   4.453   3.635  0.5782 -0.0480 -0.3193
   87MOL    H2612238   1.271   4.611   3.789 -2.5481 -0.1649 -0.5011
   87MOL    H2712239   1.365   4.485   3.874 -1.0594 -1.9814  1.9651
   87MOL    H2812240   1.231   4.322   3.736 -1.2003  0.2085  1.9465
   87MOL    H2912241   1.324   4.441   3.638  1.0753 -0.1125  0.3323
   87MOL    C3012242   1.002   4.454   3.700 -0.3913 -0.0006 -0.3640
   87MOL    C3112243   0.893   4.452   3.602 -0.3781  0.0420  0.2807
   87MOL    O3212244   0.902   4.340   3.514 -0.1299  0.6862  0.3612
   87MOL    H3312245   0.994   4.371   3.770 -0.1790  0.1567 -0.1493
   87MOL    H3412246   0.993   4.551   3.750  1.6349 -1.7154  3.5621
   87MOL    H3512247   0.924   4.530   3.532  1.4502  1.9761  3.1845
   87MOL    H3612248   0.792   4.478   3.634 -1.0936 -3.5943  1.1626
   87MOL    C3712249   0.850   4.221   3.572  0.5353 -0.3238  0.3733
   87MOL    C3812250   0.946   4.110   3.537 -0.3044 -0.1403  0.1954
   87MOL    O3912251   0.926   4.086   3.398  0.8153  0.3643 -0.2828
   87MOL    H4012252   0.847   4.231   3.680  0.2938 -1.8375  0.5131
   87MOL    H4112253   0.751   4.209   3.528  1.3303 -1.2123 -1.2285
   87MOL    H4212254   0.908   4.030   3.601  2.5849 -2.3334 -0.7201
   87MOL    H4312255   1.050   4.137   3.554  0.0015 -0.2549 -1.4212
   87MOL    C4412256   1.004   3.969   3.357 -0.3728  0.0554  0.5856
   87MOL    C4512257   1.157   4.008   3.339  0.1486  0.1812  1.1505
   87MOL    O4612258   1.232   3.984   3.455 -0.4119  0.3579 -0.0965
   87MOL    H4712259   0.995   3.878   3.416  1.2991  0.4701  1.5246
   87MOL    H4812260   0.969   3.944   3.256  0.2580 -0.4910  0.4952
   87MOL    H4912261   1.165   4.107   3.294 -0.1527 -0.8835 -1.3335
   87MOL    H5012262   1.193   3.938   3.263 -2.5269  1.5848 -1.5457
   87MOL    C5112263   1.373   4.014   3.448  0.1258  0.3941  0.0341
   87MOL    C5212264   1.432   4.062   3.581  0.2858  0.4750  0.5575
   87MOL    O5312265   1.527   4.168   3.565  0.0036 -0.3677  0.1566
   87MOL    H5412266   1.423   3.924   3.413  1.8434  0.5852  1.8770
   87MOL    H5512267   1.403   4.090   3.376  0.0284  0.9728  0.6059
   87MOL    H5612268   1.470   3.977   3.638  0.5145 -0.9407 -1.6434
   87MOL    H5712269   1.354   4.095   3.650  0.2161 -0.4547  0.9282
   87MOL    C5812270   1.566   4.221   3.685  0.8637 -0.1194 -0.0239
   87MOL    C5912271   1.658   4.340   3.652 -0.2964  0.7351  0.0645
   87MOL    O6012272   1.573   4.449   3.653  0.1279 -0.1382  0.3626
   87MOL    H6112273   1.493   4.253   3.759  1.9435 -0.5859  1.2719
   87MOL    H6212274   1.617   4.147   3.746  0.4021  0.0027  0.5167
   87MOL    H6312275   1.714   4.324   3.561  0.1468 -0.0599  0.4707
   87MOL    H6412276   1.734   4.363   3.727  2.5695 -2.1837 -1.8088
   87MOL    C6512277   1.648   4.565   3.624 -0.1896 -0.6769  0.3519
   87MOL    C6612278   1.546   4.680   3.597 -0.6516 -0.2738 -0.0651
   87MOL    O6712279   1.514   4.736   3.724  0.0977 -0.3001 -0.4739
   87MOL    H6812280   1.721   4.599   3.697 -1.1864  3.2065 -0.3485
   87MOL    H6912281   1.690   4.551   3.525  0.6125  1.7410  0.3252
   87MOL    H7012282   1.454   4.644   3.551 -0.1847 -2.0807  0.3759
   87MOL    H7112283   1.575   4.758   3.526 -1.4632 -0.2463 -0.3684
   87MOL    C7212284   1.445   4.866   3.712 -0.6121  0.3503 -0.5327
   87MOL    C7312285   1.484   4.962   3.826 -0.4305 -0.4614 -0.1297
   87MOL    O7412286   1.581   5.049   3.769  0.9923 -0.0930 -0.4188
   87MOL    H7512287   1.459   4.921   3.619 -2.4313  3.3149  0.8618
   87MOL    H7612288   1.338   4.846   3.717 -0.4728 -0.3278 -0.1967
   87MOL    H7712289   1.536   4.910   3.907 -2.3342 -0.7730  0.9250
   87MOL    H7812290   1.402   5.021   3.867  0.7637  2.1178 -1.3428
   87MOL    C7912291   1.650   5.126   3.862 -0.4073  0.2320  0.0704
   87MOL    C8012292   1.715   5.242   3.777 -0.0998 -0.0232  0.1906
   87MOL    O8112293   1.609   5.334   3.737 -0.2220 -0.6615 -0.7487
   87MOL    H8212294   1.582   5.178   3.930  0.4416  0.2496  0.9207
   87MOL    H8312295   1.717   5.069   3.927  1.2426  2.5605  0.4678
   87MOL    H8412296   1.763   5.201   3.687 -1.4099  2.3418 -1.6437
   87MOL    H8512297   1.793   5.296   3.829 -0.7754 -1.2884  2.5821
   87MOL    C8612298   1.617   5.380   3.603 -0.7431  0.3353 -0.6156
   87MOL    C8712299   1.726   5.490   3.598 -0.8335 -0.7131 -0.4673
   87MOL    O8812300   1.850   5.436   3.607 -0.1786 -0.3906  0.8637
   87MOL    H8912301   1.628   5.303   3.527  1.4728 -0.9730  0.9592
   87MOL    H9012302   1.524   5.435   3.583 -1.0474  0.3337  0.7282
   87MOL    H9112303   1.708   5.551   3.686  1.6741  0.9480 -1.0640
   87MOL    H9212304   1.713   5.560   3.515 -0.2651  0.6528  0.5905
   87MOL    C9312305   1.944   5.544   3.628  0.2089  0.3453  0.6588
   87MOL    C9412306   2.084   5.498   3.619 -0.3514  0.4132 -0.3138
   87MOL    O9512307   2.108   5.380   3.711  0.1885 -0.3211  0.0110
   87MOL    H9612308   1.933   5.608   3.541 -1.2084  1.2253  1.4654
   87MOL    H9712309   1.932   5.596   3.724 -3.4069 -3.0287  2.1840
   87MOL    H9812310   2.148   5.579   3.654  1.8302 -1.9273  1.3689
   87MOL    H9912311   2.101   5.468   3.515 -0.7253 -0.6141 -0.0871
   87MOL   C10012312   2.239   5.332   3.702 -0.4009  0.0637 -0.1596
   87MOL   C10112313   2.246   5.243   3.578 -0.2119  0.0572  0.2012
   87MOL   O10212314   2.279   5.318   3.463 -0.6500 -0.0016  0.4018
   87MOL   H10312315   2.313   5.412   3.708  1.2628 -1.4531 -0.1280
   87MOL   H10412316   2.241   5.270   3.791 -2.2193  2.7223  1.8293
   87MOL   H10512317   2.148   5.197   3.565 -0.3941  0.4310  0.2502
   87MOL   H10612318   2.324   5.169   3.595  1.0552  0.9488 -1.6662
   87MOL   C10712319   2.276   5.251   3.338 -0.3965  0.1236  0.0511
   87MOL   C10812320   2.399   5.161   3.334 -0.1372 -0.5289 -0.1484
   87MOL   O10912321   2.377   5.039   3.402 -0.2197 -0.3945  0.0329
   87MOL   H11012322   2.187   5.192   3.319 -0.5012  0.3954 -0.3074
   87MOL   H11112323   2.278   5.324   3.257  1.9081  1.1557  0.9651
   87MOL   H11212324   2.493   5.204   3.369  0.5000 -1.0176 -1.2157
   87MOL   H11312325   2.419   5.138   3.229 -1.4082  0.9900 -0.7366
   87MOL   C11412326   2.471   4.935   3.370 -0.6619 -0.2350 -0.1211
   87MOL   C11512327   2.427   4.792   3.405 -0.3936 -0.1516  0.9729
   87MOL   O11612328   2.362   4.742   3.290 -0.5791 -0.1590 -0.1246
   87MOL   H11712329   2.499   4.936   3.265 -1.2778  2.3898 -0.3090
   87MOL   H11812330   2.562   4.953   3.428 -1.8217 -0.9796  1.9715
   87MOL   H11912331   2.362   4.795   3.493 -0.2062  2.9929  1.0481
   87MOL   H12012332   2.514   4.732   3.431 -1.6145 -2.1267  0.5856
   87MOL   C12112333   2.315   4.611   3.314  0.0665  0.1196  0.2721
   87MOL   C12212334   2.234   4.570   3.189 -0.3296 -0.1056 -0.7491
   87MOL   O12312335   2.149   4.463   3.223  0.5150 -0.0649  0.1697
   87MOL   H12412336   2.394   4.539   3.332 -0.9514 -1.3691 -1.1194
   87MOL   H12512337   2.246   4.605   3.398  0.4194 -0.1681  0.5394
   87MOL   H12612338   2.302   4.561   3.104  0.6913  1.2621 -0.1090
   87MOL   H12712339   2.172   4.656   3.163 -2.2250 -0.8943  1.0759
   87MOL   C12812340   2.068   4.417   3.114  0.0840 -0.1671  0.0388
   87MOL   C12912341   1.944   4.347   3.157  0.1979  0.9219  0.4787
   87MOL   O13012342   1.981   4.214   3.201  0.4609 -0.3283 -0.3865
   87MOL   H13112343   2.031   4.501   3.055  0.3493  0.3262  0.5652
   87MOL   H13212344   2.128   4.369   3.036 -1.4511  0.2959 -1.4469
   87MOL   H13312345   1.868   4.352   3.079 -0.3525  0.1510  0.9548
   87MOL   H13412346   1.909   4.417   3.233 -0.4534  0.4499  0.6198
   87MOL   C13512347   1.871   4.130   3.217 -0.5202  0.4873  0.1028
   87MOL   C13612348   1.911   3.990   3.258 -0.4360  0.5254 -0.5119
   87MOL   O13712349   1.943   3.920   3.136 -0.2125 -0.3293  0.7564
   87MOL   H13812350   1.792   4.174   3.279 -1.6189  1.2528 -1.8073
   87MOL   H13912351   1.828   4.127   3.117 -0.1488 -1.4454 -0.0183
   87MOL   H14012352   1.831   3.937   3.309  1.1874  0.1704  1.7351
   87MOL   H14112353   1.997   3.999   3.324  0.1780 -0.6354 -1.1472
   87MOL   H14212354   2.023   3.956   3.102 -0.1258 -0.9013  0.3337
   88MOL     C112355   2.181   6.307   2.677 -0.9477  0.1952 -0.3206
   88MOL     C212356   2.211   6.461   2.670 -0.2183 -0.0858  0.2818
   88MOL     O312357   2.131   6.516   2.775  0.2061  0.1807  0.2693
   88MOL     H412358   2.168   6.282   2.782 -0.0340 -0.1786 -0.2912
   88MOL     H512359   2.261   6.251   2.627 -1.0267  1.9803 -2.5300
   88MOL     H612360   2.170   6.497   2.576  1.4715 -0.2201 -0.5270
   88MOL     H712361   2.315   6.484   2.690 -0.2929  0.8710 -0.4138
   88MOL     H812362   2.090   6.281   2.623 -0.6068 -1.2301 -0.2488
   88MOL     C912363   2.167   6.649   2.798  0.4253  0.1096  0.0656
   88MOL    C1012364   2.054   6.723   2.889 -0.0985  0.0496 -0.4043
   88MOL    O1112365   2.077   6.726   3.028 -0.8838  0.8334  0.1585
   88MOL    H1212366   2.267   6.646   2.839  0.1675  0.0995  0.7001
   88MOL    H1312367   2.162   6.697   2.700  1.0698 -1.2572 -0.6534
   88MOL    H1412368   1.952   6.692   2.867 -0.4810  0.8862  0.1276
   88MOL    H1512369   2.050   6.829   2.863 -1.6778  0.2064  0.4350
   88MOL    C1612370   2.078   6.598   3.087 -0.3183  0.0142 -0.3537
   88MOL    C1712371   2.110   6.606   3.234  0.3968 -0.3344  0.2370
   88MOL    O1812372   2.243   6.659   3.255 -0.5433  0.2014 -0.1509
   88MOL    H1912373   1.985   6.548   3.061  0.4254 -1.0283 -1.0274
   88MOL    H2012374   2.150   6.529   3.043 -0.6798 -1.1810  0.8902
   88MOL    H2112375   2.110   6.503   3.267  2.1257 -0.1448  0.8787
   88MOL    H2212376   2.030   6.666   3.278  1.4180  0.1808  1.4296
   88MOL    C2312377   2.261   6.696   3.393  0.1283 -0.0965  0.4502
   88MOL    C2412378   2.401   6.735   3.424 -0.5815 -0.1220  0.3000
   88MOL    O2512379   2.423   6.874   3.446 -0.1554 -0.4147 -0.0640
   88MOL    H2612380   2.192   6.777   3.415  0.1799 -0.4210  1.8117
   88MOL    H2712381   2.234   6.606   3.449 -1.0016  1.2027  1.9995
   88MOL    H2812382   2.474   6.702   3.349 -0.0344 -0.2076  0.8634
   88MOL    H2912383   2.429   6.681   3.515 -1.6778  0.0106  0.7220
   88MOL    C3012384   2.425   6.957   3.330 -0.0049 -0.7921  1.0906
   88MOL    C3112385   2.438   7.111   3.361  0.8993  0.2768  0.1862
   88MOL    O3212386   2.318   7.152   3.413  0.0862  0.0617 -0.0189
   88MOL    H3312387   2.502   6.931   3.257 -2.4951  2.7136 -3.0460
   88MOL    H3412388   2.341   6.929   3.265  0.9488  0.4050 -0.6855
   88MOL    H3512389   2.458   7.154   3.263  0.8061 -0.1982 -0.0414
   88MOL    H3612390   2.533   7.127   3.413  1.7503 -1.6759 -0.7079
   88MOL    C3712391   2.301   7.292   3.396  0.0834  0.1039 -0.4826
   88MOL    C3812392   2.381   7.380   3.498  0.0340  0.0621 -0.5033
   88MOL    O3912393   2.510   7.413   3.451  0.1791  0.2099 -0.6281
   88MOL    H4012394   2.320   7.322   3.293  2.1899  0.7099  0.0642
   88MOL    H4112395   2.200   7.319   3.426  0.1681 -0.0564 -0.0477
   88MOL    H4212396   2.380   7.332   3.597 -1.5764  0.0194 -0.5306
   88MOL    H4312397   2.322   7.468   3.523 -1.6046 -1.0093 -0.5302
   88MOL    C4412398   2.590   7.477   3.546 -0.5877  0.1978 -0.1178
   88MOL    C4512399   2.727   7.501   3.506  0.9035 -0.1743  0.4370
   88MOL    O4612400   2.754   7.607   3.413  0.4401 -0.0996 -0.2584
   88MOL    H4712401   2.540   7.572   3.560  1.0936  1.0734  0.0147
   88MOL    H4812402   2.589   7.422   3.640  0.5387  0.2608 -0.0652
   88MOL    H4912403   2.757   7.403   3.467  1.9088 -0.1635  1.1535
   88MOL    H5012404   2.776   7.527   3.600  0.9252  2.3483 -0.2371
   88MOL    C5112405   2.890   7.612   3.358 -0.1920 -0.3947  0.0026
   88MOL    C5212406   2.979   7.694   3.453  0.5462  0.6967  0.0855
   88MOL    O5312407   3.006   7.624   3.576  0.3381 -0.0809  0.6381
   88MOL    H5412408   2.929   7.515   3.328  0.4377 -0.1263 -0.0730
   88MOL    H5512409   2.892   7.671   3.267 -1.6823  0.1338  0.3133
   88MOL    H5612410   2.933   0.020   3.471  1.3385  1.2993 -1.0810
   88MOL    H5712411   3.076   7.724   3.412  0.9955  0.0511  0.6835
   88MOL    C5812412   3.063   7.703   3.679 -0.6172 -0.3539  0.2156
   88MOL    C5912413   3.031   7.640   3.819  0.1177 -0.1565 -0.0189
   88MOL    O6012414   2.916   7.713   3.861  0.0482 -0.2097  0.5231
   88MOL    H6112415   3.171   7.706   3.668 -0.4849 -1.1299  1.1391
   88MOL    H6212416   3.020   0.032   3.676  2.3388  1.0017  1.5105
   88MOL    H6312417   3.113   7.662   3.887 -0.8257  0.6224  0.8898
   88MOL    H6412418   3.011   7.533   3.828 -0.3215 -0.0627  0.1843
   88MOL    C6512419   2.898   7.685   3.997 -0.5065 -0.3820 -0.0475
   88MOL    C6612420   2.820   0.024   4.067  0.0089 -0.2924 -0.5908
   88MOL    O6712421   2.897   0.145   4.074 -0.5545  0.4830 -0.0080
   88MOL    H6812422   2.842   7.592   4.013  0.8738 -1.2763 -0.3631
   88MOL    H6912423   2.990   7.677   4.055 -0.8236  1.1596  0.7116
   88MOL    H7012424   2.789   7.768   4.168 -0.8217  0.1181 -0.7301
   88MOL    H7112425   2.733   0.035   4.003  0.0186 -0.6836 -0.6760
   88MOL    C7212426   2.976   0.141   4.193 -1.0084 -0.3121 -0.4752
   88MOL    C7312427   3.092   0.248   4.175 -0.5018  0.4222 -0.6496
   88MOL    O7412428   3.168   0.258   4.295  0.4194  1.0082  0.7701
   88MOL    H7512429   2.920   0.182   4.277 -1.4108 -0.6644 -0.5691
   88MOL    H7612430   3.026   0.046   4.213 -1.6659 -0.5994 -0.1905
   88MOL    H7712431   3.048   0.345   4.153  0.4918  0.8038 -1.0083
   88MOL    H7812432   3.161   0.219   4.095  1.8665  1.0925  1.0799
   88MOL    C7912433   3.284   0.333   4.284 -0.9535 -0.4695  0.0872
   88MOL    C8012434   3.336   0.383   4.422  0.5773 -0.5060  0.2112
   88MOL    O8112435   3.396   0.276   4.489  0.2536  0.0836 -0.3006
   88MOL    H8212436   3.362   0.277   4.231  0.3364 -0.0746  1.5325
   88MOL    H8312437   3.257   0.423   4.229 -0.4973  0.5701  1.5581
   88MOL    H8412438   3.258   0.436   4.476  0.9551  1.3327 -1.0197
   88MOL    H8512439   3.422   0.450   4.416  1.5901 -1.7614  0.4173
   88MOL    C8612440   3.470   0.306   4.611 -0.1274  0.2844 -0.4097
   88MOL    C8712441   3.613   0.357   4.586  0.6106  0.2572  0.2307
   88MOL    O8812442   3.616   0.493   4.570 -0.1354 -0.4891 -0.0708
   88MOL    H8912443   3.411   0.383   4.662  0.6992  0.6564 -0.0116
   88MOL    H9012444   3.472   0.216   4.672 -0.1832  1.8282  1.9289
   88MOL    H9112445   3.664   0.299   4.508  0.6729  0.4898  0.0964
   88MOL    H9212446   3.675   0.335   4.673  0.7062 -0.0834  0.0803
   88MOL    C9312447   3.739   0.552   4.541 -0.1529 -0.0611  0.0681
   88MOL    C9412448   3.711   0.699   4.538  0.1375 -0.1131  0.3363
   88MOL    O9512449   3.689   0.747   4.403  0.1859  0.3778 -0.2512
   88MOL    H9612450   3.808   0.523   4.621 -0.9472 -1.8251  0.1447
   88MOL    H9712451   3.786   0.525   4.447  1.4633  3.3121 -0.1408
   88MOL    H9812452   3.792   0.757   4.582 -0.2911 -0.7869  2.0487
   88MOL    H9912453   3.626   0.733   4.597  0.3648  0.7754  0.1532
   88MOL   C10012454   3.692   0.895   4.385 -0.5222 -0.3406 -0.2309
   88MOL   C10112455   3.705   0.947   4.243  0.2664 -0.0481 -0.4546
   88MOL   O10212456   3.581   0.991   4.189  0.2251  0.5570 -0.8272
   88MOL   H10312457   3.608   0.941   4.438 -1.3779 -1.0570 -0.9469
   88MOL   H10412458   3.788   0.921   4.429 -1.7318  2.0384  1.1368
   88MOL   H10512459   3.757   0.875   4.179  1.0530  0.7269 -0.7001
   88MOL   H10612460   3.776   1.029   4.234  0.2957  0.2167  1.8861
   88MOL   C10712461   3.589   1.051   4.060 -0.5933  0.5808  0.9555
   88MOL   C10812462   3.456   1.068   3.990 -0.2062 -0.1713 -0.2725
   88MOL   O10912463   3.391   1.184   4.038 -0.4060  0.8673 -0.2976
   88MOL   H11012464   3.637   1.147   4.079  1.4233 -0.7817  2.8541
   88MOL   H11112465   3.661   0.998   3.998  1.4159  2.0739  1.9812
   88MOL   H11212466   3.400   0.975   3.997  0.2300 -0.4993 -1.1301
   88MOL   H11312467   3.481   1.074   3.884  1.1057 -1.0340 -0.0281
   88MOL   C11412468   3.257   1.177   3.999  0.0822  0.4049  0.1657
   88MOL   C11512469   3.188   1.309   4.041 -0.7627 -0.5488  0.3928
   88MOL   O11612470   3.116   1.285   4.161  0.1394  0.2670 -0.4138
   88MOL   H11712471   3.252   1.171   3.890 -0.9983  2.4213  0.0820
   88MOL   H11812472   3.192   1.102   4.045 -0.8698  0.3462 -1.2289
   88MOL   H11912473   3.128   1.334   3.954  0.8211 -1.2667 -0.9495
   88MOL   H12012474   3.261   1.390   4.048 -0.6833 -0.6547  0.7964
   88MOL   C12112475   3.060   1.405   4.215 -0.6623  0.7943  0.3902
   88MOL   C12212476   2.911   1.425   4.169 -0.4145 -0.2740  0.5899
   88MOL   O12312477   2.896   1.514   4.055 -0.2660  0.1405 -0.1529
   88MOL   H12412478   3.051   1.380   4.321 -1.7163  0.1767  0.1608
   88MOL   H12512479   3.130   1.485   4.192  0.2111 -0.1632 -0.3380
   88MOL   H12612480   2.859   1.480   4.247 -3.0834 -0.1766 -1.1999
   88MOL   H12712481   2.856   1.332   4.155 -0.8828 -0.2586  2.2156
   88MOL   C12812482   2.760   1.546   4.036 -0.2539 -0.4869 -0.2796
   88MOL   C12912483   2.747   1.645   3.922  0.2227  0.6299 -0.3436
   88MOL   O13012484   2.794   1.775   3.946 -0.3001 -0.1731 -0.0498
   88MOL   H13112485   2.705   1.457   4.006  1.4013 -1.5107 -0.3582
   88MOL   H13212486   2.708   1.574   4.128  0.9639  2.2660 -0.4107
   88MOL   H13312487   2.640   1.653   3.905  0.1004 -1.1635 -0.4197
   88MOL   H13412488   2.790   1.601   3.833 -0.3270  0.0433 -0.3155
   88MOL   C13512489   2.753   1.870   3.854 -0.4554 -0.1478  0.7255
   88MOL   C13612490   2.873   1.974   3.856 -0.4297 -0.6790  0.8926
   88MOL   O13712491   2.951   1.953   3.743 -0.0494  0.3727 -0.0136
   88MOL   H13812492   2.724   1.832   3.756 -0.3858  0.4970  0.4543
   88MOL   H13912493   2.667   1.918   3.901 -0.5159 -0.2187  0.6859
   88MOL   H14012494   2.939   1.978   3.942 -1.7929  2.1736  1.8436
   88MOL   H14112495   2.825   2.071   3.845  2.4672  0.5367 -1.5487
   88MOL   H14212496   2.962   1.859   3.743 -1.4354  0.1889 -1.8193
   89MOL     C112497   2.847   3.783   2.370 -0.0749  0.2276  0.0895
   89MOL     C212498   2.694   3.793   2.393 -0.2050 -0.5757  0.0699
   89MOL     O312499   2.635   3.663   2.410 -0.3786  0.9457  0.1535
   89MOL     H412500   2.850   3.739   2.270  0.2855  1.2084 -0.3382
   89MOL     H512501   2.900   3.715   2.436 -0.8858 -0.0381  0.4714
   89MOL     H612502   2.658   3.834   2.299  1.0708  0.5984  0.0730
   89MOL     H712503   2.667   3.862   2.473  0.8445 -1.4843  1.2284
   89MOL     H812504   2.885   3.885   2.367  0.2005  0.1421  0.7921
   89MOL     C912505   2.492   3.668   2.442 -0.5981  0.0423  0.0135
   89MOL    C1012506   2.446   3.528   2.450  0.5681  0.2437  0.4640
   89MOL    O1112507   2.458   3.472   2.576 -0.5925 -0.2389 -0.3953
   89MOL    H1212508   2.484   3.726   2.534  0.6356  0.5407 -0.1773
   89MOL    H1312509   2.448   3.730   2.363 -0.6580  1.0391  0.8182
   89MOL    H1412510   2.486   3.474   2.364  0.3969 -1.0427  1.1828
   89MOL    H1512511   2.340   3.525   2.421  0.7886  1.8504 -0.5246
   89MOL    C1612512   2.447   3.329   2.578 -0.1744 -0.6555 -0.4440
   89MOL    C1712513   2.298   3.282   2.593  0.5957 -0.1726  0.7527
   89MOL    O1812514   2.248   3.273   2.459  0.8339 -0.1408 -0.2604
   89MOL    H1912515   2.501   3.277   2.499  0.0031 -0.0376 -0.7384
   89MOL    H2012516   2.499   3.300   2.669 -2.8131 -0.0655  1.2929
   89MOL    H2112517   2.242   3.349   2.659  0.3759 -0.5906  0.9945
   89MOL    H2212518   2.294   3.182   2.635  0.8727 -0.9538 -1.0483
   89MOL    C2312519   2.113   3.266   2.451  0.6376 -0.1943  0.2267
   89MOL    C2412520   2.089   3.268   2.303 -0.3484 -0.5800  0.0325
   89MOL    O2512521   2.107   3.391   2.249  0.3951  0.1809  0.0294
   89MOL    H2612522   2.084   3.174   2.502  2.5726 -1.4608 -0.9127
   89MOL    H2712523   2.063   3.350   2.499  0.9698  0.4107 -0.4702
   89MOL    H2812524   1.985   3.242   2.283 -0.1199  0.5512 -2.8106
   89MOL    H2912525   2.156   3.197   2.256 -1.6004 -0.7739 -1.4569
   89MOL    C3012526   2.123   3.393   2.103  0.0987  0.3152  0.9254
   89MOL    C3112527   1.997   3.356   2.022 -0.8629  0.1022 -0.2616
   89MOL    O3212528   1.994   3.220   1.969  0.1104  0.5119 -0.4161
   89MOL    H3312529   2.142   3.495   2.069 -0.6921 -0.1639 -0.9717
   89MOL    H3412530   2.207   3.334   2.067 -0.1475  1.0176 -0.8515
   89MOL    H3512531   1.987   3.420   1.934 -0.6120  0.2169 -0.2086
   89MOL    H3612532   1.912   3.375   2.087 -0.8243  0.6672 -0.3672
   89MOL    C3712533   1.863   3.182   1.910 -1.0170 -0.3030 -0.7548
   89MOL    C3812534   1.733   3.216   1.990 -0.2472 -0.6891 -0.2339
   89MOL    O3912535   1.747   3.178   2.122 -0.1348 -0.0623 -0.4789
   89MOL    H4012536   1.858   3.214   1.806  0.4492  0.9996 -0.4522
   89MOL    H4112537   1.878   3.074   1.906  0.4290 -0.1255 -0.5729
   89MOL    H4212538   1.664   3.146   1.944 -0.8683 -1.2438  1.5151
   89MOL    H4312539   1.706   3.322   1.989 -1.2652 -0.8150  3.7705
   89MOL    C4412540   1.628   3.155   2.194 -0.0488  0.9778  0.2754
   89MOL    C4512541   1.658   3.092   2.329  0.2692  0.3266 -0.6035
   89MOL    O4612542   1.676   3.197   2.421  0.2997  0.1825 -0.3619
   89MOL    H4712543   1.572   3.247   2.206  1.9775  2.1580  0.8471
   89MOL    H4812544   1.563   3.092   2.132  0.1292 -0.4144  1.4874
   89MOL    H4912545   1.743   3.024   2.342 -0.7083 -0.8445 -0.2816
   89MOL    H5012546   1.570   3.038   2.362  0.0517  1.2469  0.3451
   89MOL    C5112547   1.696   3.156   2.556  0.0053 -0.8907 -0.0769
   89MOL    C5212548   1.737   3.289   2.632  0.3077 -0.4916 -0.1668
   89MOL    O5312549   1.615   3.362   2.631 -0.2856  0.3232 -0.0533
   89MOL    H5412550   1.608   3.117   2.609 -1.4175 -1.4087 -2.7294
   89MOL    H5512551   1.775   3.081   2.558  1.7146  0.8227 -1.7465
   89MOL    H5612552   1.825   3.342   2.598  1.1120 -1.9675 -0.4569
   89MOL    H5712553   1.757   3.268   2.738  1.4792 -0.7188 -0.4210
   89MOL    C5812554   1.627   3.490   2.685 -0.1592  0.0215 -0.0407
   89MOL    C5912555   1.688   3.577   2.575  0.1112 -0.8462  0.0105
   89MOL    O6012556   1.827   3.587   2.599  0.2783  0.0833 -0.1516
   89MOL    H6112557   1.528   3.526   2.716  0.2416  1.0651  0.0489
   89MOL    H6212558   1.686   3.501   2.776 -3.4353 -0.5145  2.2419
   89MOL    H6312559   1.649   3.679   2.577 -0.7336 -1.1579 -0.3411
   89MOL    H6412560   1.667   3.534   2.477  0.7971  0.4997 -0.7401
   89MOL    C6512561   1.895   3.630   2.479  0.6898  0.1820  0.5575
   89MOL    C6612562   2.043   3.635   2.527  0.8462  0.0278 -0.7960
   89MOL    O6712563   2.040   3.762   2.592 -0.0440  0.0335 -0.8111
   89MOL    H6812564   1.895   3.557   2.398  0.5443  0.1042  0.6277
   89MOL    H6912565   1.851   3.713   2.423 -0.5844  0.7056  2.3079
   89MOL    H7012566   2.108   3.623   2.441  0.7047 -3.6694 -0.4893
   89MOL    H7112567   2.068   3.555   2.597 -2.3945  0.4533  0.9381
   89MOL    C7212568   2.155   3.777   2.672 -0.1315 -0.5308 -0.6470
   89MOL    C7312569   2.173   3.930   2.708 -0.2037 -0.4077  1.1690
   89MOL    O7412570   2.103   3.969   2.827  0.4397  0.3452  0.2765
   89MOL    H7512571   2.131   3.720   2.761  1.2443  0.4744  0.3834
   89MOL    H7612572   2.243   3.730   2.630  0.1082 -1.6692  1.1001
   89MOL    H7712573   2.143   3.989   2.622  2.3862  0.5417  0.8596
   89MOL    H7812574   2.279   3.955   2.723  0.3666 -0.0912 -2.9586
   89MOL    C7912575   2.129   4.102   2.874  0.3377  0.6871 -0.0458
   89MOL    C8012576   2.267   4.111   2.942 -0.0559  0.0659  0.1800
   89MOL    O8112577   2.291   4.017   3.051  0.3073 -0.1475 -0.6498
   89MOL    H8212578   2.130   4.176   2.795  1.9683 -0.3766 -1.0462
   89MOL    H8312579   2.062   4.138   2.953  2.5674  3.7276  0.5473
   89MOL    H8412580   2.283   4.216   2.966 -1.2431  0.0817  0.9321
   89MOL    H8512581   2.341   4.101   2.863  1.5536 -0.7615  1.7671
   89MOL    C8612582   2.407   4.061   3.134 -0.7375  0.2580  0.7126
   89MOL    C8712583   2.540   4.001   3.080 -0.0753 -0.3368 -0.1843
   89MOL    O8812584   2.582   4.084   2.970  0.2257  0.0082  0.1901
   89MOL    H8912585   2.414   4.167   3.155  0.6132  0.8977 -2.6607
   89MOL    H9012586   2.382   4.030   3.236 -2.0434  0.8207  0.5742
   89MOL    H9112587   2.533   3.896   3.053  1.9408 -0.1939 -1.3691
   89MOL    H9212588   2.606   4.003   3.167  0.2559  3.4294 -0.4162
   89MOL    C9312589   2.691   4.024   2.900  0.8779 -0.1092  0.0006
   89MOL    C9412590   2.815   4.035   2.984 -0.0376  0.0837 -0.5060
   89MOL    O9512591   2.816   3.917   3.068  0.3421 -0.9758 -0.5731
   89MOL    H9612592   2.679   3.924   2.859  0.0634 -0.4332  1.0278
   89MOL    H9712593   2.717   4.087   2.814 -1.6379  1.2269  0.1555
   89MOL    H9812594   2.807   4.126   3.044 -0.5302 -0.5943  0.4725
   89MOL    H9912595   2.913   4.040   2.937 -0.3464 -1.6610 -1.3694
   89MOL   C10012596   2.892   3.933   3.186  0.1721  0.1644  0.0256
   89MOL   C10112597   2.862   3.808   3.275  0.0298 -0.3678 -0.6088
   89MOL   O10212598   2.726   3.801   3.293 -0.3874 -0.0949  0.3895
   89MOL   H10312599   2.999   3.938   3.164  0.4296 -0.8774  0.9722
   89MOL   H10412600   2.861   4.026   3.234 -0.8160 -0.7851  1.2567
   89MOL   H10512601   2.916   3.809   3.369  1.6164  0.8486 -1.4899
   89MOL   H10612602   2.895   3.720   3.219 -0.1116 -0.1428 -1.0536
   89MOL   C10712603   2.693   3.679   3.356 -0.0473  0.7572  0.0870
   89MOL   C10812604   2.536   3.659   3.366 -0.4912 -0.5248  0.2075
   89MOL   O10912605   2.477   3.669   3.238 -0.1308 -0.1633  0.1846
   89MOL   H11012606   2.724   3.591   3.300 -0.9127  0.0207  0.7452
   89MOL   H11112607   2.738   3.663   3.454  2.7194 -0.1153 -1.2930
   89MOL   H11212608   2.495   3.739   3.427  0.1009 -0.0712  0.0133
   89MOL   H11312609   2.521   3.564   3.417 -0.9875  0.3624  1.7341
   89MOL   C11412610   2.340   3.683   3.233  0.4518 -0.0844  0.2342
   89MOL   C11512611   2.308   3.692   3.086 -0.5232 -0.4802  0.7148
   89MOL   O11612612   2.287   3.563   3.025  0.3653 -0.1737  0.3370
   89MOL   H11712613   2.281   3.601   3.275 -0.9087 -1.1133 -3.4957
   89MOL   H11812614   2.298   3.770   3.283 -2.0132 -0.7000 -0.7023
   89MOL   H11912615   2.378   3.761   3.040  2.3379 -1.3359  3.5297
   89MOL   H12012616   2.213   3.744   3.084 -0.7804 -0.9779 -0.5003
   89MOL   C12112617   2.349   3.544   2.903 -0.2587 -0.3022  0.2852
   89MOL   C12212618   2.501   3.512   2.921  0.0315  0.2581 -0.0269
   89MOL   O12312619   2.521   3.376   2.944  0.6038 -0.1343  0.1887
   89MOL   H12412620   2.313   3.457   2.846 -0.4064 -0.2571  0.3087
   89MOL   H12512621   2.337   3.627   2.834  2.4655 -1.3544 -1.5231
   89MOL   H12612622   2.537   3.571   3.005  0.0150 -1.7456  1.4285
   89MOL   H12712623   2.553   3.541   2.830  0.6612  1.7131  0.7660
   89MOL   C12812624   2.645   3.345   2.995 -0.3888 -0.1309  0.2675
   89MOL   C12912625   2.648   3.199   3.025 -0.8285 -0.0994  0.3331
   89MOL   O13012626   2.658   3.142   2.893 -0.1305  0.8061  0.2903
   89MOL   H13112627   2.728   3.363   2.926  0.7077 -0.7146  1.4115
   89MOL   H13212628   2.662   3.390   3.093 -0.1537  0.4502 -0.0361
   89MOL   H13312629   2.562   3.151   3.071 -2.9311 -0.3263 -3.5364
   89MOL   H13412630   2.739   3.179   3.081 -0.8870 -0.4339  0.3091
   89MOL   C13512631   2.608   3.011   2.882  0.4028 -0.1947  0.3395
   89MOL   C13612632   2.477   3.020   2.803  0.1444  0.4078  0.0669
   89MOL   O13712633   2.391   3.110   2.863  0.0429 -0.0138  0.3505
   89MOL   H13812634   2.682   2.961   2.819 -0.1395 -0.1312 -0.3466
   89MOL   H13912635   2.597   2.958   2.977 -1.2914 -0.1042  0.2051
   89MOL   H14012636   2.436   2.919   2.799 -1.3508  0.9857  0.3797
   89MOL   H14112637   2.494   3.043   2.698  0.0417  2.2971  0.4466
   89MOL   H14212638   2.441   3.173   2.911 -0.3330  0.1690  0.5060
   90MOL     C112639   2.338   4.373   3.927  0.1228  0.2485 -0.8129
   90MOL     C212640   2.450   4.279   3.973 -0.2172 -0.5081  0.5095
   90MOL     O312641   2.582   4.332   3.947  0.0806  0.5396 -0.0168
   90MOL     H412642   2.353   4.475   3.963  0.2439  0.3969 -1.2831
   90MOL     H512643   2.240   4.347   3.967 -0.7514  1.7169 -1.9646
   90MOL     H612644   2.437   4.181   3.927 -1.9433 -0.1943  0.3138
   90MOL     H712645   2.441   4.258   4.080 -0.6250  1.8012  0.9580
   90MOL     H812646   2.327   4.362   3.820 -0.4546  0.8376 -0.8188
   90MOL     C912647   2.685   4.250   4.004  0.0815 -0.4854 -0.9830
   90MOL    C1012648   2.818   4.317   3.999 -0.4820 -0.2273 -0.4308
   90MOL    O1112649   2.896   4.279   3.886 -0.5793  0.2724 -0.7999
   90MOL    H1212650   2.652   4.217   4.103 -0.0725 -0.4964 -1.0377
   90MOL    H1312651   2.697   4.155   3.953  0.6737 -0.7116 -0.4192
   90MOL    H1412652   2.866   4.298   4.095 -1.9629  1.5929  0.7085
   90MOL    H1512653   2.807   4.426   4.008 -1.5446 -0.3616 -0.0590
   90MOL    C1612654   2.841   4.329   3.758 -0.0466 -0.7040  0.2156
   90MOL    C1712655   2.964   4.364   3.677  0.6220  0.0262  0.3361
   90MOL    O1812656   3.013   4.234   3.623  0.1962  0.5382 -0.1455
   90MOL    H1912657   2.787   4.248   3.710 -0.0888 -1.7964  2.0570
   90MOL    H2012658   2.780   4.419   3.768  0.5038 -0.3003  0.0045
   90MOL    H2112659   3.029   4.413   3.749 -0.4069 -1.7045  2.5149
   90MOL    H2212660   2.946   4.439   3.600 -0.4451 -0.4613  0.0978
   90MOL    C2312661   3.147   4.225   3.587 -0.0581 -0.0377  0.4361
   90MOL    C2412662   3.145   4.123   3.464  0.4212  0.9364 -0.1309
   90MOL    O2512663   3.146   4.192   3.342  0.4220 -0.0603  0.0952
   90MOL    H2612664   3.189   4.320   3.553 -0.4536  0.2474  0.7434
   90MOL    H2712665   3.210   4.179   3.663  0.3018 -1.1507 -0.5130
   90MOL    H2812666   3.064   4.050   3.470 -0.1112  1.3174 -2.1821
   90MOL    H2912667   3.236   4.064   3.470 -0.9529 -1.0686  1.7060
   90MOL    C3012668   3.027   4.265   3.316 -0.2049 -0.0372 -0.3436
   90MOL    C3112669   3.046   4.330   3.173  0.5048  0.5126  0.0234
   90MOL    O3212670   3.046   4.236   3.061 -0.6105 -0.3162 -0.1958
   90MOL    H3312671   2.936   4.205   3.323 -0.3203 -0.2114 -2.7849
   90MOL    H3412672   3.015   4.349   3.385  0.1398  1.5814 -2.1930
   90MOL    H3512673   3.132   4.397   3.167  0.8707  0.3315  2.7731
   90MOL    H3612674   2.961   4.391   3.140 -1.3675 -0.3269  3.0829
   90MOL    C3712675   3.155   4.156   3.047  0.1235  0.3564 -0.2658
   90MOL    C3812676   3.290   4.229   3.023 -0.0868  0.0154 -0.1852
   90MOL    O3912677   3.376   4.152   2.941 -0.1825  0.0557  0.0971
   90MOL    H4012678   3.166   4.077   3.120 -1.1047  0.7025  0.2946
   90MOL    H4112679   3.121   4.107   2.956  0.5246 -1.5146  0.5711
   90MOL    H4212680   3.335   4.242   3.121 -1.0279 -1.1015  0.4124
   90MOL    H4312681   3.275   4.326   2.976  1.6010  0.5145  0.3103
   90MOL    C4412682   3.505   4.219   2.935  0.5267  0.2181  0.1376
   90MOL    C4512683   3.605   4.132   2.865  0.4709  0.0365 -0.2224
   90MOL    O4612684   3.644   4.038   2.966  0.1489 -0.1433 -0.4359
   90MOL    H4712685   3.517   4.314   2.884 -1.8013 -0.0472 -0.9914
   90MOL    H4812686   3.537   4.240   3.037  0.4305  1.6469 -0.1104
   90MOL    H4912687   3.693   4.192   2.842  2.2168 -2.1718  0.4993
   90MOL    H5012688   3.563   4.076   2.781  0.7972  0.3770 -0.6116
   90MOL    C5112689   3.765   3.965   2.949  0.6306  0.3869 -0.0821
   90MOL    C5212690   3.808   3.877   3.080  0.3990  0.6242 -0.1899
   90MOL    O5312691   3.865   3.971   3.171 -0.1400  0.2247 -0.2836
   90MOL    H5412692   3.755   3.891   2.870 -0.2564 -0.5391  0.8840
   90MOL    H5512693   3.838   4.033   2.904  2.2396 -1.7572 -0.8146
   90MOL    H5612694   3.877   3.800   3.047 -1.2138 -0.7239 -0.4988
   90MOL    H5712695   3.724   3.818   3.117  1.1334 -0.2534  0.1020
   90MOL    C5812696   3.946   3.905   3.265 -0.1950 -0.1601  0.0152
   90MOL    C5912697   3.990   4.004   3.376 -0.2642 -0.4596  0.3060
   90MOL    O6012698   4.089   3.947   3.466  0.1703 -0.0257  0.1351
   90MOL    H6112699   3.893   3.822   3.312 -0.1954  0.8695  1.8956
   90MOL    H6212700   4.034   3.872   3.210 -0.8109  0.0993 -1.1483
   90MOL    H6312701   3.908   4.034   3.441  1.0610  2.2625  0.8384
   90MOL    H6412702   4.029   4.096   3.331  1.6867 -1.2766  0.2515
   90MOL    C6512703   4.140   4.037   3.563  1.0662  0.1153  0.2892
   90MOL    C6612704   4.266   3.985   3.626  0.2052  0.3964  0.5153
   90MOL    O6712705   4.271   3.840   3.620  0.4236 -0.3541  0.5839
   90MOL    H6812706   4.160   4.131   3.512  0.3678  0.0308 -0.1405
   90MOL    H6912707   4.052   4.053   3.625 -0.3965 -2.1734 -1.1250
   90MOL    H7012708   4.270   4.034   3.723 -5.2013  3.3885 -0.5854
   90MOL    H7112709   4.354   4.022   3.572  1.0592 -1.9096  0.2802
   90MOL    C7212710   4.227   3.776   3.737 -0.1557  0.2363 -0.4094
   90MOL    C7312711   4.258   3.630   3.738  0.1399  0.6508  0.3423
   90MOL    O7412712   4.153   3.543   3.691  0.3065  0.1506 -0.4166
   90MOL    H7512713   4.278   3.814   3.825  0.3618  2.3680 -1.5975
   90MOL    H7612714   4.123   3.778   3.772  0.0771  1.9881  0.2778
   90MOL    H7712715   4.270   3.606   3.843  0.9121 -0.2129  0.0647
   90MOL    H7812716   4.351   3.597   3.691 -0.0449 -0.8524  1.0185
   90MOL    C7912717   4.137   3.551   3.552 -0.2931 -0.5191  0.2360
   90MOL    C8012718   4.007   3.628   3.505 -0.4268  0.3878  0.8628
   90MOL    O8112719   3.895   3.545   3.516  0.0402  0.5594 -0.1672
   90MOL    H8212720   4.224   3.591   3.500  0.2145 -1.2695  0.5162
   90MOL    H8312721   4.136   3.450   3.511  1.6885 -0.6244  0.3908
   90MOL    H8412722   4.008   3.649   3.398 -0.7615  1.1388  1.0004
   90MOL    H8512723   3.994   3.718   3.565  0.6794  1.3198 -0.2706
   90MOL    C8612724   3.834   3.560   3.646 -0.0037 -0.1984 -0.0760
   90MOL    C8712725   3.734   3.449   3.676  0.1161  0.3916  0.9913
   90MOL    O8812726   3.615   3.480   3.607 -0.1685  0.0437 -0.3363
   90MOL    H8912727   3.907   3.558   3.727  0.1064  1.1538 -0.1339
   90MOL    H9012728   3.788   3.658   3.658 -0.6326 -0.5910  0.8432
   90MOL    H9112729   3.711   3.447   3.783  0.6189  0.6864  1.1054
   90MOL    H9212730   3.784   3.357   3.647 -0.4759  0.2826  0.3095
   90MOL    C9312731   3.508   3.396   3.606  0.3646 -0.1930 -0.1895
   90MOL    C9412732   3.431   3.409   3.740  0.9684  0.2841  0.5172
   90MOL    O9512733   3.496   3.355   3.855  0.2821 -0.8705 -0.0544
   90MOL    H9612734   3.438   3.431   3.531  1.4732 -2.6765 -2.4567
   90MOL    H9712735   3.534   3.292   3.586 -0.2384 -0.4358  0.2435
   90MOL    H9812736   3.334   3.361   3.728  0.8302  0.9546 -1.2844
   90MOL    H9912737   3.418   3.516   3.757  0.1668  0.6335 -2.0949
   90MOL   C10012738   3.505   3.216   3.855  1.0857 -0.1980 -0.0159
   90MOL   C10112739   3.631   3.179   3.926 -0.7430  0.2048 -0.2414
   90MOL   O10212740   3.634   3.225   4.056  0.5590  0.5902  0.1297
   90MOL   H10312741   3.416   3.190   3.911 -0.3907  3.0565 -0.7300
   90MOL   H10412742   3.496   3.164   3.760 -0.4046  1.0017 -0.5474
   90MOL   H10512743   3.721   3.205   3.871  0.3392 -3.0070 -0.0951
   90MOL   H10612744   3.637   3.071   3.940 -1.1190  0.3151  0.8317
   90MOL   C10712745   3.740   3.306   4.083 -0.2294  0.0303  0.1104
   90MOL   C10812746   3.742   3.341   4.229  0.2099  0.2694  0.7252
   90MOL   O10912747   3.857   3.424   4.251  0.0963 -0.0875  0.0902
   90MOL   H11012748   3.833   3.265   4.042  0.2672 -0.9325  2.1448
   90MOL   H11112749   3.730   3.395   4.021 -0.6721 -0.1145 -0.0283
   90MOL   H11212750   3.755   3.248   4.284 -0.0475  0.7794  1.6488
   90MOL   H11312751   3.655   3.400   4.256  0.0441  0.5249 -0.3177
   90MOL   C11412752   3.862   3.494   4.372  0.1001  0.5465 -0.0511
   90MOL   C11512753   3.860   3.399   4.485 -0.2631 -0.1027  0.6228
   90MOL   O11612754   3.724   3.386   4.524 -0.3103  0.2793  0.5986
   90MOL   H11712755   3.962   3.534   4.386 -0.3466  1.0209  1.8874
   90MOL   H11812756   3.791   3.576   4.379 -1.2458 -0.4819 -1.1138
   90MOL   H11912757   3.912   3.442   4.571  0.8147  1.7149 -0.8929
   90MOL   H12012758   3.898   3.303   4.451 -0.2668  0.0724  0.1197
   90MOL   C12112759   3.694   3.280   4.611 -0.1265  0.0964 -0.4387
   90MOL   C12212760   3.567   3.310   4.698  0.5335 -0.0581  0.1150
   90MOL   O12312761   3.453   3.254   4.632 -0.7565  0.5161  0.6462
   90MOL   H12412762   3.685   3.188   4.553  1.4823 -0.9357  0.9286
   90MOL   H12512763   3.771   3.272   4.688 -1.7505 -0.2130  1.1985
   90MOL   H12612764   3.549   3.414   4.727 -2.0939 -0.4858  0.0816
   90MOL   H12712765   3.569   3.264   4.797 -1.0141 -0.3061  0.0404
   90MOL   C12812766   3.329   3.289   4.687 -0.2657 -0.3348 -0.0611
   90MOL   C12912767   3.266   3.409   4.608 -0.3672 -0.2289  0.3587
   90MOL   O13012768   3.150   3.435   4.684  0.4167 -0.7055  0.3033
   90MOL   H13112769   3.255   3.209   4.688 -1.8406  1.0226 -1.5271
   90MOL   H13212770   3.344   3.316   4.791  1.3739 -0.4663 -0.2608
   90MOL   H13312771   3.243   3.375   4.507  2.3577 -3.3330  0.7270
   90MOL   H13412772   3.329   3.498   4.600 -1.7580  1.1329  3.4883
   90MOL   C13512773   3.100   3.569   4.678  0.2088 -0.4108 -0.3993
   90MOL   C13612774   3.064   3.621   4.536 -0.6617 -0.0719 -0.3221
   90MOL   O13712775   3.168   3.690   4.474  0.2765 -0.6244  0.0151
   90MOL   H13812776   3.014   3.582   4.744  0.6108 -0.1647  0.0824
   90MOL   H13912777   3.164   3.642   4.727  1.2252 -2.2106  1.0213
   90MOL   H14012778   2.973   3.680   4.538 -0.4727  0.2106  3.0710
   90MOL   H14112779   3.020   3.534   4.485  1.1977 -2.0418  1.3627
   90MOL   H14212780   3.161   3.678   4.380 -0.3029  1.7672 -0.2700
   91MOL     C112781   4.153   7.494   0.465 -0.1535  0.0624 -0.3556
   91MOL     C212782   4.148   7.442   0.616  0.2253  0.0835  0.7275
   91MOL     O312783   4.018   7.427   0.659 -0.1725  0.5076 -0.4941
   91MOL     H412784   4.105   7.591   0.451 -0.8248 -0.5498 -2.4581
   91MOL     H512785   4.104   7.422   0.401 -0.8550  0.2112  0.0073
   91MOL     H612786   4.187   7.521   0.680  0.6477 -0.9004  1.6997
   91MOL     H712787   4.217   7.360   0.639  1.2898 -0.7290 -4.6043
   91MOL     H812788   4.261   7.504   0.452 -0.1013  1.8177  1.2182
   91MOL     C912789   3.946   7.315   0.628  0.0916 -0.0945 -0.2972
   91MOL    C1012790   3.811   7.325   0.704 -0.1606 -0.0824  0.0958
   91MOL    O1112791   3.717   7.243   0.637 -0.2954  0.1772 -0.5142
   91MOL    H1212792   3.943   7.299   0.521 -1.8499  0.7882 -0.3788
   91MOL    H1312793   4.003   7.226   0.658  0.0326 -0.4259 -1.1661
   91MOL    H1412794   3.775   7.427   0.705  0.8238  0.2767 -0.5071
   91MOL    H1512795   3.814   7.298   0.810  0.1313 -3.9241 -0.8141
   91MOL    C1612796   3.585   7.275   0.669 -0.1175 -0.2732 -0.0621
   91MOL    C1712797   3.492   7.178   0.595 -0.7322 -0.7258  0.2418
   91MOL    O1812798   3.499   7.060   0.671  0.1680 -0.1405 -0.0613
   91MOL    H1912799   3.576   7.268   0.777  1.2398  1.6105  0.1945
   91MOL    H2012800   3.574   7.376   0.630  1.9745  0.5949  1.5168
   91MOL    H2112801   3.524   7.167   0.491  0.9738 -2.0624  0.8983
   91MOL    H2212802   3.391   7.221   0.591 -0.2222  0.4249 -0.6097
   91MOL    C2312803   3.404   6.961   0.624  0.0183  0.0767 -0.4198
   91MOL    C2412804   3.392   6.830   0.706 -0.3918 -0.0152 -1.2076
   91MOL    O2512805   3.283   6.851   0.792 -0.1142 -0.0892 -0.4466
   91MOL    H2612806   3.306   7.006   0.612  1.4426  2.5973 -3.2503
   91MOL    H2712807   3.437   6.940   0.522 -2.7856 -1.8757 -0.9913
   91MOL    H2812808   3.483   6.809   0.763  0.3381  1.8210 -1.6636
   91MOL    H2912809   3.366   6.752   0.634 -0.0741  0.7774 -2.1947
   91MOL    C3012810   3.223   6.744   0.853  1.1201  0.4653  0.0127
   91MOL    C3112811   3.097   6.782   0.935  0.4090  0.1333  0.1375
   91MOL    O3212812   2.986   6.807   0.852 -0.5391 -0.6462 -0.0572
   91MOL    H3312813   3.200   6.662   0.784  1.4316 -2.8029  3.5985
   91MOL    H3412814   3.301   6.705   0.917 -0.4167 -1.9178  0.5110
   91MOL    H3512815   3.123   6.862   1.005 -2.0936 -1.0489  2.5207
   91MOL    H3612816   3.087   6.695   1.001 -0.7467  0.2496  0.1374
   91MOL    C3712817   2.882   6.841   0.939 -0.1152  0.3574  0.7118
   91MOL    C3812818   2.768   6.888   0.849  0.1171 -0.0844  0.0888
   91MOL    O3912819   2.699   6.769   0.812 -0.5401 -0.6570  0.0684
   91MOL    H4012820   2.844   6.753   0.990  0.7483 -1.5223 -1.8166
   91MOL    H4112821   2.907   6.918   1.012  2.3455 -0.8804  1.2278
   91MOL    H4212822   2.812   6.944   0.766 -2.0752 -0.2519 -1.2152
   91MOL    H4312823   2.697   6.954   0.900 -1.3566 -1.1628 -0.5414
   91MOL    C4412824   2.723   6.711   0.687  0.5041  0.2920  0.2683
   91MOL    C4512825   2.646   6.576   0.666 -0.2999 -0.0094 -0.6784
   91MOL    O4612826   2.669   6.481   0.767  0.1774 -0.0272  0.2554
   91MOL    H4712827   2.702   6.785   0.610 -4.6232  0.6020  1.7695
   91MOL    H4812828   2.830   6.693   0.701  0.6192  0.5504 -0.2911
   91MOL    H4912829   2.677   6.530   0.571 -3.9669  0.3714 -2.1538
   91MOL    H5012830   2.539   6.587   0.645 -0.1741  0.2556 -1.2067
   91MOL    C5112831   2.635   6.342   0.751 -0.6308 -0.3571  0.5434
   91MOL    C5212832   2.498   6.306   0.692  0.3939 -0.8302  0.2930
   91MOL    O5312833   2.523   6.311   0.557  0.2980 -0.2970  0.3877
   91MOL    H5412834   2.714   6.281   0.709  0.3970  2.3232 -1.5432
   91MOL    H5512835   2.637   6.303   0.853  0.3729 -1.5408  0.0842
   91MOL    H5612836   2.420   6.375   0.722  0.8902  0.0198 -0.3471
   91MOL    H5712837   2.462   6.204   0.708 -0.0595 -0.8160 -0.6102
   91MOL    C5812838   2.406   6.262   0.481  0.6623 -0.6565 -0.0103
   91MOL    C5912839   2.388   6.305   0.334  0.4004 -0.0744  0.3658
   91MOL    O6012840   2.484   6.238   0.254  0.3147 -0.4618  0.0611
   91MOL    H6112841   2.426   6.155   0.478 -1.6681 -1.1196  0.5937
   91MOL    H6212842   2.312   6.282   0.532  0.3422 -2.5516  0.1630
   91MOL    H6312843   2.406   6.412   0.324  0.8567 -0.1324  0.5659
   91MOL    H6412844   2.284   6.289   0.305  0.4750 -1.0448  0.6206
   91MOL    C6512845   2.460   6.252   0.113  0.2265 -0.0268 -0.4249
   91MOL    C6612846   2.569   6.216   0.016  0.2668 -0.0267 -0.4503
   91MOL    O6712847   2.665   6.321   0.010  0.3760  0.5165  0.2091
   91MOL    H6812848   2.374   6.185   0.106 -0.8202  1.2858 -0.1338
   91MOL    H6912849   2.426   6.354   0.098 -0.2614  0.1859  1.9429
   91MOL    H7012850   2.520   6.220   7.690  0.7411  1.3254 -0.6581
   91MOL    H7112851   2.610   6.116   0.027 -0.3111 -0.1784  0.4086
   91MOL    C7212852   2.757   6.298   7.676 -0.3399 -0.0330  0.1734
   91MOL    C7312853   2.836   6.423   7.640  1.0911 -0.1024  0.0112
   91MOL    O7412854   2.741   6.521   7.597 -0.0588 -0.8454 -0.1606
   91MOL    H7512855   2.822   6.227   7.725 -0.7897 -0.0893  0.6893
   91MOL    H7612856   2.719   6.243   7.590 -0.5867 -0.1117  0.3341
   91MOL    H7712857   2.909   6.409   7.560 -0.8083  0.0578 -1.8048
   91MOL    H7812858   2.891   6.454   7.728 -0.9927 -0.2318  1.4086
   91MOL    C7912859   2.810   6.625   7.530  0.9304  0.2723 -0.2268
   91MOL    C8012860   2.719   6.747   7.530  0.1962  0.4842  0.3717
   91MOL    O8112861   2.750   6.819   7.650 -0.8095  0.2230  0.0073
   91MOL    H8212862   2.902   6.648   7.583  0.9881 -0.5727  0.0459
   91MOL    H8312863   2.842   6.600   7.429  1.4020  2.0988 -0.5402
   91MOL    H8412864   2.613   6.728   7.516  0.7975 -0.9369 -2.8639
   91MOL    H8512865   2.766   6.805   7.451 -0.7566  0.2967 -0.3444
   91MOL    C8612866   2.682   6.943   7.654 -0.3141 -0.0968  0.2756
   91MOL    C8712867   2.735   7.055   7.737  0.4211  0.0828  0.0339
   91MOL    O8812868   2.681   7.049   0.103 -0.2851 -0.4506 -0.4506
   91MOL    H8912869   2.689   6.986   7.554 -1.1784  0.0521  0.2775
   91MOL    H9012870   2.581   6.912   7.678 -1.0995  1.0149 -1.4832
   91MOL    H9112871   2.690   7.149   7.703 -1.2150 -0.3962  0.8349
   91MOL    H9212872   2.843   7.057   7.720  0.7072 -1.6426  1.4958
   91MOL    C9312873   2.722   7.152   0.190 -0.1891  0.3291  0.3028
   91MOL    C9412874   2.719   7.100   0.335  0.1560  0.0172 -0.4463
   91MOL    O9512875   2.601   7.151   0.405  0.0935  0.2804 -0.5591
   91MOL    H9612876   2.825   7.185   0.175  0.0079 -0.3156  0.2308
   91MOL    H9712877   2.662   7.243   0.177 -2.2524 -0.9174  0.7939
   91MOL    H9812878   2.801   7.145   0.390 -0.4591  1.1239 -0.4332
   91MOL    H9912879   2.716   6.991   0.336 -0.3001  0.0293 -0.2338
   91MOL   C10012880   2.609   7.142   0.546  0.6622  0.5768 -0.1774
   91MOL   C10112881   2.468   7.165   0.597 -0.3117  0.4317 -0.7530
   91MOL   O10212882   2.465   7.145   0.735  0.5239  0.1380  0.1123
   91MOL   H10312883   2.643   7.046   0.583 -2.7362 -0.4989  0.3034
   91MOL   H10412884   2.676   7.217   0.590  1.5507 -0.2014 -0.1773
   91MOL   H10512885   2.421   7.081   0.546  2.0443 -1.8741  0.7244
   91MOL   H10612886   2.425   7.256   0.556  0.6486  0.5946 -1.4387
   91MOL   C10712887   2.331   7.153   0.786  0.0691  0.8641  0.0565
   91MOL   C10812888   2.320   7.082   0.924  0.6632 -1.0460  0.8933
   91MOL   O10912889   2.274   6.952   0.911  0.4442 -0.0802  0.5828
   91MOL   H11012890   2.300   7.258   0.790 -0.3098  0.8258 -1.6471
   91MOL   H11112891   2.258   7.106   0.720 -0.5580  0.5097  0.9910
   91MOL   H11212892   2.244   7.133   0.983 -1.3520 -0.0828 -2.3485
   91MOL   H11312893   2.417   7.072   0.971  0.9242 -1.5195  0.2651
   91MOL   C11412894   2.374   6.861   0.875 -0.2145  0.8549  1.2919
   91MOL   C11512895   2.300   6.732   0.835 -0.1622  0.1485  0.2589
   91MOL   O11612896   2.255   6.741   0.700 -0.3530  0.8314 -0.9645
   91MOL   H11712897   2.428   6.894   0.786 -2.1129 -0.6397 -0.4628
   91MOL   H11812898   2.437   6.846   0.963 -0.9545  0.8484  1.8209
   91MOL   H11912899   2.235   6.704   0.917 -1.6712 -1.2970 -1.3702
   91MOL   H12012900   2.369   6.648   0.839 -1.8986 -1.2487  2.0299
   91MOL   C12112901   2.197   6.622   0.652 -0.0582 -0.8811  0.1365
   91MOL   C12212902   2.156   6.633   0.503  0.4481  0.4079 -0.3886
   91MOL   O12312903   2.263   6.612   0.416  0.5917 -0.7210 -0.6496
   91MOL   H12412904   2.260   6.533   0.657  0.2099 -0.6406  1.2000
   91MOL   H12512905   2.102   6.613   0.703 -0.2448  3.7145  0.7727
   91MOL   H12612906   2.105   6.728   0.485 -1.6988 -0.6284  0.1333
   91MOL   H12712907   2.085   6.553   0.488 -0.1653  0.8082  0.3337
   91MOL   C12812908   2.347   6.727   0.406 -0.5626 -0.0593  0.4649
   91MOL   C12912909   2.459   6.691   0.307  0.0358 -0.1807 -0.1613
   91MOL   O13012910   2.391   6.716   0.188 -0.3763 -0.1155  0.8140
   91MOL   H13112911   2.295   6.821   0.384 -2.2012 -0.9933  0.2566
   91MOL   H13212912   2.392   6.739   0.504 -1.5338 -2.7140  1.2803
   91MOL   H13312913   2.505   6.592   0.316  1.3818  0.1567 -2.7272
   91MOL   H13412914   2.551   6.749   0.312  0.4548 -0.9905  2.0202
   91MOL   C13512915   2.456   6.651   0.079 -0.0036  0.0050  0.0370
   91MOL   C13612916   2.348   6.636   7.738  0.6045 -0.4287  0.5217
   91MOL   O13712917   2.253   6.535   7.748 -0.4156  0.3246 -0.6033
   91MOL   H13812918   2.547   6.699   0.043  0.7744  0.1950  2.1915
   91MOL   H13912919   2.483   6.550   0.109  1.0584  0.7266  1.5814
   91MOL   H14012920   2.391   6.594   7.647  0.6188  0.8424 -0.0592
   91MOL   H14112921   2.311   6.730   7.698  2.2900 -0.2851 -0.7750
   91MOL   H14212922   2.214   6.531   0.063  0.2834  1.3118 -0.2350
   92MOL     C112923   3.198   7.522   5.079 -0.2013 -0.5179  0.3413
   92MOL     C212924   3.213   7.377   5.082  0.0071 -0.2053  0.3027
   92MOL     O312925   3.257   7.338   5.211  0.1215  0.0440 -0.0872
   92MOL     H412926   3.287   7.584   5.066 -0.5696  0.6226  3.0319
   92MOL     H512927   3.142   7.566   5.161  0.8504 -1.1471  1.4208
   92MOL     H612928   3.283   7.347   5.003 -0.4704 -3.1167  0.9049
   92MOL     H712929   3.124   7.318   5.059 -0.0870  0.9898 -2.7006
   92MOL     H812930   3.131   7.541   4.995 -0.1789  0.9370  0.6434
   92MOL     C912931   3.395   7.356   5.232  0.0127  0.7003 -0.2664
   92MOL    C1012932   3.433   7.281   5.358  0.3788 -0.5810 -0.2040
   92MOL    O1112933   3.447   7.140   5.333 -0.0748  0.4455  0.1899
   92MOL    H1212934   3.455   7.322   5.148 -0.8627 -1.3060 -0.1184
   92MOL    H1312935   3.411   7.462   5.250 -0.6065  1.0056 -1.4654
   92MOL    H1412936   3.360   7.301   5.436  0.5520 -0.6790 -0.0157
   92MOL    H1512937   3.525   7.316   5.405 -1.0888  2.5075  0.4854
   92MOL    C1612938   3.331   7.061   5.324  0.1513 -0.5872 -1.1713
   92MOL    C1712939   3.367   6.910   5.328  0.0910 -0.0766  0.0007
   92MOL    O1812940   3.399   6.868   5.460  0.4272  0.3165 -0.4343
   92MOL    H1912941   3.261   7.082   5.405  0.9091 -1.1645 -0.3521
   92MOL    H2012942   3.280   7.082   5.231  0.9583  0.1934 -1.4501
   92MOL    H2112943   3.455   6.899   5.265  0.3387 -1.0743  0.5114
   92MOL    H2212944   3.290   6.846   5.284  0.8420 -1.8639  1.2474
   92MOL    C2312945   3.439   6.730   5.475 -0.3862 -0.9271 -0.2857
   92MOL    C2412946   3.587   6.721   5.441  0.0147  0.4229 -0.4676
   92MOL    O2512947   3.606   6.697   5.299 -0.4326  0.0009  0.0246
   92MOL    H2612948   3.419   6.702   5.579  1.0794 -1.2952 -0.0967
   92MOL    H2712949   3.374   6.658   5.424  0.0761  0.0660 -2.3107
   92MOL    H2812950   3.635   6.639   5.493 -0.5745  1.0921  1.1471
   92MOL    H2912951   3.639   6.814   5.465  0.5962 -0.5768  2.2827
   92MOL    C3012952   3.742   6.700   5.257 -0.7660 -0.0345  0.1718
   92MOL    C3112953   3.763   6.661   5.106  0.0104 -0.2051 -0.8073
   92MOL    O3212954   3.760   6.515   5.086 -1.0102 -0.3509  0.3961
   92MOL    H3312955   3.758   6.808   5.268 -2.1247  0.0841  1.2294
   92MOL    H3412956   3.807   6.653   5.330  2.8601  1.5963 -1.8599
   92MOL    H3512957   3.867   6.683   5.080  0.5151 -3.3574 -1.6427
   92MOL    H3612958   3.698   6.720   5.041  0.4717  1.7848  0.4971
   92MOL    C3712959   3.634   6.450   5.084 -0.3272  0.4742 -0.1014
   92MOL    C3812960   3.554   6.470   4.955 -0.1524  0.0508  0.1817
   92MOL    O3912961   3.490   6.348   4.921  0.1262  0.6086  0.0749
   92MOL    H4012962   3.645   6.342   5.085 -3.4315  0.1178  0.7384
   92MOL    H4112963   3.584   6.472   5.179  0.6062  0.1673  0.4715
   92MOL    H4212964   3.610   6.505   4.868 -0.1408 -0.1756  0.0978
   92MOL    H4312965   3.481   6.550   4.969  0.1151  0.3289  0.0011
   92MOL    C4412966   3.434   6.358   4.794 -0.1849  0.2264  0.3815
   92MOL    C4512967   3.537   6.299   4.701 -0.2288 -0.1925  0.4941
   92MOL    O4612968   3.560   6.162   4.726  0.5662  0.2476  0.0640
   92MOL    H4712969   3.345   6.296   4.791 -0.0988  0.1467 -3.1107
   92MOL    H4812970   3.417   6.460   4.760 -3.0423  0.2286  1.6794
   92MOL    H4912971   3.636   6.347   4.703 -0.9959  1.3696  2.4907
   92MOL    H5012972   3.498   6.304   4.599  0.1736  0.3215  0.3587
   92MOL    C5112973   3.674   6.114   4.652  0.3069 -0.0415  0.4657
   92MOL    C5212974   3.693   5.963   4.678  0.2791 -0.1394  0.1969
   92MOL    O5312975   3.797   5.938   4.775  0.1894 -0.1849 -0.0391
   92MOL    H5412976   3.666   6.148   4.549 -2.4799  2.5142  1.4570
   92MOL    H5512977   3.762   6.162   4.694 -0.0797 -0.3425  1.6377
   92MOL    H5612978   3.728   5.924   4.582 -0.5592 -0.7692  0.1417
   92MOL    H5712979   3.601   5.913   4.708 -0.2279 -0.9204 -2.5084
   92MOL    C5812980   3.773   5.990   4.901  0.1772 -0.4522 -0.2054
   92MOL    C5912981   3.901   5.990   4.985 -0.0623 -1.0489 -0.7877
   92MOL    O6012982   3.939   5.859   5.014  0.0743 -0.6249 -0.3712
   92MOL    H6112983   3.749   6.096   4.896  1.2883 -0.1922 -0.1749
   92MOL    H6212984   3.694   5.934   4.952  0.2610 -0.2745  0.1230
   92MOL    H6312985   3.878   6.043   5.078  1.2832 -1.1032 -0.4199
   92MOL    H6412986   3.976   6.044   4.928 -1.3588 -0.1865 -1.7078
   92MOL    C6512987   4.043   5.843   5.104  0.7784  0.1912 -0.2210
   92MOL    C6612988   4.094   5.699   5.115  0.0803  0.1131  0.0337
   92MOL    O6712989   4.166   5.694   5.235  0.0207  0.7131  0.0693
   92MOL    H6812990   4.128   5.898   5.063  2.3048 -0.0057  2.5418
   92MOL    H6912991   4.022   5.877   5.205 -1.5783 -2.1141  0.0969
   92MOL    H7012992   4.154   5.667   5.030  0.3043 -0.2422  0.3244
   92MOL    H7112993   4.007   5.634   5.123 -0.5382  0.7142 -1.6407
   92MOL    C7212994   4.204   5.559   5.264 -0.3748  0.2598 -0.0165
   92MOL    C7312995   4.265   5.553   5.410  0.2379  0.1833  0.2647
   92MOL    O7412996   4.387   5.623   5.415 -0.1456  0.2544 -0.3663
   92MOL    H7512997   4.118   5.491   5.267 -0.8994  0.8765 -0.6921
   92MOL    H7612998   4.277   5.520   5.194 -0.8867  0.1452 -0.4924
   92MOL    H7712999   4.280   5.445   5.412 -1.9962 -0.2291 -2.3798
   92MOL    H7813000   4.199   5.583   5.491  1.0186  0.3478  0.8461
   92MOL    C7913001   4.470   5.585   5.530 -0.2800  0.1070  0.0309
   92MOL    C8013002   4.606   5.666   5.531 -0.2220  0.0603  0.2387
   92MOL    O8113003   4.702   5.584   5.602  0.4118  0.2966  0.0424
   92MOL    H8213004   4.407   5.616   5.614 -0.1552  1.8426 -0.4834
   92MOL    H8313005   4.496   5.480   5.517 -0.5650 -0.0860  0.9287
   92MOL    H8413006   4.592   5.761   5.581  2.9348  0.0498  1.2548
   92MOL    H8513007   4.646   5.681   5.430  0.6385 -1.1087  0.3918
   92MOL    C8613008   4.798   5.516   5.524 -0.4115  0.0388  0.1912
   92MOL    C8713009   4.930   5.588   5.528  0.3809  0.1459  1.0222
   92MOL    O8813010   4.930   5.701   5.434  0.4796 -0.2368 -0.1307
   92MOL    H8913011   4.802   5.413   5.558 -0.1364  0.7584  2.4356
   92MOL    H9013012   4.775   5.515   5.417 -0.3378  0.3600  0.1697
   92MOL    H9113013   5.001   5.521   5.480  1.1344  2.0206 -0.5571
   92MOL    H9213014   4.960   5.622   5.627 -0.9768  1.0398  1.1320
   92MOL    C9313015   5.066   5.760   5.422  0.0178  0.4339  0.2106
   92MOL    C9413016   5.061   5.893   5.331  0.2753 -0.0716 -0.1991
   92MOL    O9513017   5.054   6.005   5.417 -0.0345  0.0164 -0.2822
   92MOL    H9613018   5.124   5.767   5.515 -1.5253  0.8331  1.1493
   92MOL    H9713019   5.138   5.687   5.383  0.7646  1.0903  0.3348
   92MOL    H9813020   4.973   5.896   5.266 -1.2503 -0.1812  1.7940
   92MOL    H9913021   5.156   5.907   5.280 -1.0559  3.7917 -1.7693
   92MOL   C10013022   4.931   6.029   5.488 -0.1902  0.6199 -0.2319
   92MOL   C10113023   4.914   5.968   5.628 -0.7934  0.4534 -1.0328
   92MOL   O10213024   4.792   6.010   5.687 -0.0252  0.0591  0.3098
   92MOL   H10313025   4.918   6.137   5.494  1.3358  0.7407  1.2504
   92MOL   H10413026   4.842   6.006   5.429 -1.5006 -0.7337  2.1439
   92MOL   H10513027   5.004   5.989   5.686 -0.9682  0.6023 -0.8178
   92MOL   H10613028   4.920   5.859   5.629  1.5019  0.5575  0.4095
   92MOL   C10713029   4.780   5.975   5.826 -0.2727 -0.1759  0.0962
   92MOL   C10813030   4.626   5.981   5.858  0.2198  0.7304 -0.6689
   92MOL   O10913031   4.564   5.852   5.833 -0.7132  0.0356  0.1737
   92MOL   H11013032   4.828   5.879   5.843  1.4879  0.5209 -0.8982
   92MOL   H11113033   4.843   6.043   5.883 -0.7249  0.2741  0.0690
   92MOL   H11213034   4.575   6.050   5.790  0.0491  3.2053  1.8814
   92MOL   H11313035   4.611   6.013   5.961  3.4778  1.1779 -0.2866
   92MOL   C11413036   4.426   5.852   5.858  0.4558  0.3935 -0.4404
   92MOL   C11513037   4.406   5.810   6.004  0.1612  0.4731 -0.0909
   92MOL   O11613038   4.344   5.694   6.029  0.6323 -0.2513 -0.2535
   92MOL   H11713039   4.382   5.949   5.838 -1.0070 -0.1305  0.1841
   92MOL   H11813040   4.366   5.781   5.801 -0.3103  1.0037 -0.3996
   92MOL   H11913041   4.354   5.886   6.063 -0.8860 -0.6964  0.5071
   92MOL   H12013042   4.503   5.796   6.052  0.9825 -1.7608 -2.3046
   92MOL   C12113043   4.323   5.678   6.172 -0.1277  0.2313  0.8311
   92MOL   C12213044   4.263   5.539   6.206 -0.0664  0.2389  0.4297
   92MOL   O12313045   4.125   5.544   6.170  0.1513  0.8577  0.0770
   92MOL   H12413046   4.415   5.674   6.230  0.6979 -3.9053 -0.5995
   92MOL   H12513047   4.256   5.755   6.211 -0.9966 -0.4125  0.6384
   92MOL   H12613048   4.263   5.539   6.315 -0.7070  1.8971  0.4366
   92MOL   H12713049   4.328   5.460   6.166  0.1350  0.3056  0.6250
   92MOL   C12813050   4.068   5.412   6.169 -0.0684  0.1373  0.0005
   92MOL   C12913051   3.931   5.426   6.095 -0.2820 -0.3434 -0.0650
   92MOL   O13013052   3.821   5.459   6.176 -0.0042  0.5406  0.0406
   92MOL   H13113053   4.139   5.346   6.118  1.3017  1.5588  0.0332
   92MOL   H13213054   4.047   5.372   6.268 -0.9519  0.6732  0.0355
   92MOL   H13313055   3.894   5.341   6.037 -3.1272  1.2923 -0.7605
   92MOL   H13413056   3.939   5.498   6.013  0.5669 -0.3245  0.0255
   92MOL   C13513057   3.799   5.593   6.188  0.1480 -0.4672 -0.3447
   92MOL   C13613058   3.691   5.613   6.298 -0.4882  0.0780  0.0884
   92MOL   O13713059   3.719   5.727   6.376  0.0228  0.3823  0.0462
   92MOL   H13813060   3.896   5.637   6.212 -0.3280  0.6513 -0.4566
   92MOL   H13913061   3.779   5.642   6.093 -0.3392 -1.2791 -0.6670
   92MOL   H14013062   3.671   5.530   6.365  2.0846 -0.0771  0.7206
   92MOL   H14113063   3.601   5.642   6.244 -0.7445  1.1241  1.0538
   92MOL   H14213064   3.765   5.699   6.453 -0.2860  1.8797  0.7894
   93MOL     C113065   2.237   4.913   5.349  0.2383  0.3583 -1.0923
   93MOL     C213066   2.209   4.791   5.262 -0.2531  0.0885 -0.4114
   93MOL     O313067   2.323   4.715   5.233 -0.0869 -0.3305 -0.0405
   93MOL     H413068   2.287   4.893   5.443  0.3326  2.5114 -0.6706
   93MOL     H513069   2.136   4.952   5.364 -0.4449 -1.9937  0.7271
   93MOL     H613070   2.160   4.824   5.171 -0.1599 -0.8478 -0.8077
   93MOL     H713071   2.135   4.724   5.308  0.6722 -0.1994  0.6690
   93MOL     H813072   2.300   4.994   5.313  1.5961  0.8213  2.2376
   93MOL     C913073   2.303   4.612   5.142 -0.0679  0.4155 -1.0116
   93MOL    C1013074   2.435   4.538   5.109  1.2232 -0.0929 -0.3494
   93MOL    O1113075   2.479   4.452   5.213 -0.5637 -0.0378  0.1579
   93MOL    H1213076   2.222   4.547   5.176  0.0091  2.4136  3.4526
   93MOL    H1313077   2.270   4.655   5.048 -1.0514  0.1431 -0.8052
   93MOL    H1413078   2.508   4.614   5.080 -1.1915  1.5315 -2.5178
   93MOL    H1513079   2.417   4.468   5.027  0.3898 -1.3162  0.8678
   93MOL    C1613080   2.619   4.437   5.206  0.7280 -0.4545  0.2891
   93MOL    C1713081   2.658   4.365   5.334 -0.6560 -0.8171  0.0018
   93MOL    O1813082   2.685   4.229   5.305 -0.8211  0.2631 -0.0626
   93MOL    H1913083   2.647   4.379   5.118  1.4345 -1.1287  0.9542
   93MOL    H2013084   2.668   4.535   5.202 -0.6698  0.2506  0.1663
   93MOL    H2113085   2.592   4.382   5.419 -1.6804 -3.3386 -0.2539
   93MOL    H2213086   2.748   4.418   5.367 -0.0875 -0.9203 -1.3530
   93MOL    C2313087   2.762   4.162   5.401  0.4183  0.0158  0.4200
   93MOL    C2413088   2.766   4.024   5.332  0.0545 -0.5252 -0.1920
   93MOL    O2513089   2.640   3.965   5.356 -0.4644  0.2115  0.0145
   93MOL    H2613090   2.859   4.212   5.394  0.1282  0.8246  2.1450
   93MOL    H2713091   2.716   4.166   5.499 -0.2114  1.2300  0.0840
   93MOL    H2813092   2.855   3.970   5.366  0.6750 -0.3636 -1.5382
   93MOL    H2913093   2.773   4.044   5.225  0.8702 -1.4968 -0.3279
   93MOL    C3013094   2.617   3.840   5.276  0.2693 -0.0428  0.2485
   93MOL    C3113095   2.523   3.744   5.339  0.1853 -0.3734  0.0071
   93MOL    O3213096   2.595   3.664   5.429  0.1455  0.5329 -0.5537
   93MOL    H3313097   2.589   3.868   5.175 -0.8065 -0.6744  0.3604
   93MOL    H3413098   2.709   3.783   5.270  0.2898 -0.4801  3.5987
   93MOL    H3513099   2.479   3.675   5.266  1.4833 -3.1023  1.7257
   93MOL    H3613100   2.440   3.797   5.384  1.2215 -0.1864  1.7075
   93MOL    C3713101   2.606   3.707   5.564  0.4735  0.4463  0.3169
   93MOL    C3813102   2.705   3.613   5.639  0.2996 -0.1637 -0.2794
   93MOL    O3913103   2.669   3.600   5.773  0.7743  0.5060  0.5483
   93MOL    H4013104   2.623   3.814   5.583  2.1701  0.0129  1.3481
   93MOL    H4113105   2.510   3.690   5.613  1.1849 -1.5619  1.0420
   93MOL    H4213106   2.807   3.643   5.616  0.7373 -1.3639  0.0705
   93MOL    H4313107   2.713   3.517   5.590  0.9728  0.6927 -1.8767
   93MOL    C4413108   2.732   3.488   5.841  0.4681  0.0023 -1.2363
   93MOL    C4513109   2.681   3.475   5.987 -0.6750  0.0693 -0.2633
   93MOL    O4613110   2.547   3.424   5.993 -0.2772 -0.7208  0.4585
   93MOL    H4713111   2.697   3.404   5.780 -2.4012  1.0619 -1.1310
   93MOL    H4813112   2.841   3.486   5.833  0.7229 -1.6220  2.0637
   93MOL    H4913113   2.680   3.569   6.042 -0.1859 -0.6816  1.0550
   93MOL    H5013114   2.751   3.408   6.036 -0.4321  0.2224 -0.4009
   93MOL    C5113115   2.513   3.401   6.126 -0.0549  0.1142 -0.7189
   93MOL    C5213116   2.360   3.366   6.129  0.3631 -1.0175 -0.1441
   93MOL    O5313117   2.291   3.480   6.085  0.4285 -0.2307 -0.1304
   93MOL    H5413118   2.590   3.336   6.170  0.0865  0.5704 -0.2941
   93MOL    H5513119   2.515   3.496   6.178 -0.0741  0.2628 -0.9923
   93MOL    H5613120   2.321   3.338   6.226  2.0580  1.2081  1.2350
   93MOL    H5713121   2.345   3.287   6.056  0.4631 -2.3938  1.3092
   93MOL    C5813122   2.154   3.455   6.074  0.5573  0.1908 -0.5128
   93MOL    C5913123   2.087   3.580   6.018 -0.2442  0.1374 -0.2465
   93MOL    O6013124   1.950   3.556   6.009 -0.7127 -0.4583  0.6222
   93MOL    H6113125   2.126   3.376   6.005 -0.6628  1.4926 -1.5428
   93MOL    H6213126   2.115   3.433   6.174  1.5024  0.6068 -0.0482
   93MOL    H6313127   2.128   3.614   5.923  0.2311 -0.1136 -0.1277
   93MOL    H6413128   2.103   3.651   6.100  0.5963 -3.4655  2.8345
   93MOL    C6513129   1.885   3.666   5.950 -0.1109 -0.2253  0.8340
   93MOL    C6613130   1.728   3.656   5.961 -0.3961  0.3759 -0.1158
   93MOL    O6713131   1.676   3.766   5.886 -0.6691  0.1729  0.0048
   93MOL    H6813132   1.913   3.761   5.997 -4.6217  1.3029  0.6964
   93MOL    H6913133   1.904   3.655   5.843 -0.3282  0.8099  0.6770
   93MOL    H7013134   1.710   3.647   6.069 -0.6774 -1.2683 -0.2855
   93MOL    H7113135   1.682   3.566   5.920 -1.1106  1.5903 -2.0264
   93MOL    C7213136   1.537   3.781   5.903  1.0656  0.3552  0.7331
   93MOL    C7313137   1.503   3.851   6.039  0.0338 -0.1262 -0.1796
   93MOL    O7413138   1.498   3.753   6.139 -0.0112 -0.5855  0.0168
   93MOL    H7513139   1.499   3.849   5.826  0.1942 -0.1462  0.7144
   93MOL    H7613140   1.490   3.684   5.888  0.1067  0.8073  0.7332
   93MOL    H7713141   1.404   3.895   6.029 -0.2127 -0.6792 -0.1755
   93MOL    H7813142   1.574   3.932   6.054 -1.9369  1.6276 -0.0479
   93MOL    C7913143   1.484   3.811   6.277  0.5612  0.3949  0.5604
   93MOL    C8013144   1.453   3.702   6.377 -0.2811  0.5910  0.5491
   93MOL    O8113145   1.414   3.752   6.505 -0.0644 -0.2135 -0.5293
   93MOL    H8213146   1.574   3.871   6.290  0.2409  1.5130 -2.0941
   93MOL    H8313147   1.401   3.881   6.281 -0.0011 -0.1877 -0.5697
   93MOL    H8413148   1.537   3.634   6.385 -1.4431 -1.2583 -2.1546
   93MOL    H8513149   1.377   3.641   6.328  1.3864 -0.3368 -0.9506
   93MOL    C8613150   1.384   3.645   6.596 -0.6181 -0.6535 -0.1017
   93MOL    C8713151   1.349   3.693   6.741  0.2677 -0.3046  0.1928
   93MOL    O8813152   1.445   3.644   6.831  0.1715  0.6087 -0.4044
   93MOL    H8913153   1.300   3.582   6.567 -1.5942 -1.1668  3.4835
   93MOL    H9013154   1.465   3.572   6.592  1.7961  1.9685 -0.4976
   93MOL    H9113155   1.246   3.665   6.763  0.1649 -1.1180 -1.2386
   93MOL    H9213156   1.352   3.802   6.743 -1.6768 -0.1951 -0.8086
   93MOL    C9313157   1.413   3.652   6.973 -0.3079  0.1075  0.2148
   93MOL    C9413158   1.543   3.666   7.047 -0.3151  0.0277 -0.5922
   93MOL    O9513159   1.528   3.627   7.182  0.1426  0.6770 -0.5092
   93MOL    H9613160   1.361   3.744   7.000  2.4716  1.3571  1.4420
   93MOL    H9713161   1.356   3.565   7.005  0.5971 -0.3966  0.4575
   93MOL    H9813162   1.587   3.765   7.036  0.3220 -0.3833 -1.9198
   93MOL    H9913163   1.620   3.602   7.003  0.5610  1.4922 -1.2197
   93MOL   C10013164   1.650   3.598   7.256 -0.4064 -0.5845 -0.4889
   93MOL   C10113165   1.605   3.565   7.402  0.4842 -0.5363 -0.4346
   93MOL   O10213166   1.573   3.428   7.396  0.1258  0.5659  0.0610
   93MOL   H10313167   1.719   3.532   7.203 -0.5418  0.0757 -1.5029
   93MOL   H10413168   1.716   3.685   7.252 -0.4028 -0.6276 -1.4755
   93MOL   H10513169   1.527   3.632   7.437  1.6685 -0.1831  1.6217
   93MOL   H10613170   1.688   3.579   7.472  0.2034 -0.0437 -0.1989
   93MOL   C10713171   1.562   3.361   7.517  0.8826 -0.0241  0.2031
   93MOL   C10813172   1.506   3.220   7.507 -0.1501 -0.2285 -0.2663
   93MOL   O10913173   1.360   3.224   7.504  0.5334  0.0876 -0.3617
   93MOL   H11013174   1.662   3.362   7.561 -0.2114  2.9345  2.7993
   93MOL   H11113175   1.498   3.410   7.590  0.1309  1.3862 -1.3757
   93MOL   H11213176   1.552   3.165   7.588 -1.7670 -0.4821  0.5031
   93MOL   H11313177   1.548   3.185   7.412  1.0960  1.9319 -0.5326
   93MOL   C11413178   1.308   3.097   7.472 -0.3867 -0.2177  0.0323
   93MOL   C11513179   1.152   3.117   7.461 -0.3130  0.2221 -0.4258
   93MOL   O11613180   1.087   3.040   7.566  0.2779  0.3646 -0.7021
   93MOL   H11713181   1.350   3.057   7.380 -3.1231  0.6461 -1.6784
   93MOL   H11813182   1.332   3.023   7.548 -0.2985  0.8059  1.0253
   93MOL   H11913183   1.123   3.081   7.363  0.3350 -0.0910 -0.5100
   93MOL   H12013184   1.135   3.225   7.464  0.6308  0.4420 -2.1121
   93MOL   C12113185   0.958   3.076   7.607 -0.0456 -0.4277  0.2682
   93MOL   C12213186   0.926   3.005   7.743  0.1666  0.1740 -0.3597
   93MOL   O12313187   0.993   3.054   0.085 -0.7896 -0.4846 -0.9030
   93MOL   H12413188   0.951   3.183   7.624  1.1572 -0.2862 -0.1345
   93MOL   H12513189   0.889   3.052   7.527 -1.8155  2.5252  0.8459
   93MOL   H12613190   0.946   2.898   7.740  2.5331  0.5303  1.1794
   93MOL   H12713191   0.819   3.010   7.761 -0.2769  0.0042 -2.7187
   93MOL   C12813192   0.989   2.988   0.207 -0.4572  0.4526  0.8216
   93MOL   C12913193   1.127   3.032   0.275 -0.5186  0.4720  0.5302
   93MOL   O13013194   1.223   2.963   0.193  0.2618  0.1604  0.1950
   93MOL   H13113195   0.906   3.029   0.265 -1.4480 -0.5519  0.1453
   93MOL   H13213196   0.981   2.880   0.212  1.5105  0.0570 -3.0294
   93MOL   H13313197   1.141   3.008   0.380 -0.3780 -1.0682  0.1700
   93MOL   H13413198   1.134   3.139   0.255 -1.4080 -0.0547 -3.0151
   93MOL   C13513199   1.357   3.013   0.204 -0.2340 -0.3261  0.2960
   93MOL   C13613200   1.396   3.082   0.065  0.4372 -0.1382 -0.4055
   93MOL   O13713201   1.302   3.186   0.044  0.3794 -0.1080 -0.2391
   93MOL   H13813202   1.363   3.082   0.287  0.3652 -2.2332  1.8841
   93MOL   H13913203   1.426   2.932   0.229  1.1020  1.2070  1.7194
   93MOL   H14013204   1.374   3.014   7.754  0.3030  2.0162 -2.1875
   93MOL   H14113205   1.501   3.113   0.060  0.2844  0.6713  1.2124
   93MOL   H14213206   1.215   3.150   0.052  1.0234 -1.5387  0.4968
   94MOL     C113207   2.156   5.837   2.659  0.8374 -0.0610  0.3154
   94MOL     C213208   2.073   5.917   2.760 -0.0181  0.0314 -0.2781
   94MOL     O313209   2.036   5.827   2.864 -0.0296 -0.3394 -0.7849
   94MOL     H413210   2.100   5.762   2.604  1.4166 -0.0302 -0.3166
   94MOL     H513211   2.234   5.790   2.720  2.0111 -0.4158 -1.4399
   94MOL     H613212   1.991   5.964   2.705  0.0125  0.9444  0.4485
   94MOL     H713213   2.134   6.001   2.794  0.1021 -0.1742  0.0089
   94MOL     H813214   2.197   5.898   2.579 -0.5982 -0.0056 -0.3768
   94MOL     C913215   1.945   5.886   2.955 -0.3014  0.4351  0.5601
   94MOL    C1013216   2.019   5.973   3.062 -0.2533  0.2303  0.2239
   94MOL    O1113217   2.087   6.089   3.026  0.2334  0.1479  0.1728
   94MOL    H1213218   1.869   5.942   2.901  0.6136 -0.4505 -1.7064
   94MOL    H1313219   1.880   5.811   3.002 -1.0394 -0.6413 -2.0790
   94MOL    H1413220   2.084   5.909   3.122  1.4598  0.8322 -0.9442
   94MOL    H1513221   1.936   6.002   3.126 -2.6107  0.2441 -2.7566
   94MOL    C1613222   2.016   6.211   3.033 -0.9115  0.0974 -0.4901
   94MOL    C1713223   1.893   6.223   2.933 -0.0458 -0.1468 -0.1927
   94MOL    O1813224   1.784   6.146   2.977 -0.6651  0.3829 -0.0676
   94MOL    H1913225   1.976   6.236   3.131 -2.4742 -1.3159 -0.7426
   94MOL    H2013226   2.078   6.298   3.016  0.9037 -1.1223 -0.2092
   94MOL    H2113227   1.924   6.204   2.830 -1.3822 -0.4200 -0.5583
   94MOL    H2213228   1.868   6.328   2.943 -2.9000 -1.0593  3.3739
   94MOL    C2313229   1.666   6.156   2.901  0.1207 -0.9409  0.0697
   94MOL    C2413230   1.545   6.089   2.972 -0.3189  0.4755 -0.4556
   94MOL    O2513231   1.568   5.947   2.988 -0.6362  0.1649  0.0039
   94MOL    H2613232   1.650   6.259   2.870 -0.8952 -0.9455  0.5493
   94MOL    H2713233   1.700   6.093   2.819 -1.8356  1.0281 -2.3285
   94MOL    H2813234   1.457   6.104   2.910 -0.4925 -0.1473 -0.3600
   94MOL    H2913235   1.515   6.135   3.066  1.0752 -1.2079  0.8582
   94MOL    C3013236   1.502   5.863   2.887 -0.5318 -0.2110 -0.6875
   94MOL    C3113237   1.576   5.858   2.751 -0.0704  0.2018 -0.2559
   94MOL    O3213238   1.533   5.969   2.671 -0.8431 -0.1589 -0.5727
   94MOL    H3313239   1.504   5.759   2.921  1.4795 -0.7245 -2.2303
   94MOL    H3413240   1.397   5.890   2.877 -0.3849  1.0593  0.9955
   94MOL    H3513241   1.559   5.768   2.692 -1.4272  0.4900 -0.3296
   94MOL    H3613242   1.685   5.865   2.755 -0.0777  0.3973 -0.3679
   94MOL    C3713243   1.608   5.987   2.549 -0.1866 -0.4282 -0.3279
   94MOL    C3813244   1.612   5.871   2.457 -0.4603  0.1255 -0.1661
   94MOL    O3913245   1.735   5.797   2.473 -0.4472 -0.3204 -0.2797
   94MOL    H4013246   1.557   6.067   2.495 -2.0788 -0.1748  1.7693
   94MOL    H4113247   1.709   6.020   2.574 -0.6628 -0.0161  1.1152
   94MOL    H4213248   1.625   5.911   2.356  0.9316  1.9320  0.7103
   94MOL    H4313249   1.525   5.807   2.474 -0.7178  0.6840  0.6045
   94MOL    C4413250   1.720   5.672   2.414 -0.3802  0.2429  0.3854
   94MOL    C4513251   1.857   5.606   2.448 -0.0276 -0.0220 -1.3313
   94MOL    O4613252   1.853   5.517   2.559  0.3347 -0.2451 -0.2131
   94MOL    H4713253   1.638   5.617   2.462 -0.1200 -2.6479 -2.3545
   94MOL    H4813254   1.695   5.673   2.308  1.8372 -1.0339 -0.1847
   94MOL    H4913255   1.947   5.667   2.446 -1.9918  2.9609 -1.7630
   94MOL    H5013256   1.890   5.545   2.363  0.6107  0.9115 -1.7553
   94MOL    C5113257   1.862   5.574   2.686 -0.5141  0.3477 -0.4714
   94MOL    C5213258   1.776   5.478   2.773 -0.2974 -0.1973  0.3384
   94MOL    O5313259   1.639   5.512   2.735  0.1880 -0.0563 -0.2854
   94MOL    H5413260   1.971   5.570   2.694 -0.6069 -3.0021 -0.2157
   94MOL    H5513261   1.823   5.676   2.682 -0.7424  0.3660  1.7426
   94MOL    H5613262   1.784   5.486   2.882 -2.7244  1.4454  0.4256
   94MOL    H5713263   1.796   5.374   2.745 -0.3444 -0.7733  2.3091
   94MOL    C5813264   1.546   5.414   2.771 -0.7830  0.0724 -1.3492
   94MOL    C5913265   1.414   5.452   2.717  0.1029  0.1758  0.8376
   94MOL    O6013266   1.347   5.555   2.795 -0.1034  0.1561  0.3509
   94MOL    H6113267   1.572   5.316   2.729  1.6041 -0.0886  0.3902
   94MOL    H6213268   1.525   5.391   2.875 -1.5607 -0.7126 -1.6702
   94MOL    H6313269   1.347   5.368   2.699  0.5160  0.2699 -1.2944
   94MOL    H6413270   1.432   5.486   2.614  2.6292 -0.6877  0.9654
   94MOL    C6513271   1.213   5.588   2.761 -0.1166 -0.6804  0.4608
   94MOL    C6613272   1.129   5.471   2.807 -0.1856  0.5831  0.1928
   94MOL    O6713273   1.111   5.376   2.707 -0.1394  0.0598  0.0694
   94MOL    H6813274   1.187   5.678   2.816  2.0671 -0.3338  0.9765
   94MOL    H6913275   1.207   5.611   2.655 -0.1452  0.2951  0.6769
   94MOL    H7013276   1.034   5.519   2.832 -1.1027 -0.4268 -1.2977
   94MOL    H7113277   1.172   5.430   2.898  1.1415  2.0681  0.2443
   94MOL    C7213278   1.024   5.272   2.746  0.6515  0.2566  0.1492
   94MOL    C7313279   1.086   5.169   2.845  0.2480  0.2814 -0.3601
   94MOL    O7413280   1.068   5.216   2.979  0.3232  0.2680  0.1402
   94MOL    H7513281   0.932   5.320   2.780  1.0882 -0.2115  2.0411
   94MOL    H7613282   1.011   5.216   2.654 -0.3438  1.7154 -0.6217
   94MOL    H7713283   1.191   5.152   2.821  0.6355  1.2146  0.6303
   94MOL    H7813284   1.040   5.072   2.828 -0.2178  0.8405 -2.4317
   94MOL    C7913285   1.047   5.121   3.082 -0.8794 -0.4059  0.4463
   94MOL    C8013286   1.018   5.179   3.219 -0.9336 -0.1436  0.0618
   94MOL    O8113287   0.879   5.185   3.241  0.5630 -0.2738  0.0229
   94MOL    H8213288   0.957   5.063   3.059 -0.8416 -0.5140  0.5675
   94MOL    H8313289   1.135   5.056   3.086 -0.2138  0.5388  1.2997
   94MOL    H8413290   1.077   5.269   3.234  1.6683 -1.6619 -0.7878
   94MOL    H8513291   1.049   5.096   3.283  1.0182  1.1529  0.8361
   94MOL    C8613292   0.849   5.298   3.330 -0.1442  0.1440  0.9080
   94MOL    C8713293   0.879   5.242   3.471  0.0582 -0.4788  0.3826
   94MOL    O8813294   1.019   5.264   3.503  0.2677 -0.2616 -0.1838
   94MOL    H8913295   0.900   5.391   3.303  1.4513 -1.0860 -0.4533
   94MOL    H9013296   0.744   5.326   3.323  0.0974  0.4788 -1.6604
   94MOL    H9113297   0.868   5.135   3.487 -1.7701 -0.3050  0.4640
   94MOL    H9213298   0.811   5.297   3.536  1.8591  0.4946  1.4875
   94MOL    C9313299   1.046   5.246   3.641 -0.6365  0.0266 -0.1399
   94MOL    C9413300   1.186   5.182   3.652 -0.7460  0.8784 -0.3586
   94MOL    O9513301   1.157   5.046   3.684 -0.2581 -0.6862  0.1911
   94MOL    H9613302   1.061   5.348   3.675  1.2796 -0.2821  0.0047
   94MOL    H9713303   0.970   5.188   3.694 -0.7683  0.0808 -0.2711
   94MOL    H9813304   1.232   5.234   3.736 -0.3109  0.6298 -0.4402
   94MOL    H9913305   1.252   5.195   3.566 -1.3681 -1.2535 -1.1943
   94MOL   C10013306   1.133   4.964   3.572  0.1085 -0.5050 -0.2334
   94MOL   C10113307   1.083   4.823   3.592 -0.2867  0.2089  0.4591
   94MOL   O10213308   0.940   4.811   3.599 -0.1722 -0.0459  0.3658
   94MOL   H10313309   1.063   5.011   3.503  0.2164 -1.0369 -0.7090
   94MOL   H10413310   1.225   4.957   3.513  0.1205  1.8882 -0.5873
   94MOL   H10513311   1.124   4.774   3.680  2.0685 -0.9718 -1.2279
   94MOL   H10613312   1.104   4.760   3.505 -2.7102 -0.8134  0.5756
   94MOL   C10713313   0.891   4.871   3.718 -0.1300  0.3998  0.0359
   94MOL   C10813314   0.738   4.881   3.720 -0.0065  0.2465  0.2062
   94MOL   O10913315   0.682   4.754   3.756  0.5286  0.7685  1.0591
   94MOL   H11013316   0.932   4.812   3.800 -0.5909 -1.8563 -1.2851
   94MOL   H11113317   0.929   4.972   3.728  1.1227 -0.0162 -0.4117
   94MOL   H11213318   0.708   4.921   3.623 -0.8830  0.6478  0.6371
   94MOL   H11313319   0.695   4.941   3.800 -3.1005 -2.4542  0.6628
   94MOL   C11413320   0.538   4.738   3.726  1.2437  0.3738  0.0894
   94MOL   C11513321   0.502   4.589   3.748 -0.1617  0.5945 -0.3921
   94MOL   O11613322   0.546   4.551   3.874  0.0380  0.2820 -0.5253
   94MOL   H11713323   0.493   4.801   3.803  2.2336  0.0347  0.9602
   94MOL   H11813324   0.506   4.774   3.628 -0.5349  0.8720  0.8355
   94MOL   H11913325   0.554   4.530   3.672 -0.5122  0.5066 -0.5674
   94MOL   H12013326   0.395   4.585   3.727 -0.2249 -0.6215  0.1210
   94MOL   C12113327   0.525   4.417   3.899  0.2093  0.4367 -0.3224
   94MOL   C12213328   0.583   4.388   4.043  0.0196  0.3054  0.4380
   94MOL   O12313329   0.499   4.412   4.157  0.6327  0.1154 -0.5575
   94MOL   H12413330   0.419   4.391   3.897  0.0243  1.0376  0.9246
   94MOL   H12513331   0.566   4.342   3.832  1.2880  0.3404  0.4293
   94MOL   H12613332   0.685   4.423   4.056  1.0046 -2.6866  1.3095
   94MOL   H12713333   0.609   4.282   4.047  3.5695  1.0740  0.1491
   94MOL   C12813334   0.498   4.316   4.265 -0.6441 -0.0863  0.0116
   94MOL   C12913335   0.426   4.360   4.391 -0.3450 -0.2882 -0.4113
   94MOL   O13013336   0.288   4.374   4.367 -0.0050 -0.0873 -0.0178
   94MOL   H13113337   0.464   4.219   4.228 -0.4389  0.4182 -1.5296
   94MOL   H13213338   0.601   4.299   4.295 -0.5170 -0.6856 -0.7582
   94MOL   H13313339   0.460   4.460   4.420 -3.1154  0.2570  1.2085
   94MOL   H13413340   0.440   4.301   4.482  0.0214 -1.3518 -1.1561
   94MOL   C13513341   0.221   4.407   4.492  0.0985 -0.1330  0.2219
   94MOL   C13613342   0.069   4.391   4.472  0.1554 -0.0896 -0.6321
   94MOL   O13713343   0.025   4.468   4.353  0.9565  0.0544 -0.3893
   94MOL   H13813344   0.254   4.348   4.577 -1.5249  0.6782  1.4438
   94MOL   H13913345   0.255   4.510   4.502  1.8735 -0.8192  1.4892
   94MOL   H14013346   0.004   4.427   4.552  0.6516 -0.5879  0.0039
   94MOL   H14113347   0.038   4.290   4.447 -1.8481 -0.7985  4.1169
   94MOL   H14213348   0.068   4.426   4.280  1.8646  0.2622  0.0180
   95MOL     C113349   2.273   4.116   7.067 -0.3778 -0.9892 -0.6520
   95MOL     C213350   2.145   4.174   6.997 -0.2217  0.7196  0.3796
   95MOL     O313351   2.050   4.153   7.101 -0.2919 -0.2178  0.0872
   95MOL     H413352   2.253   4.034   7.136 -0.2229 -0.7733 -0.3467
   95MOL     H513353   2.325   4.193   7.125  0.9114 -1.3921 -1.2592
   95MOL     H613354   2.119   4.120   6.906 -0.6454  0.6185  0.5583
   95MOL     H713355   2.163   4.280   6.981 -0.7372  1.0054  1.6909
   95MOL     H813356   2.337   4.065   6.995 -0.7588 -0.1141 -1.6076
   95MOL     C913357   1.928   4.209   7.066 -0.0977  0.3249 -0.6511
   95MOL    C1013358   1.824   4.171   7.173  0.0261  0.1411  0.4367
   95MOL    O1113359   1.758   4.293   7.204  0.3881  0.0764  0.0805
   95MOL    H1213360   1.933   4.317   7.052  1.5159 -0.0067 -2.7133
   95MOL    H1313361   1.897   4.164   6.972  0.5779 -0.5754 -0.4502
   95MOL    H1413362   1.881   4.131   7.256  0.9321 -1.3459 -0.8722
   95MOL    H1513363   1.753   4.090   7.157 -2.1361  1.8377  1.1037
   95MOL    C1613364   1.677   4.286   7.317  0.4670  0.3339  0.0184
   95MOL    C1713365   1.651   4.433   7.338 -0.1815 -0.1888  0.4136
   95MOL    O1813366   1.638   4.455   7.474 -0.4221 -0.1148 -0.3637
   95MOL    H1913367   1.587   4.227   7.298  1.8731 -2.2648  1.0760
   95MOL    H2013368   1.721   4.246   7.408 -0.4523  1.1511  0.8311
   95MOL    H2113369   1.575   4.469   7.269 -0.2796 -1.0215  0.0844
   95MOL    H2213370   1.744   4.487   7.318  0.0331 -0.2339  1.2631
   95MOL    C2313371   1.604   4.595   7.500  0.5276 -0.9122 -0.5380
   95MOL    C2413372   1.567   4.605   7.650 -0.7505 -0.0709  0.5855
   95MOL    O2513373   1.669   4.620   7.748 -0.2899 -0.6355  0.4305
   95MOL    H2613374   1.678   4.669   7.469 -0.8175 -0.5153 -2.8555
   95MOL    H2713375   1.517   4.618   7.439  0.3770  0.8932  0.3148
   95MOL    H2813376   1.507   4.518   7.679  0.1585 -1.4810 -1.6697
   95MOL    H2913377   1.497   4.688   7.661 -0.7290  0.3678 -2.2370
   95MOL    C3013378   1.755   4.505   7.749 -0.4575  0.2030  0.4545
   95MOL    C3113379   1.830   4.521   0.112 -0.4029  0.6142 -0.4163
   95MOL    O3213380   1.939   4.606   0.078 -0.3155  0.0452  0.2796
   95MOL    H3313381   1.700   4.411   7.754  1.2384 -0.7345  2.3190
   95MOL    H3413382   1.827   4.505   7.667  0.5332 -2.8895  1.2412
   95MOL    H3513383   1.868   4.424   0.146 -1.4240  0.5866  0.6711
   95MOL    H3613384   1.766   4.559   0.192 -3.2915  1.5803 -3.1131
   95MOL    C3713385   1.997   4.679   0.191  0.3473  0.0366  0.0207
   95MOL    C3813386   1.904   4.780   0.247  0.5029  0.4660 -0.5900
   95MOL    O3913387   1.812   4.730   0.349 -0.4318 -0.4941 -0.2807
   95MOL    H4013388   2.025   4.610   0.270  0.8848  0.4549  0.1926
   95MOL    H4113389   2.089   4.722   0.152  0.5319 -1.4074 -1.1929
   95MOL    H4213390   1.850   4.842   0.175 -1.1874 -0.8687 -0.4849
   95MOL    H4313391   1.966   4.847   0.306  0.2180 -0.4116  0.7318
   95MOL    C4413392   1.720   4.827   0.393 -0.6665  0.0878  0.3557
   95MOL    C4513393   1.617   4.762   0.482 -0.7894  0.3312  0.5346
   95MOL    O4613394   1.560   4.645   0.426 -0.5718 -0.0024  0.6790
   95MOL    H4713395   1.774   4.895   0.458 -0.8700  0.5922 -0.0043
   95MOL    H4813396   1.673   4.886   0.314  1.2227  0.8830 -0.1945
   95MOL    H4913397   1.543   4.836   0.513 -0.5150  1.0041 -0.3973
   95MOL    H5013398   1.677   4.744   0.571 -0.9905 -0.1503  0.5693
   95MOL    C5113399   1.480   4.580   0.523 -0.5967 -0.5278 -0.4724
   95MOL    C5213400   1.411   4.456   0.469 -0.1838 -0.3468 -0.6721
   95MOL    O5313401   1.321   4.497   0.367 -0.2116  0.3139  0.0568
   95MOL    H5413402   1.539   4.549   0.609 -1.0381  0.9125  0.3516
   95MOL    H5513403   1.401   4.645   0.561  0.3265  0.3084  0.0399
   95MOL    H5613404   1.359   4.410   0.553 -0.9125 -1.8441 -1.9037
   95MOL    H5713405   1.481   4.380   0.435 -0.4753 -0.3925 -1.1855
   95MOL    C5813406   1.262   4.379   0.314 -0.2212 -0.6926 -1.1904
   95MOL    C5913407   1.114   4.385   0.266  0.2475  0.6331 -0.5205
   95MOL    O6013408   1.095   4.400   0.124 -0.1062  0.8852  0.3333
   95MOL    H6113409   1.318   4.358   0.223 -2.2085 -1.0767 -2.3566
   95MOL    H6213410   1.276   4.294   0.382  0.5156  0.1483 -0.2833
   95MOL    H6313411   1.065   4.466   0.321 -1.1677 -0.4810 -0.1113
   95MOL    H6413412   1.076   4.292   0.309  1.1852  0.0719 -0.9036
   95MOL    C6513413   1.149   4.525   0.067 -0.4238 -0.4491  0.3517
   95MOL    C6613414   1.098   4.560   7.698  0.6309  0.4176  0.0508
   95MOL    O6713415   1.122   4.460   7.597  0.0726  0.1775  0.1877
   95MOL    H6813416   1.124   4.604   0.137  0.3687  0.1462 -0.0252
   95MOL    H6913417   1.256   4.510   0.052 -0.4862 -0.3067 -0.2742
   95MOL    H7013418   1.138   4.657   7.667  0.2741  0.3595 -0.5813
   95MOL    H7113419   0.990   4.573   7.708  0.5705 -0.6316  0.7929
   95MOL    C7213420   1.225   4.492   7.503 -0.2390  0.1540  0.1483
   95MOL    C7313421   1.170   4.583   7.384  0.2729  0.0137 -0.8862
   95MOL    O7413422   1.215   4.706   7.416 -0.2630 -0.8078 -0.7285
   95MOL    H7513423   1.316   4.540   7.539  1.2745 -1.5002 -1.4027
   95MOL    H7613424   1.239   4.389   7.471  1.3292 -0.1145  1.6805
   95MOL    H7713425   1.061   4.577   7.379  0.1939  0.6661  0.1253
   95MOL    H7813426   1.216   4.544   7.293  0.2229 -1.8619 -0.1471
   95MOL    C7913427   1.228   4.793   7.305  0.0071  0.0815 -0.4606
   95MOL    C8013428   1.286   4.924   7.358 -0.4671  0.3288 -0.3011
   95MOL    O8113429   1.421   4.914   7.399 -0.0294  0.5425 -0.1527
   95MOL    H8213430   1.293   4.762   7.223 -0.2448  0.8842 -0.9686
   95MOL    H8313431   1.128   4.818   7.270  0.5955  1.4011 -1.2212
   95MOL    H8413432   1.226   4.970   7.436  1.4581  2.6731 -0.1430
   95MOL    H8513433   1.302   4.978   7.264  0.2521 -0.0477 -0.3980
   95MOL    C8613434   1.473   5.035   7.450 -0.8462  0.2045  0.4247
   95MOL    C8713435   1.591   5.012   7.547 -0.4719  0.3155 -0.4809
   95MOL    O8813436   1.535   4.976   7.676  0.0989 -0.1179  0.2602
   95MOL    H8913437   1.510   5.097   7.368  0.0865  1.3692  1.7148
   95MOL    H9013438   1.397   5.092   7.505 -0.9843  2.1529 -1.7088
   95MOL    H9113439   1.645   5.106   7.561 -0.8144  0.3408  0.7105
   95MOL    H9213440   1.655   4.936   7.503  4.4812  3.3157  1.0847
   95MOL    C9313441   1.640   4.960   7.769  0.1367 -0.7708 -0.0052
   95MOL    C9413442   1.678   5.095   0.073  0.3499  0.8858  0.0768
   95MOL    O9513443   1.777   5.165   0.005 -0.2533 -0.6015  0.3347
   95MOL    H9613444   1.609   4.882   0.067 -0.1728 -0.3779  0.3017
   95MOL    H9713445   1.722   4.918   7.711  1.4414  1.0566  0.4725
   95MOL    H9813446   1.711   5.076   0.175  0.9715 -0.0333 -0.2907
   95MOL    H9913447   1.580   5.143   0.083  1.0305  3.0600 -3.1007
   95MOL   C10013448   1.906   5.165   0.062  0.1770  0.7376  0.0680
   95MOL   C10113449   1.914   5.258   0.183  0.2112  0.2453 -0.6333
   95MOL   O10213450   1.872   5.386   0.142  0.5665  0.2176  0.3555
   95MOL   H10313451   1.928   5.065   0.098  0.2767  0.9175  0.5060
   95MOL   H10413452   1.982   5.191   7.758  1.5626 -1.2724  0.7537
   95MOL   H10513453   2.016   5.252   0.221 -0.1639 -1.7236  0.1641
   95MOL   H10613454   1.841   5.235   0.261 -0.1565  2.1576 -0.3842
   95MOL   C10713455   1.888   5.492   0.232 -0.4917  0.1305  0.3195
   95MOL   C10813456   2.024   5.557   0.221 -0.2976  0.5467 -0.1205
   95MOL   O10913457   2.122   5.487   0.299 -0.0693  0.0680 -0.5132
   95MOL   H11013458   1.821   5.569   0.191 -1.6363 -1.1057 -0.1606
   95MOL   H11113459   1.869   5.471   0.337  0.4314  1.3111  0.7432
   95MOL   H11213460   2.014   5.659   0.258 -1.2035  1.0670 -1.7695
   95MOL   H11313461   2.048   5.557   0.115  0.8192 -0.7044  0.1227
   95MOL   C11413462   2.247   5.550   0.273 -0.0078 -0.2629 -0.3472
   95MOL   C11513463   2.346   5.475   0.359  0.8922  0.0771 -0.5065
   95MOL   O11613464   2.397   5.370   0.275 -0.2332  0.2125 -0.4247
   95MOL   H11713465   2.272   5.552   0.167  0.7738 -0.7962 -0.1700
   95MOL   H11813466   2.239   5.654   0.306 -1.0402 -0.6279  0.5984
   95MOL   H11913467   2.294   5.450   0.451 -0.3027 -0.2449 -1.2606
   95MOL   H12013468   2.426   5.543   0.388 -0.7367  2.0586 -0.5632
   95MOL   C12113469   2.512   5.300   0.332  0.3941 -0.1918 -0.3847
   95MOL   C12213470   2.640   5.383   0.341  0.3080  0.1685 -0.1758
   95MOL   O12313471   2.645   5.468   0.454 -0.0105 -0.3323  0.0026
   95MOL   H12413472   2.502   5.259   0.433  1.7516 -0.5937 -0.3971
   95MOL   H12513473   2.518   5.213   0.266  1.2440 -1.3378  1.1622
   95MOL   H12613474   2.641   5.445   0.251 -0.6794 -0.2057 -0.4501
   95MOL   H12713475   2.729   5.321   0.327 -1.0665 -1.7797 -0.5315
   95MOL   C12813476   2.775   5.509   0.474  0.3174  0.3932 -0.3014
   95MOL   C12913477   2.810   5.586   0.608  0.4473 -0.2954  0.2197
   95MOL   O13013478   2.859   5.497   0.708  0.2435  0.8565  0.7708
   95MOL   H13113479   2.844   5.426   0.458  1.0232  1.1989 -1.5708
   95MOL   H13213480   2.794   5.588   0.401  0.8277  0.9467  0.4260
   95MOL   H13313481   2.723   5.645   0.635  0.8267 -0.2917  1.4856
   95MOL   H13413482   2.897   5.648   0.586 -0.4175  0.0566 -2.3320
   95MOL   C13513483   2.756   5.402   0.754  0.7249 -1.0481 -0.1307
   95MOL   C13613484   2.824   5.309   0.850 -0.0306 -0.1180  0.1982
   95MOL   O13713485   2.915   5.249   0.752  0.1927  0.3951 -0.0252
   95MOL   H13813486   2.679   5.464   0.800  2.1656  0.2135  0.6062
   95MOL   H13913487   2.716   5.338   0.675  0.2609 -2.1357  0.9732
   95MOL   H14013488   2.753   5.240   0.895 -0.9847  0.6896 -0.0745
   95MOL   H14113489   2.893   5.352   0.923  0.2497  0.7457 -0.5591
   95MOL   H14213490   2.925   5.300   0.673  1.5300  0.6378  0.2845
   96MOL     C113491   3.360   1.751   0.540  0.0257  0.4181  0.2050
   96MOL     C213492   3.377   1.848   0.425  0.0458 -0.2324 -0.8596
   96MOL     O313493   3.376   1.777   0.303 -0.3113  0.9248 -0.0609
   96MOL     H413494   3.410   1.655   0.525 -1.3742 -0.3433  0.2840
   96MOL     H513495   3.252   1.745   0.554 -0.0961 -1.2693 -1.2612
   96MOL     H613496   3.466   1.909   0.443 -0.5349  0.7034 -1.1648
   96MOL     H713497   3.301   1.925   0.435  1.5151  1.3572 -1.5912
   96MOL     H813498   3.389   1.809   0.628 -0.8190  0.8480  0.2045
   96MOL     C913499   3.471   1.811   0.202 -0.4578 -0.5997 -0.2246
   96MOL    C1013500   3.431   1.740   0.070 -0.4151 -1.0480 -0.2897
   96MOL    O1113501   3.499   1.809   7.746  0.1911 -1.2399  0.2349
   96MOL    H1213502   3.475   1.920   0.188  0.4182 -0.5569  0.3294
   96MOL    H1313503   3.573   1.793   0.236 -0.1163 -0.8858 -1.3816
   96MOL    H1413504   3.323   1.743   0.060 -0.4127  4.6859 -0.2994
   96MOL    H1513505   3.467   1.637   0.078 -2.5506 -1.7799  0.2878
   96MOL    C1613506   3.484   1.764   7.612  0.4843 -0.4651 -0.0908
   96MOL    C1713507   3.560   1.862   7.523  0.2182  0.2114 -0.7470
   96MOL    O1813508   3.703   1.831   7.536  0.5804 -0.3003 -0.2448
   96MOL    H1913509   3.516   1.661   7.595  1.9261  0.2161 -1.7173
   96MOL    H2013510   3.377   1.767   7.593  0.6736 -0.4028 -1.1971
   96MOL    H2113511   3.531   1.962   7.554  0.3852  0.0684 -0.1031
   96MOL    H2213512   3.531   1.850   7.419  1.7579 -1.4218 -1.0210
   96MOL    C2313513   3.785   1.936   7.480 -1.2293 -0.1403 -0.3118
   96MOL    C2413514   3.933   1.921   7.524 -0.0387  0.2585 -0.1009
   96MOL    O2513515   4.031   1.880   7.433  0.0451 -0.4250 -0.1220
   96MOL    H2613516   3.786   1.928   7.371 -1.3378 -2.3642 -0.1765
   96MOL    H2713517   3.748   2.034   7.507  0.1464  0.3987 -0.3474
   96MOL    H2813518   3.946   1.839   7.595  0.1943 -0.1066 -0.5642
   96MOL    H2913519   3.965   2.012   7.575  0.4409 -0.9434  1.8057
   96MOL    C3013520   4.071   1.985   7.340 -0.0521 -0.2811  0.8059
   96MOL    C3113521   4.194   1.933   7.267  0.2998 -0.4948 -0.4086
   96MOL    O3213522   4.251   2.032   7.185 -0.5620  0.0350  0.8510
   96MOL    H3313523   3.980   2.003   7.284  0.5871 -0.6889 -0.3824
   96MOL    H3413524   4.095   2.079   7.391 -2.1050  0.3396  0.6492
   96MOL    H3513525   4.172   1.843   7.210 -1.3248 -1.1132  1.1760
   96MOL    H3613526   4.275   1.909   7.336  3.4880  2.0456 -3.0984
   96MOL    C3713527   4.385   2.006   7.156 -0.0105  0.3665  0.5536
   96MOL    C3813528   4.434   2.104   7.052 -0.1870  0.3234  0.4928
   96MOL    O3913529   4.388   2.064   6.921 -0.2148  0.1087 -0.6816
   96MOL    H4013530   4.447   2.011   7.245 -0.8679  1.2301  1.1047
   96MOL    H4113531   4.388   1.905   7.115  1.1807 -0.9343  3.6576
   96MOL    H4213532   4.541   2.120   7.063 -0.0604 -0.6676  0.7346
   96MOL    H4313533   4.406   2.207   7.074 -1.0270  0.3601 -0.6601
   96MOL    C4413534   4.258   2.096   6.883  0.0331  0.3087 -0.4555
   96MOL    C4513535   4.266   2.220   6.798 -0.3280  0.2113  0.0080
   96MOL    O4613536   4.138   2.267   6.755  0.0447 -0.1669 -0.2320
   96MOL    H4713537   4.208   2.015   6.829 -1.4821 -0.9904  2.7832
   96MOL    H4813538   4.195   2.099   6.971  0.1681 -1.1611 -0.2999
   96MOL    H4913539   4.336   2.196   6.718 -0.2153 -1.5017  0.5987
   96MOL    H5013540   4.316   2.293   6.862 -1.1612 -0.2517  1.2222
   96MOL    C5113541   4.128   2.385   6.679  0.4241  0.6834 -0.4957
   96MOL    C5213542   4.096   2.500   6.767 -0.1284  0.1401  0.1663
   96MOL    O5313543   3.958   2.540   6.736  0.1027  0.3620  0.1169
   96MOL    H5413544   4.229   2.400   6.640  0.6757 -2.0060 -0.9650
   96MOL    H5513545   4.060   2.374   6.595 -0.8714 -0.6460  0.6909
   96MOL    H5613546   4.164   2.579   6.737 -2.3026  1.0636 -2.4994
   96MOL    H5713547   4.102   2.494   6.876 -2.0740 -1.7059  0.2096
   96MOL    C5813548   3.883   2.585   6.846  0.2707 -0.1954 -0.2852
   96MOL    C5913549   3.741   2.628   6.793 -0.5884 -0.0129 -0.4863
   96MOL    O6013550   3.661   2.516   6.819  0.2198 -0.3057 -0.3886
   96MOL    H6113551   3.867   2.500   6.912  2.4538 -0.6997 -0.3605
   96MOL    H6213552   3.933   2.664   6.902 -0.0154  0.4141 -0.8762
   96MOL    H6313553   3.741   2.645   6.686  1.4100  0.0413 -0.4909
   96MOL    H6413554   3.706   2.723   6.834 -0.7301  0.7688 -2.3903
   96MOL    C6513555   3.524   2.530   6.779 -0.2567 -0.0060  0.4971
   96MOL    C6613556   3.445   2.398   6.806 -0.9549  0.4677  0.2294
   96MOL    O6713557   3.303   2.423   6.814 -0.1099 -0.4482  0.1894
   96MOL    H6813558   3.477   2.614   6.831 -1.6085 -0.6403  0.2967
   96MOL    H6913559   3.504   2.558   6.676 -1.0891 -1.3299  0.2988
   96MOL    H7013560   3.481   2.366   6.904 -1.3713  1.3121  0.6625
   96MOL    H7113561   3.473   2.317   6.738 -2.8378  1.1875 -1.4464
   96MOL    C7213562   3.230   2.308   6.815  0.0445  0.4440 -0.1584
   96MOL    C7313563   3.082   2.343   6.857 -0.5559 -0.0474 -0.2991
   96MOL    O7413564   3.016   2.435   6.771  0.3748 -0.4121  0.4743
   96MOL    H7513565   3.217   2.272   6.713 -0.3998  1.3315 -0.4139
   96MOL    H7613566   3.275   2.230   6.877 -0.1910 -1.1544 -1.9570
   96MOL    H7713567   3.080   2.380   6.959 -0.3207 -0.1020 -0.2744
   96MOL    H7813568   3.028   2.249   6.864  0.8524 -0.7656  1.1170
   96MOL    C7913569   2.877   2.416   6.785  0.9194  0.6848 -0.3944
   96MOL    C8013570   2.811   2.446   6.922  0.1838 -0.4173 -0.1065
   96MOL    O8113571   2.828   2.338   7.004  0.0700  0.0987 -0.6117
   96MOL    H8213572   2.828   2.474   6.706  0.6823 -0.2782 -0.9693
   96MOL    H8313573   2.863   2.313   6.753 -0.0009  0.7051 -0.0716
   96MOL    H8413574   2.704   2.443   6.901  0.3962 -0.0656 -1.2843
   96MOL    H8513575   2.839   2.539   6.972 -2.4566 -0.3570  1.3835
   96MOL    C8613576   2.760   2.343   7.129  0.3252  0.1247  0.3975
   96MOL    C8713577   2.807   2.224   7.212  0.5500  0.4967 -0.3390
   96MOL    O8813578   2.754   2.100   7.169 -0.5439 -0.1466  0.0714
   96MOL    H8913579   2.796   2.439   7.166  1.8725  0.1324 -1.0671
   96MOL    H9013580   2.652   2.348   7.118  0.1492 -4.7284 -1.1706
   96MOL    H9113581   2.783   2.240   7.317 -2.9852  1.4620 -1.2123
   96MOL    H9213582   2.915   2.229   7.205  0.6722 -1.5521 -0.3862
   96MOL    C9313583   2.857   2.001   7.157 -0.2077 -0.2004 -0.7035
   96MOL    C9413584   2.791   1.864   7.142 -0.1435 -0.2332 -0.9363
   96MOL    O9513585   2.718   1.843   7.020  0.1825 -0.4202  0.1748
   96MOL    H9613586   2.929   2.016   7.077  1.4990 -1.8314  0.5093
   96MOL    H9713587   2.913   2.007   7.250  0.2425  0.5182 -1.0145
   96MOL    H9813588   2.720   1.857   7.225 -1.0116  1.1882 -1.5398
   96MOL    H9913589   2.856   1.778   7.153  0.2672  0.1111 -0.6786
   96MOL   C10013590   2.693   1.712   6.971 -0.0200 -0.1550  0.5010
   96MOL   C10113591   2.601   1.726   6.852  0.5966  0.2149  0.4979
   96MOL   O10213592   2.672   1.782   6.748  0.5305 -0.8353 -0.1611
   96MOL   H10313593   2.781   1.661   6.933 -0.0563  0.3308 -0.2289
   96MOL   H10413594   2.654   1.642   7.045  2.2282 -0.6691  1.2238
   96MOL   H10513595   2.516   1.789   6.875 -0.8017 -1.3974 -0.1515
   96MOL   H10613596   2.572   1.623   6.831  0.3425  0.3687  0.0930
   96MOL   C10713597   2.613   1.771   6.614  0.1052 -0.2667  0.2588
   96MOL   C10813598   2.702   1.812   6.491 -0.0650 -0.6485  0.3723
   96MOL   O10913599   2.678   1.947   6.470 -0.6495  0.1965  0.4021
   96MOL   H11013600   2.594   1.666   6.595 -3.8063  0.3389  0.3583
   96MOL   H11113601   2.523   1.831   6.595  2.1672  2.8624 -0.0503
   96MOL   H11213602   2.676   1.758   6.399 -0.0104  1.3177 -0.8224
   96MOL   H11313603   2.808   1.796   6.508 -0.1228  0.5128  1.8571
   96MOL   C11413604   2.745   2.027   6.376 -0.1424 -0.1465  0.6932
   96MOL   C11513605   2.688   2.170   6.383 -0.0324 -0.3956 -0.5850
   96MOL   O11613606   2.559   2.186   6.321 -0.0278 -0.3981 -0.2920
   96MOL   H11713607   2.849   2.025   6.410 -0.3761  1.2733  1.5563
   96MOL   H11813608   2.748   1.978   6.279  2.0563  3.2515 -1.0527
   96MOL   H11913609   2.750   2.235   6.320 -0.4096 -0.2807 -0.8434
   96MOL   H12013610   2.695   2.216   6.481  0.9971  0.0484 -0.8594
   96MOL   C12113611   2.453   2.128   6.392 -0.6845 -0.0402  0.8145
   96MOL   C12213612   2.330   2.225   6.386  0.2586 -0.2301 -0.1979
   96MOL   O12313613   2.311   2.287   6.511 -0.3856 -0.4961  0.4221
   96MOL   H12413614   2.422   2.032   6.350  1.4735  0.1956 -1.4183
   96MOL   H12513615   2.481   2.116   6.497  1.8204  0.5282  0.2372
   96MOL   H12613616   2.236   2.172   6.371  1.4855 -2.6377  0.2171
   96MOL   H12713617   2.339   2.288   6.298  3.2850 -0.5391 -0.1622
   96MOL   C12813618   2.400   2.387   6.556 -0.3528  0.4344  0.5438
   96MOL   C12913619   2.374   2.415   6.702 -0.8191 -0.2535 -0.0993
   96MOL   O13013620   2.462   2.338   6.787 -0.1309 -0.9759 -0.0054
   96MOL   H13113621   2.496   2.343   6.531 -1.8441 -1.7946 -1.4587
   96MOL   H13213622   2.391   2.479   6.498 -3.6775  1.0614  1.9379
   96MOL   H13313623   2.268   2.397   6.718 -0.9063  0.6994  0.4172
   96MOL   H13413624   2.401   2.519   6.721 -2.9116 -0.3494  3.6811
   96MOL   C13513625   2.416   2.200   6.796 -0.3128  0.6270  0.1517
   96MOL   C13613626   2.513   2.111   6.874 -0.0744  0.2612  0.2185
   96MOL   O13713627   2.528   2.170   7.006 -0.4621 -0.3068 -0.7891
   96MOL   H13813628   2.320   2.202   6.848 -0.4193 -1.8675  0.1138
   96MOL   H13913629   2.378   2.150   6.707 -1.8381  2.3346 -0.1957
   96MOL   H14013630   2.605   2.096   6.818  0.6115  0.9334  1.1327
   96MOL   H14113631   2.474   2.010   6.888 -1.1905  0.8635  1.6582
   96MOL   H14213632   2.611   2.148   7.045 -1.3712  1.2819  2.2370
   97MOL     C113633   6.513   2.884   1.600  0.6288 -0.3181 -0.2053
   97MOL     C213634   6.611   2.902   1.705 -0.7889 -0.1088 -0.0225
   97MOL     O313635   6.540   2.890   1.826  0.0382  0.2453 -0.6079
   97MOL     H413636   6.441   2.966   1.605  1.2736  0.1670  1.6747
   97MOL     H513637   6.450   2.796   1.594 -2.6522  1.9264 -0.1468
   97MOL     H613638   6.648   3.004   1.693 -0.8219  0.1297  1.7972
   97MOL     H713639   6.696   2.835   1.699 -0.3278  0.1338  3.0127
   97MOL     H813640   6.560   2.880   1.501  0.4987 -5.2713 -0.1739
   97MOL     C913641   6.638   2.876   1.937  0.2933  0.7838  0.3890
   97MOL    C1013642   6.713   3.013   1.978  0.3683 -0.1024 -0.0256
   97MOL    O1113643   6.817   3.030   1.886  0.3164  0.2155 -0.6576
   97MOL    H1213644   6.580   2.859   2.028 -0.3454  2.2284  0.2646
   97MOL    H1313645   6.702   2.788   1.926 -1.0206 -0.1710  0.3208
   97MOL    H1413646   6.749   2.994   2.079 -1.6435 -1.9694  0.3828
   97MOL    H1513647   6.638   3.092   1.977  0.2240 -0.2024  1.4921
   97MOL    C1613648   6.910   3.134   1.922 -0.1489  0.1498  0.4043
   97MOL    C1713649   7.004   3.163   1.804  0.2518  0.0091 -0.4879
   97MOL    O1813650   7.120   3.089   1.822  0.0457 -0.1772 -0.2865
   97MOL    H1913651   6.866   3.230   1.950  2.3712  1.3963  0.1947
   97MOL    H2013652   6.968   3.102   2.009 -2.1046 -1.7647  1.0434
   97MOL    H2113653   7.030   3.268   1.793  0.9310 -0.0220  0.7622
   97MOL    H2213654   6.958   3.142   1.707  0.2608 -1.2422 -0.2299
   97MOL    C2313655   7.222   3.110   1.728 -0.4086  1.0092  0.5225
   97MOL    C2413656   7.324   3.005   1.766 -0.0335 -0.4634  0.2574
   97MOL    O2513657   7.404   3.049   1.869  0.4811 -0.0229  0.0869
   97MOL    H2613658   7.188   3.093   1.626  0.8196  1.6901 -0.0136
   97MOL    H2713659   7.270   3.207   1.740  3.1951 -0.9059  2.6809
   97MOL    H2813660   7.388   2.988   1.679  1.7053  0.0435  1.4133
   97MOL    H2913661   7.268   2.914   1.788 -0.4191  0.0619  1.4900
   97MOL    C3013662   7.517   2.976   1.914  0.4791 -0.3031  0.0975
   97MOL    C3113663   7.636   3.017   1.819 -0.1365 -0.2695 -0.1359
   97MOL    O3213664   7.761   2.991   1.868 -0.4038  0.2809  0.0952
   97MOL    H3313665   7.534   3.022   2.012  2.1886 -0.7813  0.0592
   97MOL    H3413666   7.493   2.871   1.933 -2.0909  0.7791  3.3648
   97MOL    H3513667   7.618   3.124   1.812  0.8621 -0.2507 -2.9902
   97MOL    H3613668   7.634   2.970   1.721 -0.3069  0.6087 -0.5524
   97MOL    C3713669   0.097   3.048   1.793 -0.1051 -0.1078  0.3061
   97MOL    C3813670   0.222   3.024   1.874 -0.0014  0.4630 -0.7269
   97MOL    O3913671   0.235   3.123   1.975 -0.3824 -0.1612 -0.3535
   97MOL    H4013672   0.104   3.004   1.694  0.1352 -1.7022  1.0226
   97MOL    H4113673   0.093   3.155   1.772 -0.3110  0.2558  2.0410
   97MOL    H4213674   0.312   3.038   1.813  0.2714 -0.1592 -0.4755
   97MOL    H4313675   0.227   2.919   1.904 -0.6899  0.5478 -0.2989
   97MOL    C4413676   0.345   3.099   2.060  0.5348 -0.1247 -0.1174
   97MOL    C4513677   0.340   3.188   2.185  0.1080  0.2849  0.6997
   97MOL    O4613678   0.351   3.324   2.150 -0.2111 -0.0353  0.2913
   97MOL    H4713679   0.355   2.993   2.085 -0.8796 -0.9594 -2.8149
   97MOL    H4813680   0.432   3.115   1.996  0.7297 -1.2553 -0.1507
   97MOL    H4913681   0.426   3.169   2.250  1.2782 -2.8070 -1.6520
   97MOL    H5013682   0.244   3.178   2.237 -1.1551  1.3960 -1.3665
   97MOL    C5113683   0.340   3.419   2.255  0.3439  0.4635  0.0525
   97MOL    C5213684   0.299   3.555   2.190 -0.1166 -0.4132  0.4295
   97MOL    O5313685   0.167   3.544   2.172  0.4437  0.2784  0.6143
   97MOL    H5413686   0.261   3.389   2.323  0.8549 -2.1906 -0.4618
   97MOL    H5513687   0.439   3.432   2.297  0.1987 -0.0434  0.5486
   97MOL    H5613688   0.342   3.570   2.091 -2.6241 -1.1433 -0.8078
   97MOL    H5713689   0.333   3.640   2.249  0.1399 -1.5040  1.8897
   97MOL    C5813690   0.103   3.637   2.082 -0.7453  0.0397  0.1047
   97MOL    C5913691   7.736   3.581   2.072 -0.3565  0.4742 -0.3275
   97MOL    O6013692   7.730   3.480   1.966  0.1490  0.6238 -0.4376
   97MOL    H6113693   0.116   3.743   2.105  1.1064  0.4932 -2.8667
   97MOL    H6213694   0.153   3.633   1.986 -1.7861  1.6241 -0.5328
   97MOL    H6313695   7.673   3.655   2.023 -1.4705 -0.8964 -0.9999
   97MOL    H6413696   7.683   3.554   2.163  0.4351 -0.6233 -0.1897
   97MOL    C6513697   0.013   3.360   2.005 -0.1454  0.1682 -0.2525
   97MOL    C6613698   7.690   3.282   2.102  0.1920  0.2168 -0.3312
   97MOL    O6713699   7.552   3.318   2.080 -0.4217  0.6230  0.4011
   97MOL    H6813700   0.014   3.288   1.923  2.1104 -0.2352  0.1108
   97MOL    H6913701   0.112   3.361   2.049  0.6331 -3.1068 -1.7758
   97MOL    H7013702   7.726   3.291   2.204  2.2590 -0.4224 -0.9955
   97MOL    H7113703   7.698   3.173   2.092 -0.6097 -0.0592  1.7728
   97MOL    C7213704   7.480   3.266   2.192 -0.2160 -0.4596 -0.6352
   97MOL    C7313705   7.335   3.242   2.159  0.4222 -0.4789  0.6754
   97MOL    O7413706   7.267   3.360   2.150  0.3009  0.6832  0.7177
   97MOL    H7513707   7.511   3.167   2.226 -0.1643  0.0201  0.7555
   97MOL    H7613708   7.478   3.342   2.270 -0.3788  0.4540 -1.5218
   97MOL    H7713709   7.283   3.164   2.214  0.5816 -0.9329  0.1799
   97MOL    H7813710   7.349   3.208   2.057 -0.8608 -0.3524  0.4499
   97MOL    C7913711   7.135   3.343   2.096  0.2199  0.0759  0.2510
   97MOL    C8013712   7.025   3.419   2.170 -0.1496 -0.2009 -0.2713
   97MOL    O8113713   6.990   3.535   2.096 -0.5956  0.5360 -0.0382
   97MOL    H8213714   7.136   3.374   1.992  0.2503  2.6395  0.9764
   97MOL    H8313715   7.104   3.239   2.098 -1.1615  0.4805  0.7426
   97MOL    H8413716   7.052   3.458   2.268 -1.9259  1.0717 -0.2595
   97MOL    H8513717   6.935   3.361   2.192  0.4404 -1.1146 -0.1982
   97MOL    C8613718   6.923   3.639   2.164  0.3420  0.3194 -0.1515
   97MOL    C8713719   6.888   3.754   2.070  0.1318  0.6065  0.2886
   97MOL    O8813720   7.003   3.846   2.059  0.5979 -0.4265 -0.2980
   97MOL    H8913721   6.838   3.585   2.208  0.3761 -0.9287 -1.5823
   97MOL    H9013722   6.978   3.670   2.253 -1.3615  1.1065  0.6727
   97MOL    H9113723   6.801   3.814   2.098  0.1364  0.2148  1.1462
   97MOL    H9213724   6.866   3.712   1.972  0.7254  0.3847  0.2462
   97MOL    C9313725   6.969   3.969   1.999  0.5340  0.0331 -0.1293
   97MOL    C9413726   7.086   4.067   2.006  0.3584  0.4112  0.2426
   97MOL    O9513727   7.080   4.144   2.122 -0.2612 -0.0359 -0.2699
   97MOL    H9613728   6.942   3.934   1.899  1.8019  0.7336 -0.7268
   97MOL    H9713729   6.882   4.020   2.039 -1.8152 -1.4483 -3.0594
   97MOL    H9813730   7.060   4.137   1.927  1.5862  0.9760  0.3332
   97MOL    H9913731   7.184   4.021   2.001  0.2205  0.2803 -1.8163
   97MOL   C10013732   7.142   4.076   2.235  0.4944  0.8394  0.0768
   97MOL   C10113733   7.104   4.157   2.356 -0.1323  0.2375  0.5410
   97MOL   O10213734   7.125   4.099   2.489 -0.6470  0.2940  0.1400
   97MOL   H10313735   7.119   3.970   2.244 -2.1684  1.4054  0.3277
   97MOL   H10413736   7.250   4.069   2.230  0.5798  0.0198  2.3494
   97MOL   H10513737   7.000   4.189   2.351 -0.2112 -0.0168  0.5415
   97MOL   H10613738   7.159   4.250   2.343  0.1107  0.2033  1.2920
   97MOL   C10713739   7.237   4.024   2.507  0.1849  0.3045  0.4669
   97MOL   C10813740   7.248   3.961   2.646 -0.3136  0.7770  0.1451
   97MOL   O10913741   7.283   4.058   2.737  0.1373  0.2006  0.0408
   97MOL   H11013742   7.251   3.949   2.429  3.9546  0.7785  0.5850
   97MOL   H11113743   7.323   4.088   2.486 -0.0884  0.7037  0.5528
   97MOL   H11213744   7.319   3.879   2.650 -0.5207  0.6740  2.0663
   97MOL   H11313745   7.152   3.921   2.677 -1.0106  1.3914 -1.1897
   97MOL   C11413746   7.309   3.997   2.867  0.5176  0.2409 -0.0120
   97MOL   C11513747   7.414   4.072   2.946 -0.5595 -0.4855 -0.5392
   97MOL   O11613748   7.527   4.099   2.864  0.0214  0.2410  0.5724
   97MOL   H11713749   7.214   3.987   2.919  0.6774 -0.7116  0.1037
   97MOL   H11813750   7.342   3.894   2.854 -0.0047  0.0490  0.1640
   97MOL   H11913751   7.441   4.014   3.035  1.9438 -0.0725 -0.9765
   97MOL   H12013752   7.366   4.162   2.986 -0.4337  0.7011 -3.0014
   97MOL   C12113753   7.615   4.195   2.919 -0.5769 -0.1007  0.1147
   97MOL   C12213754   7.743   4.178   2.844 -0.7117 -0.5509 -0.3587
   97MOL   O12313755   0.041   4.053   2.876 -0.4273  0.0179  0.5342
   97MOL   H12413756   7.566   4.289   2.893 -1.9048 -0.4865  1.1673
   97MOL   H12513757   7.622   4.184   3.027 -1.4413 -1.8648  0.0119
   97MOL   H12613758   0.033   4.263   2.876  0.3173 -1.9364  1.5058
   97MOL   H12713759   7.726   4.187   2.737 -0.0420 -0.6420 -0.4775
   97MOL   C12813760   0.170   4.045   2.815  0.4623 -0.2467  0.0295
   97MOL   C12913761   0.236   3.912   2.833 -0.3862  0.1570  0.2407
   97MOL   O13013762   0.153   3.793   2.823  0.1412  0.3660  0.4890
   97MOL   H13113763   0.148   4.048   2.708 -2.2130 -0.6047  0.5370
   97MOL   H13213764   0.229   4.135   2.831  0.7864 -0.4103 -0.2415
   97MOL   H13313765   0.276   3.908   2.934  0.5167 -1.2400 -0.1505
   97MOL   H13413766   0.319   3.912   2.763 -0.5265  0.0553  0.0756
   97MOL   C13513767   0.223   3.669   2.850 -0.1366  0.1958 -0.5931
   97MOL   C13613768   0.141   3.544   2.894 -0.1626 -0.2255 -0.9146
   97MOL   O13713769   0.068   3.588   3.000 -0.1722  0.3373 -0.1417
   97MOL   H13813770   0.287   3.644   2.765  0.3958 -0.6430  0.0479
   97MOL   H13913771   0.293   3.690   2.931  0.3481 -0.2677 -0.8933
   97MOL   H14013772   0.207   3.458   2.904 -1.0165 -0.9948 -1.7499
   97MOL   H14113773   0.080   3.518   2.808  1.6573 -1.5336 -1.8645
   97MOL   H14213774   0.016   3.661   2.970  1.5684  1.0450 -1.4708
   98MOL     C113775   3.532   6.165   3.098  0.3926  0.0941 -0.1846
   98MOL     C213776   3.647   6.082   3.155  0.3696  0.6506 -0.6927
   98MOL     O313777   3.643   6.091   3.302 -0.4036  0.6840 -0.1470
   98MOL     H413778   3.514   6.131   2.996  0.8724 -1.9521  0.3881
   98MOL     H513779   3.540   6.274   3.097  1.3337  0.0592  1.2830
   98MOL     H613780   3.739   6.127   3.117 -0.4303  0.7089 -2.5952
   98MOL     H713781   3.631   5.983   3.113  0.7344  0.4366 -0.3386
   98MOL     H813782   3.446   6.138   3.160  0.4077  0.2557 -0.0921
   98MOL     C913783   3.763   6.044   3.365 -0.3367  0.2011  0.0898
   98MOL    C1013784   3.759   6.060   3.513  0.4628 -0.5455  0.0615
   98MOL    O1113785   3.771   6.195   3.555  0.3094 -0.4504 -0.6101
   98MOL    H1213786   3.786   5.941   3.339  0.0500  0.4499 -0.5621
   98MOL    H1313787   3.836   6.112   3.320 -1.1863 -0.0513 -1.7339
   98MOL    H1413788   3.831   5.991   3.556  0.3996 -0.2917  0.5828
   98MOL    H1513789   3.661   6.017   3.536 -0.7391  1.5180 -0.9660
   98MOL    C1613790   3.750   6.212   3.695 -0.2006  0.4641  0.4898
   98MOL    C1713791   3.820   6.343   3.724  0.1918 -0.9516 -0.6715
   98MOL    O1813792   3.816   6.369   3.860 -0.2196 -0.0551  0.4094
   98MOL    H1913793   3.646   6.211   3.726 -0.3683  1.7687  0.0263
   98MOL    H2013794   3.800   6.128   3.742  1.5682  0.8582 -0.6325
   98MOL    H2113795   3.780   6.432   3.676  1.6686  0.9343  1.4961
   98MOL    H2213796   3.925   6.338   3.694 -0.0491 -2.0955 -1.3368
   98MOL    C2313797   3.853   6.503   3.901  0.1815  0.6773  0.2357
   98MOL    C2413798   4.002   6.529   3.877  0.0410  0.7388 -0.0243
   98MOL    O2513799   4.017   6.581   3.750 -0.5382  0.4671 -0.2536
   98MOL    H2613800   3.796   6.584   3.855 -0.5348  0.5257  0.8448
   98MOL    H2713801   3.840   6.514   4.009 -0.0497  1.2795  0.1487
   98MOL    H2813802   4.052   6.433   3.893 -0.7766  0.4073  0.5466
   98MOL    H2913803   4.047   6.590   3.956 -0.0926  0.3240  0.3725
   98MOL    C3013804   4.151   6.601   3.716  0.3079 -0.4175 -0.3138
   98MOL    C3113805   4.165   6.660   3.573 -0.4850 -0.0420  0.2285
   98MOL    O3213806   4.156   6.569   3.468  0.1075  0.0524 -0.2236
   98MOL    H3313807   4.184   6.673   3.791 -0.9652 -0.2700  0.1289
   98MOL    H3413808   4.209   6.511   3.732 -1.1785 -1.5150 -0.9497
   98MOL    H3513809   4.264   6.706   3.571  0.0364 -1.1284  0.6590
   98MOL    H3613810   4.094   6.742   3.574 -2.3719 -1.6573  0.9020
   98MOL    C3713811   4.028   6.522   3.437  0.4479 -0.4173 -0.2254
   98MOL    C3813812   4.023   6.474   3.296 -0.3783 -0.2772  0.2288
   98MOL    O3913813   4.002   6.583   3.214 -0.2738 -0.7432 -0.3656
   98MOL    H4013814   3.987   6.437   3.491 -0.6998  0.5717  0.4741
   98MOL    H4113815   3.956   6.603   3.446  1.7835  0.7940 -0.2981
   98MOL    H4213816   3.952   6.392   3.285  0.1842 -0.8001  0.4219
   98MOL    H4313817   4.122   6.434   3.273 -0.4751 -0.6956  0.5365
   98MOL    C4413818   4.008   6.552   3.078  0.1636 -0.0416 -0.4108
   98MOL    C4513819   4.073   6.660   2.994  0.2667  0.4792 -0.4504
   98MOL    O4613820   4.219   6.646   2.990 -0.5156 -0.6675 -0.4586
   98MOL    H4713821   4.052   6.456   3.050  0.5449 -0.4830  1.6612
   98MOL    H4813822   3.904   6.535   3.051  0.7201  0.2210 -2.8758
   98MOL    H4913823   4.045   6.757   3.035 -2.5462 -0.9173  1.0968
   98MOL    H5013824   4.038   6.655   2.891  0.1854 -0.8252 -0.3597
   98MOL    C5113825   4.270   6.722   2.885  0.3923 -0.6934  0.7157
   98MOL    C5213826   4.434   6.713   2.907  0.3402  0.0004  0.1393
   98MOL    O5313827   4.493   6.596   2.860 -0.5079  0.6337  0.3261
   98MOL    H5413828   4.235   6.697   2.785 -1.1719  0.3956  0.9653
   98MOL    H5513829   4.244   6.825   2.911 -2.3478 -1.7431  2.2946
   98MOL    H5613830   4.465   6.734   3.010 -1.2925 -1.4840  0.9552
   98MOL    H5713831   4.463   6.802   2.850  0.9784  0.8482  1.7576
   98MOL    C5813832   4.637   6.599   2.835 -0.2665 -0.1175  0.4092
   98MOL    C5913833   4.686   6.460   2.810  0.1629  0.5952  0.4050
   98MOL    O6013834   4.647   6.420   2.675 -0.7108  0.5068 -0.1933
   98MOL    H6113835   4.663   6.676   2.762 -0.6881  0.3236  0.7241
   98MOL    H6213836   4.691   6.639   2.920  0.7136 -0.3749 -0.0827
   98MOL    H6313837   4.629   6.396   2.877  2.9559 -1.1085  1.2510
   98MOL    H6413838   4.794   6.452   2.823  0.2960 -0.4104 -1.2345
   98MOL    C6513839   4.707   6.299   2.635  0.0517  0.2135  0.5590
   98MOL    C6613840   4.647   6.264   2.496 -0.0316 -0.7265  0.5698
   98MOL    O6713841   4.725   6.153   2.454 -0.2322  0.2130 -0.1296
   98MOL    H6813842   4.816   6.310   2.635  0.4086 -2.5122 -1.9114
   98MOL    H6913843   4.685   6.215   2.702  1.7536 -2.6396 -2.2705
   98MOL    H7013844   4.646   6.348   2.427  1.2572  0.7743  2.3111
   98MOL    H7113845   4.543   6.236   2.514 -0.5780 -0.0914 -1.5182
   98MOL    C7213846   4.660   6.081   2.354 -0.1326 -0.1379 -0.3773
   98MOL    C7313847   4.581   5.967   2.412  0.1646 -0.2930  0.3988
   98MOL    O7413848   4.467   6.012   2.485  0.0694 -0.1927  0.0992
   98MOL    H7513849   4.607   6.142   2.282 -0.4497  1.0287  0.8280
   98MOL    H7613850   4.740   6.030   2.299  0.7392 -0.2484  0.9518
   98MOL    H7713851   4.647   5.909   2.477 -0.1262 -2.1711 -0.9248
   98MOL    H7813852   4.549   5.896   2.335 -0.2384 -0.2875  0.5580
   98MOL    C7913853   4.421   5.931   2.586  0.2187  0.3376  0.7549
   98MOL    C8013854   4.270   5.947   2.613  0.2096 -0.3754  0.7363
   98MOL    O8113855   4.252   6.024   2.739  0.0423 -0.1687 -0.2108
   98MOL    H8213856   4.415   5.831   2.545  0.7906  0.3483  0.6329
   98MOL    H8313857   4.481   5.926   2.677  0.8574 -1.4979  0.2469
   98MOL    H8413858   4.230   5.848   2.633  0.8867 -1.1907 -1.7316
   98MOL    H8513859   4.209   5.987   2.533 -0.6514 -0.5084  1.3242
   98MOL    C8613860   4.300   6.159   2.716 -0.2462  0.3742  0.0418
   98MOL    C8713861   4.264   6.250   2.837 -0.4958  0.1977 -0.5434
   98MOL    O8813862   4.351   6.215   2.948  0.4256 -0.0324 -0.3339
   98MOL    H8913863   4.408   6.161   2.709 -0.3563  0.1911 -2.3376
   98MOL    H9013864   4.256   6.205   2.627 -0.5246 -0.2922 -0.1694
   98MOL    H9113865   4.161   6.230   2.866 -0.3344  1.3594  0.8173
   98MOL    H9213866   4.274   6.357   2.818 -0.4989  0.4268  0.7403
   98MOL    C9313867   4.337   6.298   3.061 -0.7358 -0.0380  0.2156
   98MOL    C9413868   4.462   6.278   3.145 -0.6750 -0.0501  0.3506
   98MOL    O9513869   4.444   6.348   3.265  0.0372  0.5357 -0.4251
   98MOL    H9613870   4.342   6.400   3.025  0.3828 -0.5146 -1.0439
   98MOL    H9713871   4.242   6.273   3.107 -0.6312 -1.0798 -0.1190
   98MOL    H9813872   4.551   6.307   3.090 -0.8231 -0.0244  0.1224
   98MOL    H9913873   4.485   6.176   3.175 -0.0785  0.2675  0.9752
   98MOL   C10013874   4.422   6.491   3.244  0.0126  0.0840 -0.3337
   98MOL   C10113875   4.443   6.559   3.382  0.9307  0.8275  0.9743
   98MOL   O10213876   4.581   6.536   3.404 -0.1472  0.0919 -0.1311
   98MOL   H10313877   4.493   6.531   3.172  0.7006 -1.5398 -0.5742
   98MOL   H10413878   4.320   6.518   3.216  0.2898  0.7774 -0.6742
   98MOL   H10513879   4.376   6.516   3.457 -0.5673 -0.3659 -1.0142
   98MOL   H10613880   4.431   6.668   3.375  1.1794  0.6441 -4.4358
   98MOL   C10713881   4.628   6.576   3.528 -0.0802  0.3928 -0.0306
   98MOL   C10813882   4.761   6.503   3.548 -0.1757  0.2891  0.5889
   98MOL   O10913883   4.743   6.362   3.565  0.6786 -0.2582  0.1437
   98MOL   H11013884   4.615   6.684   3.535 -0.7720  0.2979  0.1881
   98MOL   H11113885   4.555   6.533   3.596  1.9234 -0.6809  1.5082
   98MOL   H11213886   4.818   6.549   3.629  0.3897 -1.0519  0.9786
   98MOL   H11313887   4.827   6.519   3.464 -0.3439  1.7407  0.7304
   98MOL   C11413888   4.863   6.295   3.551  0.0839 -0.5685 -0.4476
   98MOL   C11513889   4.820   6.148   3.549  0.6562  0.0491 -0.6644
   98MOL   O11613890   4.761   6.120   3.422 -0.3247  0.3281 -0.9107
   98MOL   H11713891   4.909   6.326   3.457  0.1597 -0.4431 -0.3696
   98MOL   H11813892   4.940   6.323   3.623 -0.3171  0.7065 -0.5108
   98MOL   H11913893   4.747   6.143   3.629  0.9379 -0.5016 -0.4426
   98MOL   H12013894   4.907   6.087   3.571  0.2861 -0.7691 -1.4430
   98MOL   C12113895   4.684   5.999   3.416  0.2036  0.2732 -0.4612
   98MOL   C12213896   4.666   5.943   3.278  0.4200 -0.3292 -0.0106
   98MOL   O12313897   4.669   5.798   3.284  0.0728 -0.2751 -0.4302
   98MOL   H12413898   4.754   5.928   3.461 -2.1715 -2.2937 -0.6976
   98MOL   H12513899   4.593   6.003   3.476 -0.2587  0.6650 -1.1923
   98MOL   H12613900   4.748   5.976   3.214 -0.0080 -0.4563 -0.6208
   98MOL   H12713901   4.579   5.989   3.232  0.5821 -0.6866 -0.6750
   98MOL   C12813902   4.612   5.724   3.172 -0.4643 -0.3632  0.1120
   98MOL   C12913903   4.563   5.586   3.236 -0.2942 -0.0690  0.0366
   98MOL   O13013904   4.689   5.518   3.255 -0.1223  0.0637 -0.4163
   98MOL   H13113905   4.524   5.774   3.131 -0.3671 -1.8549 -1.9884
   98MOL   H13213906   4.690   5.725   3.096 -0.2125  2.8050  0.3464
   98MOL   H13313907   4.495   5.542   3.163  0.8041  1.9428 -2.2785
   98MOL   H13413908   4.516   5.611   3.331  0.2831 -1.5009  0.7151
   98MOL   C13513909   4.669   5.412   3.350 -0.5665  0.8153 -0.1141
   98MOL   C13613910   4.790   5.319   3.342 -0.5874 -0.4422  0.6972
   98MOL   O13713911   4.897   5.405   3.351 -0.5740 -0.3985 -0.3770
   98MOL   H13813912   4.652   5.460   3.447 -0.7052  0.8377 -0.1491
   98MOL   H13913913   4.580   5.352   3.331 -0.8713 -0.0278  3.4897
   98MOL   H14013914   4.794   5.277   3.241  0.9271 -0.0964  0.5969
   98MOL   H14113915   4.799   5.229   3.403  2.3270  0.0369  1.0508
   98MOL   H14213916   4.885   5.479   3.292  0.4786 -0.2721 -0.4464
   99MOL     C113917   5.580   5.363   1.193 -0.1870 -0.1913  0.0650
   99MOL     C213918   5.633   5.475   1.283 -0.2241 -0.4429 -0.6671
   99MOL     O313919   5.552   5.588   1.268 -0.7464 -0.1643 -0.4804
   99MOL     H413920   5.471   5.356   1.204 -0.1338  2.0903  2.8964
   99MOL     H513921   5.630   5.268   1.205 -1.4680 -0.7717  1.0528
   99MOL     H613922   5.731   5.510   1.251 -0.0692  2.4034  2.6166
   99MOL     H713923   5.642   5.441   1.386  1.0969 -2.9634 -1.5630
   99MOL     H813924   5.588   5.399   1.091 -0.7492 -0.6134 -0.1266
   99MOL     C913925   5.563   5.694   1.372  0.3029  0.1957  0.0499
   99MOL    C1013926   5.516   5.822   1.303 -0.2013 -0.6018  0.2693
   99MOL    O1113927   5.387   5.850   1.337  0.5501 -0.2256 -0.1489
   99MOL    H1213928   5.504   5.683   1.463 -0.7185  0.9566 -0.5041
   99MOL    H1313929   5.667   5.708   1.399 -0.1752  1.1770  1.3890
   99MOL    H1413930   5.535   5.813   1.196  1.2348  0.4307  0.4182
   99MOL    H1513931   5.576   5.908   1.334  0.2110 -0.3766 -1.0757
   99MOL    C1613932   5.331   5.974   1.290  0.0831 -0.0277 -0.7997
   99MOL    C1713933   5.178   5.966   1.287  0.1458  0.0153 -0.0638
   99MOL    O1813934   5.111   5.988   1.415 -0.0005  0.0716  0.4603
   99MOL    H1913935   5.369   6.060   1.346  0.5878  0.6361 -2.1595
   99MOL    H2013936   5.363   6.002   1.190  2.1463  0.1844 -0.0963
   99MOL    H2113937   5.150   5.866   1.254 -1.9527  0.3790  0.4965
   99MOL    H2213938   5.137   6.044   1.223 -1.4173 -0.1138  0.7585
   99MOL    C2313939   4.971   5.986   1.414  0.0683  0.1772  0.8647
   99MOL    C2413940   4.907   6.120   1.376 -0.1632  0.0132 -0.0972
   99MOL    O2513941   4.894   6.133   1.235 -0.1913  0.2373 -0.0766
   99MOL    H2613942   4.926   5.910   1.350  1.4301  1.6453 -1.8942
   99MOL    H2713943   4.926   5.950   1.507  3.0439 -1.0518  1.8881
   99MOL    H2813944   4.961   6.204   1.419 -0.2330  0.1463 -0.2692
   99MOL    H2913945   4.808   6.113   1.423 -1.4751  0.7969 -2.6732
   99MOL    C3013946   4.810   6.233   1.195  0.4487  0.4571 -0.3057
   99MOL    C3113947   4.816   6.242   1.040  0.0051 -0.2042 -1.0488
   99MOL    O3213948   4.706   6.192   0.969  0.0531 -0.2607 -0.6796
   99MOL    H3313949   4.710   6.219   1.235  1.9942 -1.6000  3.0059
   99MOL    H3413950   4.867   6.317   1.235 -2.3281  2.5186 -0.5611
   99MOL    H3513951   4.915   6.209   1.008  0.4145  0.9013 -0.9634
   99MOL    H3613952   4.821   6.348   1.014 -0.2637  0.2094  0.5469
   99MOL    C3713953   4.731   6.193   0.830 -0.3510 -0.6564  0.1323
   99MOL    C3813954   4.613   6.141   0.757  0.0521  0.2318  0.6450
   99MOL    O3913955   4.507   6.228   0.782  0.3244  0.6819 -0.6736
   99MOL    H4013956   4.746   6.293   0.790  1.8569 -0.9341  0.2180
   99MOL    H4113957   4.813   6.127   0.801  0.3206 -0.3523  1.3190
   99MOL    H4213958   4.593   6.043   0.800  0.0981 -0.2261 -0.3690
   99MOL    H4313959   4.627   6.152   0.649 -0.2658  1.9270  0.7652
   99MOL    C4413960   4.368   6.188   0.776 -0.2029 -0.0721  0.3060
   99MOL    C4513961   4.276   6.295   0.802  0.0866  0.2327  0.0738
   99MOL    O4613962   4.257   6.396   0.710 -0.1096  0.6191  0.1701
   99MOL    H4713963   4.368   6.150   0.674  1.3069  0.6123  0.0398
   99MOL    H4813964   4.348   6.096   0.831 -0.3863 -0.1198  0.1621
   99MOL    H4913965   4.286   6.359   0.890 -2.7136 -1.4273  1.6863
   99MOL    H5013966   4.178   6.250   0.816  0.6372 -0.6190  1.3088
   99MOL    C5113967   4.375   6.463   0.668  0.4314  0.0241 -0.8253
   99MOL    C5213968   4.336   6.589   0.598  0.6295  0.4229  0.0024
   99MOL    O5313969   4.335   6.585   0.457 -0.4521 -0.3904 -0.0139
   99MOL    H5413970   4.431   6.481   0.760  0.4240  2.1566 -1.2231
   99MOL    H5513971   4.435   6.400   0.603  0.8929 -0.9121  0.4876
   99MOL    H5613972   4.422   6.655   0.607  0.7736  0.1656  0.5570
   99MOL    H5713973   4.252   6.637   0.648  3.0208  2.4806  2.1951
   99MOL    C5813974   4.215   6.535   0.393 -0.3064  0.5367 -0.5750
   99MOL    C5913975   4.219   6.599   0.256  0.2610  0.3280 -0.0629
   99MOL    O6013976   4.087   6.602   0.203  0.3295  0.2373 -0.0992
   99MOL    H6113977   4.210   6.427   0.396  0.7952  0.5024  2.2813
   99MOL    H6213978   4.125   6.565   0.447 -1.5058  1.4682 -3.0263
   99MOL    H6313979   4.296   6.556   0.192  0.7376 -1.6790  1.7808
   99MOL    H6413980   4.242   6.705   0.259 -1.9682  0.8402 -0.2682
   99MOL    C6513981   4.075   6.658   0.075  0.8291  0.5764  0.4713
   99MOL    C6613982   3.940   6.727   0.053 -0.2073 -0.1966  1.3883
   99MOL    O6713983   3.844   6.635   7.752  0.0080 -0.2752  0.4206
   99MOL    H6813984   4.152   6.735   0.076  3.6200 -2.1084  0.2544
   99MOL    H6913985   4.098   6.591   7.763 -1.1272 -1.4901  1.5057
   99MOL    H7013986   3.954   6.802   7.747  0.2575  0.0625  1.7177
   99MOL    H7113987   3.901   6.771   0.145  0.2503  0.1932  1.3997
   99MOL    C7213988   3.817   6.513   0.049  0.4834  0.2347 -0.3479
   99MOL    C7313989   3.759   6.534   0.188 -0.6074 -0.4885 -0.1582
   99MOL    O7413990   3.637   6.605   0.171 -0.2331 -0.5082  0.0138
   99MOL    H7513991   3.746   6.458   7.759  1.7458 -0.8044 -0.9119
   99MOL    H7613992   3.908   6.453   0.047  0.0213 -0.4919  0.1900
   99MOL    H7713993   3.827   6.582   0.258 -2.9201  2.1502  0.3750
   99MOL    H7813994   3.728   6.439   0.232 -0.6805  0.0314  0.9234
   99MOL    C7913995   3.557   6.606   0.291  0.4543 -0.3947 -0.4401
   99MOL    C8013996   3.448   6.710   0.280  0.4782 -0.2556 -0.3165
   99MOL    O8113997   3.506   6.840   0.297 -0.2014 -0.1256  0.5083
   99MOL    H8213998   3.512   6.507   0.293 -0.9986  0.2503 -0.5123
   99MOL    H8313999   3.616   6.634   0.378  1.8387 -1.1618 -1.1082
   99MOL    H8414000   3.376   6.689   0.359  0.0858 -2.6221 -1.2471
   99MOL    H8514001   3.395   6.683   0.188 -0.9802 -1.7890  0.9378
   99MOL    C8614002   3.537   6.903   0.175  0.7240  0.5351 -0.1358
   99MOL    C8714003   3.640   7.022   0.204  0.2216 -0.5745  0.6404
   99MOL    O8814004   3.773   6.980   0.229  0.1740  0.0165  0.4509
   99MOL    H8914005   3.593   6.841   0.105 -0.6577  0.1962 -0.9376
   99MOL    H9014006   3.451   6.947   0.126  0.0109 -1.3909 -0.6611
   99MOL    H9114007   3.602   7.073   0.292 -1.2613 -1.1552  0.3577
   99MOL    H9214008   3.623   7.091   0.121 -0.8660 -1.4215  0.1288
   99MOL    C9314009   3.855   7.085   0.279 -0.0152  0.2212  1.0300
   99MOL    C9414010   4.007   7.044   0.258 -0.0864  0.4099  0.7400
   99MOL    O9514011   4.046   7.057   0.115  0.3359 -0.1204 -0.8155
   99MOL    H9614012   3.831   7.183   0.237  1.8062  0.5768  0.7657
   99MOL    H9714013   3.835   7.088   0.387 -0.2500 -0.0425  0.9945
   99MOL    H9814014   4.014   6.936   0.272 -3.7189  0.2010  1.4159
   99MOL    H9914015   4.073   7.103   0.322 -1.8443  1.6957  1.3880
   99MOL   C10014016   4.078   7.192   0.088 -0.0399  0.0440 -0.3678
   99MOL   C10114017   4.119   7.213   7.707  0.2890  0.0552 -1.0087
   99MOL   O10214018   4.001   7.213   7.626  0.0961 -0.1853  0.3143
   99MOL   H10314019   4.010   7.259   0.141 -0.8326 -0.6282 -0.5196
   99MOL   H10414020   4.172   7.212   0.138 -0.8242  0.9107  0.8101
   99MOL   H10514021   4.187   7.142   7.661  1.0051 -0.7536  1.2026
   99MOL   H10614022   4.170   7.307   7.692  0.6358  0.0841  0.2301
   99MOL   C10714023   3.970   7.088   7.563 -0.1182  0.2613 -0.0890
   99MOL   C10814024   3.853   7.107   7.464 -0.5569 -0.8872  0.7836
   99MOL   O10914025   3.904   7.138   7.339 -0.1857 -0.2824 -0.3475
   99MOL   H11014026   4.058   7.055   7.508 -0.0690  0.0437  0.1159
   99MOL   H11114027   3.959   7.019   7.647  1.1218 -0.0136 -0.1386
   99MOL   H11214028   3.787   7.183   7.506  0.6888  0.5437  0.2307
   99MOL   H11314029   3.802   7.012   7.450 -0.6490 -0.8464  0.8462
   99MOL   C11414030   3.806   7.165   7.238 -0.1049  0.0639  0.1967
   99MOL   C11514031   3.863   7.236   7.114  0.0817  0.2524 -0.3954
   99MOL   O11614032   3.938   7.140   7.043  0.1642  0.3815 -0.7753
   99MOL   H11714033   3.740   7.080   7.216  0.4934 -1.2370  3.1476
   99MOL   H11814034   3.743   7.238   7.289  2.3539  2.2791  0.1482
   99MOL   H11914035   3.923   7.324   7.140  1.3870 -0.6172 -0.3899
   99MOL   H12014036   3.776   7.264   7.056 -0.4209  2.9414  1.5398
   99MOL   C12114037   3.973   7.168   6.907 -0.5138  0.2027 -0.3880
   99MOL   C12214038   4.086   7.073   6.863 -0.5025  0.1037  0.1229
   99MOL   O12314039   4.209   7.147   6.867 -0.1009  0.0533  0.2171
   99MOL   H12414040   3.885   7.147   6.846  0.3975  0.4007 -1.7773
   99MOL   H12514041   4.008   7.271   6.901  0.9445 -0.2286  0.4403
   99MOL   H12614042   4.069   7.040   6.761  1.0900  0.1293 -0.1670
   99MOL   H12714043   4.091   6.979   6.918  0.5188  0.2716  0.3258
   99MOL   C12814044   4.286   7.151   6.984 -0.3190  0.7457  0.3762
   99MOL   C12914045   4.418   7.217   6.946  0.3482 -0.5276 -0.2757
   99MOL   O13014046   4.513   7.121   6.902  0.1404  0.0150 -0.3171
   99MOL   H13114047   4.228   7.213   7.053 -0.9650  1.2733 -0.6093
   99MOL   H13214048   4.313   7.058   7.032  2.2911  0.3170 -1.7810
   99MOL   H13314049   4.462   7.261   7.035  1.3069 -1.7760 -0.1190
   99MOL   H13414050   4.404   7.302   6.879 -2.2145 -0.7150 -0.0545
   99MOL   C13514051   4.638   7.179   6.867  0.3183  0.7223  0.3773
   99MOL   C13614052   4.730   7.068   6.806 -0.1696 -0.1706  0.1813
   99MOL   O13714053   4.804   7.005   6.906 -0.0795 -0.4389  0.0178
   99MOL   H13814054   4.625   7.268   6.806 -0.6123  0.5790  0.3522
   99MOL   H13914055   4.695   7.214   6.953  1.6879 -1.7283  0.5206
   99MOL   H14014056   4.799   7.110   6.733  0.4644 -0.1257  0.8039
   99MOL   H14114057   4.669   6.994   6.753  0.9009 -0.8002 -0.1774
   99MOL   H14214058   4.753   6.965   6.975  0.9799 -0.0615  1.0523
  100MOL     C114059   0.951   2.985   5.765 -0.1844 -0.6143  0.2659
  100MOL     C214060   1.083   2.956   5.692 -0.5756  0.5283  0.0732
  100MOL     O314061   1.161   3.070   5.734  0.3284  0.2213 -0.3789
  100MOL     H414062   0.961   2.985   5.874 -0.8956  2.2664  0.3636
  100MOL     H514063   0.882   2.909   5.728 -0.6201 -0.8446  1.5121
  100MOL     H614064   1.076   2.943   5.584  0.4861 -0.9004  0.1679
  100MOL     H714065   1.110   2.861   5.738 -1.7974  1.6278  3.2158
  100MOL     H814066   0.900   3.079   5.743  1.4185  0.2226  0.1120
  100MOL     C914067   1.179   3.173   5.631 -1.0853 -0.4879 -0.5366
  100MOL    C1014068   1.287   3.138   5.525  0.0960 -0.1107 -0.0872
  100MOL    O1114069   1.214   3.073   5.418  0.1452  0.4501 -0.8992
  100MOL    H1214070   1.083   3.200   5.587 -0.7710  1.2922 -0.1869
  100MOL    H1314071   1.214   3.259   5.688 -0.1940 -0.1473 -1.5677
  100MOL    H1414072   1.369   3.069   5.542  0.6913  0.9649  1.4460
  100MOL    H1514073   1.333   3.230   5.490 -0.6969  0.4781  0.3865
  100MOL    C1614074   1.303   3.059   5.301 -0.0557 -0.0546 -0.6625
  100MOL    C1714075   1.226   2.955   5.206 -0.4607  1.0070 -0.7099
  100MOL    O1814076   1.239   2.816   5.237 -0.2746  0.2053 -0.4826
  100MOL    H1914077   1.331   3.156   5.259 -0.7757  0.1613 -0.6421
  100MOL    H2014078   1.402   3.018   5.321  0.4242  2.3056  2.0902
  100MOL    H2114079   1.252   2.970   5.102  0.1309  1.7811 -0.4589
  100MOL    H2214080   1.120   2.981   5.209 -0.4770  0.8591  2.0834
  100MOL    C2314081   1.357   2.756   5.199 -0.8379 -0.1907  0.3560
  100MOL    C2414082   1.343   2.671   5.064 -0.6724  0.4028  0.3785
  100MOL    O2514083   1.308   2.760   4.961  0.0177  0.5100 -0.3685
  100MOL    H2614084   1.440   2.827   5.201 -0.8021 -0.1784 -0.7504
  100MOL    H2714085   1.381   2.676   5.268 -0.2856 -2.5250 -2.4175
  100MOL    H2814086   1.260   2.606   5.091 -1.0381  0.5982 -0.2815
  100MOL    H2914087   1.438   2.618   5.055 -0.3568  1.3006 -2.0959
  100MOL    C3014088   1.287   2.688   4.846  0.0888 -0.1434  0.2339
  100MOL    C3114089   1.200   2.768   4.753 -0.5792 -0.3267  0.8257
  100MOL    O3214090   1.066   2.713   4.758  0.3232 -0.1734  0.2395
  100MOL    H3314091   1.376   2.662   4.789  1.8243  2.5912  1.6018
  100MOL    H3414092   1.249   2.586   4.858  0.5105 -0.4319 -0.8617
  100MOL    H3514093   1.234   2.779   4.650 -1.9171  0.0235  0.4107
  100MOL    H3614094   1.191   2.874   4.777 -2.0391 -0.2034 -0.1517
  100MOL    C3714095   0.997   2.761   4.645  0.1642  0.5756 -0.1497
  100MOL    C3814096   0.850   2.705   4.645  0.6008 -0.0582  0.2863
  100MOL    O3914097   0.786   2.726   4.772  0.4799 -0.1799 -0.8598
  100MOL    H4014098   0.988   2.870   4.653  0.3262  0.6281 -0.6595
  100MOL    H4114099   1.031   2.742   4.543 -0.4010 -1.6731  0.0575
  100MOL    H4214100   0.857   2.599   4.621  0.5018 -0.0735  0.3237
  100MOL    H4314101   0.793   2.757   4.568  0.5454 -1.6795 -0.7925
  100MOL    C4414102   0.649   2.701   4.767  0.1752  0.1220  0.1229
  100MOL    C4514103   0.624   2.550   4.765  0.4786  0.3659 -0.4469
  100MOL    O4614104   0.650   2.500   4.637  0.1658  0.1586  0.1649
  100MOL    H4714105   0.598   2.747   4.851 -2.6260  0.6817 -1.8137
  100MOL    H4814106   0.598   2.741   4.679 -1.8548 -0.2021  1.1397
  100MOL    H4914107   0.525   2.521   4.799  0.9169  1.8233  2.1719
  100MOL    H5014108   0.700   2.511   4.832 -0.4310 -0.2644  0.2358
  100MOL    C5114109   0.629   2.360   4.626 -0.4354  0.8198  0.2084
  100MOL    C5214110   0.487   2.322   4.586 -0.0721 -0.2288  0.2960
  100MOL    O5314111   0.474   2.180   4.570 -0.1477 -0.7466 -0.5648
  100MOL    H5414112   0.688   2.334   4.539 -0.8263  1.3454 -0.2185
  100MOL    H5514113   0.665   2.302   4.711 -0.3576  0.5606 -0.0022
  100MOL    H5614114   0.475   2.371   4.489  3.6921  1.5147  0.5980
  100MOL    H5714115   0.421   2.362   4.663  1.7205  0.5570  1.4562
  100MOL    C5814116   0.453   2.104   4.685 -0.5992 -0.4794 -0.1055
  100MOL    C5914117   0.458   1.959   4.647 -0.0245 -0.3828 -0.3142
  100MOL    O6014118   0.360   1.918   4.556  0.1079  0.0011 -0.1783
  100MOL    H6114119   0.532   2.138   4.753 -1.5787 -0.3705  1.0077
  100MOL    H6214120   0.360   2.124   4.739  0.1464  0.3732  0.8805
  100MOL    H6314121   0.452   1.902   4.740 -2.6282  0.6800  0.2282
  100MOL    H6414122   0.560   1.942   4.612 -0.8977 -1.8728 -2.2079
  100MOL    C6514123   0.375   1.787   4.500 -0.3059  0.3933  0.1899
  100MOL    C6614124   0.269   1.751   4.398  0.2606 -0.2189 -0.4177
  100MOL    O6714125   0.155   1.701   4.462  0.6842  0.2708 -0.3104
  100MOL    H6814126   0.471   1.788   4.449 -1.0041 -1.8701 -1.2564
  100MOL    H6914127   0.385   1.705   4.572  1.4966 -0.5572 -1.1064
  100MOL    H7014128   0.307   1.669   4.338  0.5997 -1.1430  1.0219
  100MOL    H7114129   0.248   1.837   4.335  2.2448  1.5765  1.2927
  100MOL    C7214130   0.078   1.796   4.533  0.2967 -0.1254  0.1929
  100MOL    C7314131   7.720   1.743   4.598  0.1662  0.1954 -0.8825
  100MOL    O7414132   7.603   1.772   4.514 -0.2654 -0.1150 -0.5406
  100MOL    H7514133   0.139   1.850   4.605 -0.0032  1.4758 -0.7411
  100MOL    H7614134   0.051   1.871   4.459 -0.2206  1.4444  1.9121
  100MOL    H7714135   7.712   1.820   4.675 -0.6806  0.9414 -1.7086
  100MOL    H7814136   7.723   1.640   4.633  1.0025  0.8557  1.0439
  100MOL    C7914137   7.489   1.722   4.573 -0.1769  0.5488 -0.2181
  100MOL    C8014138   7.362   1.762   4.499  0.4293  1.0713  0.8705
  100MOL    O8114139   7.329   1.900   4.533  0.3885 -0.5583  0.1770
  100MOL    H8214140   7.500   1.615   4.592  0.7737  0.7786  0.5920
  100MOL    H8314141   7.479   1.760   4.674  0.3821  0.3045 -0.0726
  100MOL    H8414142   7.284   1.693   4.530 -0.0585  0.0128 -2.4699
  100MOL    H8514143   7.375   1.749   4.391 -1.9465 -0.2880  0.6980
  100MOL    C8614144   7.202   1.947   4.481  0.6495 -0.0508  0.0051
  100MOL    C8714145   7.184   2.100   4.484  0.1770 -0.0160 -0.5481
  100MOL    O8814146   7.137   2.160   4.602 -0.3345 -0.2986 -0.5472
  100MOL    H8914147   7.193   1.900   4.383  0.5351 -0.1138  0.0460
  100MOL    H9014148   7.116   1.901   4.529  1.2816 -0.0903  1.1158
  100MOL    H9114149   7.114   2.133   4.408 -1.3785 -2.9112 -0.4148
  100MOL    H9214150   7.274   2.154   4.456  0.2742 -0.3321 -0.8446
  100MOL    C9314151   7.212   2.276   4.641  0.2081  0.1075 -0.9985
  100MOL    C9414152   7.149   2.345   4.775  0.0186  0.3855 -0.1564
  100MOL    O9514153   7.023   2.397   4.766  0.3147 -0.5672 -0.4525
  100MOL    H9614154   7.309   2.247   4.681 -0.6803  2.1869  2.9072
  100MOL    H9714155   7.228   2.349   4.562 -0.2887  1.4611  0.1256
  100MOL    H9814156   7.214   2.431   4.791  0.1150  0.1995  0.4737
  100MOL    H9914157   7.161   2.278   4.860 -1.1672  0.6657  0.2370
  100MOL   C10014158   6.919   2.300   4.779  0.0675  0.9810  0.1686
  100MOL   C10114159   6.782   2.368   4.766 -0.0397  0.5857  0.2341
  100MOL   O10214160   6.731   2.357   4.638  0.1787  0.0288 -0.2775
  100MOL   H10314161   6.924   2.222   4.703 -0.2593  1.4086 -0.2951
  100MOL   H10414162   6.929   2.249   4.875  1.0547  1.1765  0.1805
  100MOL   H10514163   6.787   2.471   4.803 -0.7266 -0.3612  3.0478
  100MOL   H10614164   6.720   2.319   4.841 -0.3959 -0.0789 -0.4874
  100MOL   C10714165   6.606   2.423   4.615  0.1221 -0.0963  0.4313
  100MOL   C10814166   6.559   2.401   4.469  0.2327  0.2279  0.4598
  100MOL   O10914167   6.494   2.271   4.462 -0.2337 -0.5824  0.3494
  100MOL   H11014168   6.531   2.391   4.687  0.1128  1.3963  1.1055
  100MOL   H11114169   6.612   2.528   4.645  1.2677  0.4573 -1.6510
  100MOL   H11214170   6.653   2.407   4.413 -0.3766 -0.6944 -0.6977
  100MOL   H11314171   6.498   2.483   4.431 -0.2386 -0.3258  0.0049
  100MOL   C11414172   6.426   2.252   4.340 -0.4555 -0.6200 -0.2994
  100MOL   C11514173   6.345   2.132   4.342  0.1483 -0.1737 -0.1279
  100MOL   O11614174   6.210   2.139   4.399  0.2071 -0.5509  0.1931
  100MOL   H11714175   6.359   2.335   4.319  0.2695  0.2302  0.7079
  100MOL   H11814176   6.499   2.253   4.259 -1.0701  1.4432 -0.8588
  100MOL   H11914177   6.402   2.046   4.376 -0.2172 -0.2464  0.3018
  100MOL   H12014178   6.339   2.107   4.236  2.3323 -0.9799 -0.0747
  100MOL   C12114179   6.143   2.015   4.381 -0.1013  1.1239  0.2790
  100MOL   C12214180   5.998   2.045   4.410 -0.3011  0.6914 -0.1889
  100MOL   O12314181   5.973   2.061   4.548  0.0967 -0.0574 -0.0612
  100MOL   H12414182   6.156   1.963   4.286 -2.2257  1.3698 -0.1770
  100MOL   H12514183   6.185   1.938   4.445 -1.3563  1.5882  1.6835
  100MOL   H12614184   5.940   1.962   4.371 -0.4202 -0.3478  2.1576
  100MOL   H12714185   5.973   2.140   4.363  3.1575  1.8953  0.2721
  100MOL   C12814186   5.838   2.096   4.566 -0.3215 -0.3733 -0.0838
  100MOL   C12914187   5.736   1.985   4.525  0.5973  0.0921  0.4173
  100MOL   O13014188   5.601   2.033   4.534  0.4158 -0.0303  0.6279
  100MOL   H13114189   5.829   2.118   4.672 -2.2252  1.3022 -0.5603
  100MOL   H13214190   5.814   2.194   4.524  2.0650  0.2809  0.0490
  100MOL   H13314191   5.754   1.897   4.588 -0.1513  0.9250  1.8136
  100MOL   H13414192   5.737   1.950   4.422 -0.7002 -0.5209  0.6047
  100MOL   C13514193   5.503   1.933   4.555 -0.3001  0.0357  0.3557
  100MOL   C13614194   5.500   1.815   4.445 -0.0059 -0.2701  0.2047
  100MOL   O13714195   5.592   1.713   4.475 -0.1513 -0.2386  0.1511
  100MOL   H13814196   5.520   1.885   4.652 -0.9941  0.1612  0.5427
  100MOL   H13914197   5.405   1.980   4.566 -0.3155 -0.0007  0.3778
  100MOL   H14014198   5.519   1.835   4.339 -0.8185  0.0988  0.1251
  100MOL   H14114199   5.403   1.763   4.446 -0.4823  0.6292  2.3308
  100MOL   H14214200   5.599   1.650   4.405  1.4122 -1.0846  1.0551
  101MOL     C114201   0.804   6.578   5.809  0.4538 -0.2577  0.3497
  101MOL     C214202   0.910   6.572   5.915  0.6340 -0.2528 -0.2239
  101MOL     O314203   0.847   6.510   6.027 -0.1145 -0.0400  0.4594
  101MOL     H414204   0.838   6.635   5.722 -0.2750 -0.5461 -0.1276
  101MOL     H514205   0.715   6.627   5.851  0.8230 -0.5508  1.4806
  101MOL     H614206   0.954   6.667   5.948  0.4052 -0.5244  0.8982
  101MOL     H714207   0.990   6.520   5.863  0.7099 -1.8191  1.3842
  101MOL     H814208   0.775   6.477   5.779  1.0325 -0.2013 -0.4009
  101MOL     C914209   0.932   6.485   6.141  0.0930 -0.8191  0.7760
  101MOL    C1014210   0.859   6.401   6.250 -0.5195 -0.2385 -0.1977
  101MOL    O1114211   0.720   6.439   6.264  0.0909 -0.0944 -0.1140
  101MOL    H1214212   1.027   6.436   6.119  1.0114 -0.7387  4.1827
  101MOL    H1314213   0.951   6.581   6.189 -1.4052  0.7949 -1.7287
  101MOL    H1414214   0.902   6.403   6.350  0.7571  0.1313 -0.7382
  101MOL    H1514215   0.872   6.301   6.207  0.6571 -0.2026  0.0557
  101MOL    C1614216   0.683   6.572   6.282  0.7688 -0.3260 -0.2506
  101MOL    C1714217   0.537   6.581   6.325 -0.6453 -0.4238  0.1331
  101MOL    O1814218   0.539   6.530   6.457 -0.6370 -0.1921  0.8194
  101MOL    H1914219   0.749   6.621   6.354  1.1509 -0.5443 -0.4494
  101MOL    H2014220   0.689   6.638   6.196 -0.3162 -2.1173 -1.7575
  101MOL    H2114221   0.463   6.528   6.265 -0.7165 -2.1773  1.7542
  101MOL    H2214222   0.505   6.685   6.332 -0.2971 -0.0523 -2.7762
  101MOL    C2314223   0.417   6.504   6.510  0.3663  0.3990 -0.4112
  101MOL    C2414224   0.333   6.639   6.522  0.4444  0.6688 -0.1090
  101MOL    O2514225   0.273   6.664   6.399 -0.1324  0.1940  0.2226
  101MOL    H2614226   0.356   6.441   6.445  1.4916  0.3853 -1.4844
  101MOL    H2714227   0.428   6.460   6.609  0.9683  0.0184 -0.6405
  101MOL    H2814228   0.389   6.716   6.574  3.6455 -0.6645 -1.4283
  101MOL    H2914229   0.245   6.610   6.578  0.7552 -2.2786 -1.0712
  101MOL    C3014230   0.185   6.771   6.397 -0.0266  1.2961  0.9638
  101MOL    C3114231   0.170   6.858   6.268 -0.0034 -0.4322 -0.3731
  101MOL    O3214232   0.066   6.804   6.196 -0.5775  0.2042  0.3714
  101MOL    H3314233   0.091   6.750   6.449  0.2160 -0.2490  0.8039
  101MOL    H3414234   0.237   6.844   6.458 -0.9500  2.5436  0.2975
  101MOL    H3514235   0.257   6.857   6.203 -0.0620 -0.0307 -0.4577
  101MOL    H3614236   0.144   6.959   6.299  1.4704  0.1489 -1.0134
  101MOL    C3714237   0.028   6.879   6.078 -0.4291 -0.3658  0.6751
  101MOL    C3814238   7.662   6.847   6.015  0.1482  0.0714 -0.1115
  101MOL    O3914239   7.551   6.901   6.089  0.2576 -0.1582  0.1983
  101MOL    H4014240   0.041   6.982   6.111 -2.7547  0.0495  0.3562
  101MOL    H4114241   0.110   6.860   6.008 -1.6757  0.8482 -1.1229
  101MOL    H4214242   7.659   6.741   5.991  2.6222  0.1307 -0.8403
  101MOL    H4314243   7.656   6.899   5.920  0.9494  0.0984 -0.1480
  101MOL    C4414244   7.424   6.875   6.039  0.6386 -0.4420 -0.1669
  101MOL    C4514245   7.311   6.942   6.124 -0.0848  0.7402 -0.0050
  101MOL    O4614246   7.227   6.838   6.180  0.1881  0.3807 -0.0757
  101MOL    H4714247   7.418   6.915   5.938  0.6223  1.1813  0.4576
  101MOL    H4814248   7.413   6.767   6.041  0.0928 -0.3801  2.2906
  101MOL    H4914249   7.245   7.011   6.069  0.0842 -0.8711 -2.3069
  101MOL    H5014250   7.346   7.002   6.208 -1.0168 -0.5980  1.3653
  101MOL    C5114251   7.103   6.875   6.232  0.1326 -0.0286  0.1658
  101MOL    C5214252   7.014   6.774   6.299 -0.4878  0.5135 -0.5263
  101MOL    O5314253   7.071   6.755   6.429 -0.4334  0.0346  0.4107
  101MOL    H5414254   7.132   6.964   6.288  1.8100 -0.5375  0.1367
  101MOL    H5514255   7.040   6.916   6.152 -1.3709 -0.7089  0.9788
  101MOL    H5614256   7.028   6.685   6.237  1.4031  0.4568 -0.0612
  101MOL    H5714257   6.909   6.800   6.307 -0.1765  1.1013  1.9693
  101MOL    C5814258   7.164   6.647   6.448  0.1091  0.4470 -0.1682
  101MOL    C5914259   7.197   6.656   6.601 -0.3818  0.4177  0.1711
  101MOL    O6014260   7.107   6.581   6.689  0.0323 -0.1822  0.1124
  101MOL    H6114261   7.117   6.550   6.434 -0.7042  0.6012  1.3476
  101MOL    H6214262   7.260   6.641   6.397  0.0007 -0.5582 -0.2586
  101MOL    H6314263   7.193   6.760   6.633  2.1605  0.5614  0.0801
  101MOL    H6414264   7.297   6.618   6.623 -0.0047  1.2370 -0.1186
  101MOL    C6514265   6.974   6.628   6.710 -0.0414  0.8594  0.3052
  101MOL    C6614266   6.910   6.551   6.826  0.3785  0.2447  0.5121
  101MOL    O6714267   6.857   6.423   6.790 -0.2954 -0.6393 -0.0436
  101MOL    H6814268   6.969   6.733   6.740  0.7329  0.9170  0.2542
  101MOL    H6914269   6.921   6.605   6.618 -1.5614  0.8723  1.1773
  101MOL    H7014270   6.822   6.599   6.868  0.4143  1.5915 -0.9056
  101MOL    H7114271   6.986   6.537   6.903  0.9275  0.7647  0.0744
  101MOL    C7214272   6.889   6.311   6.862 -0.4908  0.0340 -0.2948
  101MOL    C7314273   6.837   6.171   6.811 -0.8616  0.2749  0.0743
  101MOL    O7414274   6.907   6.058   6.851  0.0453 -0.0508  0.3113
  101MOL    H7514275   6.994   6.308   6.890 -0.2880 -0.7706 -1.1228
  101MOL    H7614276   6.855   6.331   6.963  0.9737 -0.3713  0.2880
  101MOL    H7714277   6.837   6.184   6.703 -1.0200  0.3422  0.0821
  101MOL    H7814278   6.730   6.155   6.824 -0.7576 -2.0297 -1.6213
  101MOL    C7914279   6.916   5.962   6.746 -0.0100 -0.0337  0.7906
  101MOL    C8014280   6.773   5.898   6.731 -0.7118 -0.6181 -0.2722
  101MOL    O8114281   6.797   5.773   6.675 -0.3852  0.1370  0.4729
  101MOL    H8214282   6.957   5.993   6.650  0.0529 -1.9136  0.2118
  101MOL    H8314283   6.979   5.887   6.794 -0.8417  0.0910  2.1151
  101MOL    H8414284   6.711   5.962   6.669  0.4518 -0.9237 -1.7830
  101MOL    H8514285   6.721   5.899   6.827  0.6666  2.1404  0.4912
  101MOL    C8614286   6.684   5.695   6.657 -0.1729  0.0751  0.5193
  101MOL    C8714287   6.723   5.546   6.667 -0.5567 -1.2037  0.0771
  101MOL    O8814288   6.769   5.524   6.800  0.5223 -0.2675 -0.4763
  101MOL    H8914289   6.602   5.723   6.723  0.5143  1.1245  0.9408
  101MOL    H9014290   6.655   5.727   6.557 -0.9130 -0.4389  0.5679
  101MOL    H9114291   6.802   5.523   6.595  0.7384  0.8140  0.8053
  101MOL    H9214292   6.645   5.476   6.638 -1.0643 -1.1113  1.2120
  101MOL    C9314293   6.870   5.422   6.794 -0.1229 -0.5928  0.7618
  101MOL    C9414294   6.915   5.365   6.931 -0.1626  0.2779  0.4027
  101MOL    O9514295   6.807   5.274   6.973 -0.2375 -0.3709 -0.2872
  101MOL    H9614296   6.834   5.341   6.732 -0.2176 -1.5947  2.1102
  101MOL    H9714297   6.953   5.474   6.745  1.9043 -2.6834  1.8611
  101MOL    H9814298   6.932   5.456   6.988  0.4547 -0.3008  1.1471
  101MOL    H9914299   7.009   5.310   6.925 -0.1614  0.3788 -0.6692
  101MOL   C10014300   6.856   5.184   7.072  0.0935 -0.6277  0.5612
  101MOL   C10114301   6.743   5.110   7.140 -0.3028  0.9861 -0.4494
  101MOL   O10214302   6.798   5.002   7.218 -0.0442  0.5023  0.0668
  101MOL   H10314303   6.933   5.121   7.030 -1.4092 -0.8842 -1.8997
  101MOL   H10414304   6.913   5.240   7.146 -0.5984  0.2654  0.4325
  101MOL   H10514305   6.679   5.066   7.064 -0.5354  1.6165 -0.6252
  101MOL   H10614306   6.688   5.189   7.191  1.5426  1.0136  1.5788
  101MOL   C10714307   6.716   4.919   7.299 -0.9820 -0.0804  1.0606
  101MOL   C10814308   6.786   4.793   7.346  0.0602  0.2894 -0.3333
  101MOL   O10914309   6.905   4.831   7.412 -0.3263  0.2010  0.0587
  101MOL   H11014310   6.686   4.980   7.385  0.4418  1.9061  0.1869
  101MOL   H11114311   6.629   4.887   7.242  1.1730 -0.8653 -1.8839
  101MOL   H11214312   6.814   4.737   7.256  1.3914 -0.0953  0.3132
  101MOL   H11314313   6.725   4.722   7.402  0.8526  0.4957  0.8044
  101MOL   C11414314   6.987   4.712   7.428 -0.0225  0.2513 -0.4278
  101MOL   C11514315   7.082   4.721   7.553  0.3228 -0.3106  0.1033
  101MOL   O11614316   7.022   4.674   7.672  0.4031 -0.3766 -0.0889
  101MOL   H11714317   6.932   4.619   7.439  3.8032 -2.3000 -1.8131
  101MOL   H11814318   7.043   4.687   7.338 -0.5290 -0.1562 -0.6271
  101MOL   H11914319   7.135   4.815   7.567  0.4213 -0.6453  2.0355
  101MOL   H12014320   7.161   4.651   7.527  1.8981  1.5047 -0.1186
  101MOL   C12114321   7.108   4.664   0.019  0.0949 -0.3304 -0.6192
  101MOL   C12214322   7.224   4.562   0.011 -0.1433 -0.1689 -0.3070
  101MOL   O12314323   7.318   4.608   0.103 -0.7989  0.9650  0.3211
  101MOL   H12414324   7.151   4.763   0.029 -1.2617  0.3898 -1.6303
  101MOL   H12514325   7.035   4.652   0.099  0.1539  1.1792 -0.3360
  101MOL   H12614326   7.275   4.553   7.686  0.1797  0.1321 -0.1642
  101MOL   H12714327   7.182   4.463   0.029 -0.3223 -0.2756 -1.2585
  101MOL   C12814328   7.396   4.503   0.159 -0.3879 -0.3508 -0.0943
  101MOL   C12914329   7.479   4.567   0.276  0.2802  0.6638 -0.6731
  101MOL   O13014330   7.584   4.646   0.216 -0.3195  0.2178 -0.0353
  101MOL   H13114331   7.333   4.420   0.190  0.4147 -0.8946  0.1002
  101MOL   H13214332   7.462   4.460   0.084  0.1356 -0.5271  0.4651
  101MOL   H13314333   7.540   4.493   0.326 -1.5725 -1.0054 -0.7969
  101MOL   H13414334   7.420   4.616   0.354  0.2361  0.4703 -0.5862
  101MOL   C13514335   7.603   4.760   0.297 -0.1877 -0.1269 -0.1621
  101MOL   C13614336   7.708   4.843   0.232  0.1366 -0.4918 -0.2427
  101MOL   O13714337   0.044   4.752   0.204  0.4405  0.5222  0.5874
  101MOL   H13814338   7.512   4.814   0.320  1.1295  2.0250  0.1336
  101MOL   H13914339   7.645   4.721   0.390 -3.0726  0.1745  1.3270
  101MOL   H14014340   7.744   4.921   0.299 -0.1628 -0.1100 -0.5233
  101MOL   H14114341   7.657   4.884   0.144 -0.3456  0.4730  0.4735
  101MOL   H14214342   7.769   4.670   0.200  1.3114 -0.0750  1.9886
  102MOL     C114343   6.051   4.264   1.859  0.0232  0.7355  0.1785
  102MOL     C214344   6.028   4.178   1.730 -0.3632  0.0454 -0.0782
  102MOL     O314345   6.135   4.082   1.723  0.5070  0.2066 -0.0612
  102MOL     H414346   6.060   4.217   1.958 -0.3054  1.3196  0.4840
  102MOL     H514347   5.970   4.334   1.878 -0.9190  0.1388 -1.6058
  102MOL     H614348   6.032   4.233   1.636  0.3785 -0.4440 -0.3360
  102MOL     H714349   5.932   4.126   1.727  0.9066 -2.3646 -1.1061
  102MOL     H814350   6.150   4.309   1.845  1.1802 -1.7377  0.0584
  102MOL     C914351   6.125   4.008   1.601 -0.5378  0.0122  0.5803
  102MOL    C1014352   6.238   3.909   1.588 -0.1218 -0.2832  0.5736
  102MOL    O1114353   6.224   3.795   1.672  0.5448 -0.0598 -0.0277
  102MOL    H1214354   6.029   3.958   1.598 -0.4572 -0.0242 -1.8801
  102MOL    H1314355   6.130   4.077   1.517 -1.8294 -1.2638 -0.5570
  102MOL    H1414356   6.328   3.967   1.611  0.8537 -2.2510  1.8164
  102MOL    H1514357   6.246   3.879   1.484 -2.6233  0.2915  0.1789
  102MOL    C1614358   6.315   3.692   1.640 -0.6375  0.0769  0.5198
  102MOL    C1714359   6.242   3.577   1.579  0.1638 -0.5149 -0.3993
  102MOL    O1814360   6.202   3.606   1.443  0.4865 -0.2021 -0.0950
  102MOL    H1914361   6.386   3.728   1.567 -1.0244  0.5217  0.3591
  102MOL    H2014362   6.374   3.654   1.723  1.8732 -1.0188 -1.7189
  102MOL    H2114363   6.162   3.543   1.645 -0.3449  1.1208 -0.1537
  102MOL    H2214364   6.312   3.493   1.583  1.6455  0.7809  2.1231
  102MOL    C2314365   6.137   3.494   1.394 -0.6912  0.4082 -0.3683
  102MOL    C2414366   6.144   3.522   1.240  0.1898  0.5881  0.3974
  102MOL    O2514367   6.268   3.515   1.175  0.0660 -0.5187  0.5487
  102MOL    H2614368   6.191   3.405   1.427 -0.6515 -0.0587 -1.6809
  102MOL    H2714369   6.035   3.491   1.431 -0.7956 -3.0397 -0.7718
  102MOL    H2814370   6.091   3.614   1.213 -1.7173  0.2007  2.6493
  102MOL    H2914371   6.080   3.449   1.191  0.3131  0.8872 -0.2150
  102MOL    C3014372   6.256   3.504   1.036 -0.3016  0.5836  0.3882
  102MOL    C3114373   6.387   3.444   0.982 -0.1867 -0.9583  0.7458
  102MOL    O3214374   6.394   3.303   1.009  0.1648 -1.1661 -0.3141
  102MOL    H3314375   6.172   3.440   1.010 -0.0917  0.2123  0.6080
  102MOL    H3414376   6.244   3.603   0.991  2.0818  2.1250  2.9850
  102MOL    H3514377   6.477   3.499   1.009  0.9519 -3.0466  1.3920
  102MOL    H3614378   6.385   3.458   0.874  0.0202  0.4317  0.9178
  102MOL    C3714379   6.488   3.225   0.940  0.3919 -0.3883 -0.6757
  102MOL    C3814380   6.627   3.232   1.003 -0.6161 -0.3088 -0.0477
  102MOL    O3914381   6.713   3.313   0.936  0.6704  0.1354  0.9198
  102MOL    H4014382   6.439   3.128   0.952  1.2648 -0.9291 -1.3386
  102MOL    H4114383   6.496   3.246   0.833 -0.5427 -0.3584 -0.7418
  102MOL    H4214384   6.669   3.132   1.018  0.7384  0.0792 -1.1320
  102MOL    H4314385   6.609   3.270   1.104 -0.3980 -1.0704  0.2827
  102MOL    C4414386   6.828   3.350   1.009 -0.2200  0.4703 -0.3739
  102MOL    C4514387   6.820   3.467   1.106 -0.0148 -0.4106 -0.0849
  102MOL    O4614388   6.805   3.592   1.044 -0.2294  0.0171  0.1684
  102MOL    H4714389   6.866   3.266   1.067 -0.5891  1.2764  1.0393
  102MOL    H4814390   6.910   3.376   0.942 -1.2152  0.6598 -1.5364
  102MOL    H4914391   6.915   3.461   1.159  0.0783  0.1799 -0.1770
  102MOL    H5014392   6.731   3.446   1.164 -0.3261  1.3780  0.1091
  102MOL    C5114393   6.783   3.695   1.141  0.6713  0.6068  0.2958
  102MOL    C5214394   6.917   3.725   1.215  0.1941  0.3139 -0.2257
  102MOL    O5314395   6.951   3.627   1.319  0.7013 -0.1006 -0.1451
  102MOL    H5414396   6.744   3.785   1.094  0.3025 -0.0651 -0.6936
  102MOL    H5514397   6.696   3.668   1.201  1.2735 -0.5745  0.6541
  102MOL    H5614398   6.902   3.823   1.262  2.0445  1.6096 -2.2143
  102MOL    H5714399   6.996   3.738   1.141 -0.0392 -1.8237 -0.8599
  102MOL    C5814400   7.082   3.640   1.369  0.3152  0.0387  0.5147
  102MOL    C5914401   7.119   3.510   1.444 -0.1743 -0.6375  0.5213
  102MOL    O6014402   7.117   3.413   1.337  0.3709 -0.3200  0.9699
  102MOL    H6114403   7.153   3.637   1.286 -1.5766  0.5879 -1.1543
  102MOL    H6214404   7.110   3.731   1.422 -1.3296 -0.1876  1.8105
  102MOL    H6314405   7.052   3.500   1.529  0.5628  0.8765  1.3036
  102MOL    H6414406   7.220   3.518   1.485  0.1239  0.4592 -0.3952
  102MOL    C6514407   7.172   3.290   1.383 -0.2654  0.3390  0.0923
  102MOL    C6614408   7.136   3.172   1.286  0.6897  0.2625 -0.0007
  102MOL    O6714409   7.198   3.183   1.158  0.3033 -0.2162 -0.4209
  102MOL    H6814410   7.281   3.295   1.396 -0.0745 -1.6882 -0.4658
  102MOL    H6914411   7.135   3.267   1.483  1.0353  1.1399  0.7817
  102MOL    H7014412   7.027   3.168   1.286  0.6416  1.5079  0.6340
  102MOL    H7114413   7.179   3.083   1.333  0.3744  0.5535  0.8435
  102MOL    C7214414   7.150   3.084   1.069 -0.3650  0.7801 -0.0239
  102MOL    C7314415   7.220   3.112   0.933  0.0969 -0.4240  0.8965
  102MOL    O7414416   7.207   3.006   0.833 -0.3246 -0.1583 -0.7004
  102MOL    H7514417   7.178   2.989   1.112 -0.5785  0.8269  0.2161
  102MOL    H7614418   7.041   3.075   1.061 -0.7137  2.3034  2.4280
  102MOL    H7714419   7.326   3.136   0.943  0.1484 -1.2942  2.8037
  102MOL    H7814420   7.169   3.204   0.905  0.2324 -0.9872 -1.2815
  102MOL    C7914421   7.199   3.050   0.698  0.3276 -0.3943  0.2915
  102MOL    C8014422   7.347   3.095   0.669  0.3821  0.8078 -0.8304
  102MOL    O8114423   7.408   3.029   0.560  0.6483  0.6258  0.3284
  102MOL    H8214424   7.161   2.970   0.633  0.2051  0.9774 -1.3566
  102MOL    H8314425   7.119   3.123   0.691  0.7444  0.2519  2.0566
  102MOL    H8414426   7.407   3.074   0.758  1.3048  3.7085 -0.7166
  102MOL    H8514427   7.361   3.201   0.647  2.5685  0.7115 -0.0558
  102MOL    C8614428   7.447   2.890   0.581  0.3674 -0.6787 -0.3923
  102MOL    C8714429   7.459   2.818   0.452 -0.3928  0.0368 -0.4640
  102MOL    O8814430   7.336   2.800   0.390  0.7742 -0.1638 -0.3081
  102MOL    H8914431   7.547   2.904   0.622  0.7710 -0.9642 -1.2689
  102MOL    H9014432   7.375   2.846   0.651  0.1793  0.4617  0.1465
  102MOL    H9114433   7.496   2.717   0.467  0.3218  0.0436 -2.0218
  102MOL    H9214434   7.522   2.869   0.379 -0.9964  1.0941 -0.2650
  102MOL    C9314435   7.340   2.754   0.263  0.2907 -0.0159 -0.3914
  102MOL    C9414436   7.195   2.746   0.217 -0.1518 -0.7538  0.1483
  102MOL    O9514437   7.207   2.681   0.091  0.2000  0.4056  0.0315
  102MOL    H9614438   7.383   2.819   0.187 -0.0923 -1.9959 -2.3555
  102MOL    H9714439   7.378   2.652   0.261 -0.0173 -0.0981 -2.2702
  102MOL    H9814440   7.141   2.841   0.207  0.9685 -0.0729  0.4622
  102MOL    H9914441   7.136   2.681   0.281 -0.2241 -0.7148  0.1215
  102MOL   C10014442   7.083   2.682   0.022  0.1861 -0.1569  0.0258
  102MOL   C10114443   7.083   2.566   7.687  0.0148  0.8327 -0.7652
  102MOL   O10214444   7.165   2.611   7.581 -0.2575  0.2394  0.6183
  102MOL   H10314445   6.986   2.669   0.070 -0.6711 -0.6214 -1.8105
  102MOL   H10414446   7.073   2.780   7.747  2.8654  0.7312  1.2253
  102MOL   H10514447   6.983   2.536   7.655  0.9636 -0.6103 -2.4742
  102MOL   H10614448   7.123   2.483   7.746 -1.2683  0.4307 -0.4380
  102MOL   C10714449   7.192   2.511   7.481  0.2743 -0.2569 -0.1370
  102MOL   C10814450   7.285   2.568   7.374 -0.2016  0.1892  0.6451
  102MOL   O10914451   7.199   2.623   7.274  0.2766 -0.3493 -0.0014
  102MOL   H11014452   7.219   2.412   7.518  2.6533 -0.1021 -1.3705
  102MOL   H11114453   7.090   2.490   7.446  0.4418 -0.5780 -0.4285
  102MOL   H11214454   7.348   2.499   7.318 -1.0222 -1.1063  1.2984
  102MOL   H11314455   7.357   2.637   7.419  0.2633 -0.9944  1.7499
  102MOL   C11414456   7.265   2.704   7.179 -0.7727 -0.1674  0.7313
  102MOL   C11514457   7.166   2.746   7.065  0.1104  0.0709 -0.4418
  102MOL   O11614458   7.128   2.634   6.997 -0.4934  0.9601 -0.1894
  102MOL   H11714459   7.294   2.792   7.237 -1.0755  0.0036  0.6184
  102MOL   H11814460   7.352   2.654   7.135 -0.0025  1.8294 -0.0604
  102MOL   H11914461   7.222   2.826   7.016  1.8485 -1.7792 -1.5701
  102MOL   H12014462   7.070   2.784   7.101  0.2523  1.9229 -1.9107
  102MOL   C12114463   7.067   2.672   6.869 -0.1870  0.5484 -0.3547
  102MOL   C12214464   7.033   2.555   6.778 -0.3394 -0.1324  0.1221
  102MOL   O12314465   7.144   2.530   6.689  0.1068 -0.7756 -0.1934
  102MOL   H12414466   6.976   2.727   6.897  0.2693  0.2057  1.8649
  102MOL   H12514467   7.117   2.751   6.813 -0.1530  0.6863 -0.1318
  102MOL   H12614468   6.946   2.574   6.716  0.4884  0.7432 -0.7864
  102MOL   H12714469   7.005   2.462   6.828  4.4041 -1.0736  1.3048
  102MOL   C12814470   7.121   2.404   6.618  0.0911  0.5265 -0.1771
  102MOL   C12914471   7.237   2.379   6.522 -0.4965 -0.0436  0.7756
  102MOL   O13014472   7.177   2.344   6.394 -0.0558  0.4699 -0.4460
  102MOL   H13114473   7.099   2.328   6.693 -1.1247  2.2565  1.3042
  102MOL   H13214474   7.029   2.413   6.561 -2.0332 -1.5452  2.7791
  102MOL   H13314475   7.314   2.308   6.552 -0.5775 -0.8623 -0.9053
  102MOL   H13414476   7.288   2.475   6.509  0.5003 -1.0719 -3.9628
  102MOL   C13514477   7.267   2.327   6.290 -0.0279  0.1280  0.0139
  102MOL   C13614478   7.197   2.285   6.156  0.0378 -0.5995 -0.0685
  102MOL   O13714479   7.113   2.394   6.101  0.1656  0.4821 -0.4120
  102MOL   H13814480   7.325   2.419   6.288  2.8360 -1.5482  2.0091
  102MOL   H13914481   7.335   2.251   6.330  1.4133  0.8508 -1.0235
  102MOL   H14014482   7.143   2.191   6.159 -0.6764 -0.1839  0.3860
  102MOL   H14114483   7.279   2.261   6.089 -0.2459 -0.4383 -0.4761
  102MOL   H14214484   7.122   2.457   6.171 -2.3384  0.2121  0.2101
  103MOL     C114485   1.808   1.354   3.024  0.4998 -0.2052 -0.2468
  103MOL     C214486   1.710   1.333   3.151 -0.4376  0.4830 -0.2845
  103MOL     O314487   1.771   1.358   3.275 -0.5060 -0.0288  0.0799
  103MOL     H414488   1.762   1.314   2.934 -0.8705 -0.6007  0.6160
  103MOL     H514489   1.907   1.316   3.051 -0.5218 -1.4753  1.8215
  103MOL     H614490   1.668   1.233   3.148  0.4426  0.1359 -1.3379
  103MOL     H714491   1.617   1.387   3.130  0.1040  1.3064 -0.5958
  103MOL     H814492   1.832   1.458   2.999  3.6206 -1.1335 -1.2738
  103MOL     C914493   1.857   1.257   3.330  0.4874  0.1792 -0.5154
  103MOL    C1014494   1.868   1.296   3.479  0.1540  0.6415  0.2011
  103MOL    O1114495   1.733   1.278   3.540  0.9194 -0.0830 -0.3458
  103MOL    H1214496   1.816   1.158   3.312 -0.8531  0.5024  0.6351
  103MOL    H1314497   1.955   1.254   3.284  0.3850  0.2492 -0.7383
  103MOL    H1414498   1.921   1.391   3.487 -1.8565  1.8064  0.2665
  103MOL    H1514499   1.938   1.230   3.531 -0.5881 -0.8269 -0.6370
  103MOL    C1614500   1.742   1.270   3.680 -0.4744  0.1992 -0.0447
  103MOL    C1714501   1.609   1.267   3.752 -1.5655 -0.9001 -0.6039
  103MOL    O1814502   1.581   1.145   3.810  0.2401  0.0664  0.2484
  103MOL    H1914503   1.804   1.189   3.718 -1.7045 -0.0634  1.4183
  103MOL    H2014504   1.792   1.359   3.718  1.9144 -0.9857 -0.3027
  103MOL    H2114505   1.529   1.305   3.689 -0.3692  2.3880 -0.2319
  103MOL    H2214506   1.624   1.347   3.825 -0.6927 -0.6398 -1.0565
  103MOL    C2314507   1.475   1.149   3.901 -0.0499  0.3170  0.1616
  103MOL    C2414508   1.443   1.015   3.953  0.0717 -0.1233  0.0492
  103MOL    O2514509   1.535   0.983   4.059  0.0747  0.0615  0.6424
  103MOL    H2614510   1.490   1.217   3.984  0.5527  1.6028 -0.9772
  103MOL    H2714511   1.391   1.192   3.846  0.8154 -0.2285 -1.6224
  103MOL    H2814512   1.440   0.936   3.878  2.4403 -1.3256  1.1567
  103MOL    H2914513   1.345   1.018   4.000  0.7978  0.3738  1.5414
  103MOL    C3014514   1.489   0.888   4.148 -0.1299  0.2680  0.3704
  103MOL    C3114515   1.608   0.853   4.234  0.3624 -0.2504  0.3781
  103MOL    O3214516   1.614   0.948   4.341  0.4314  0.3260 -0.3731
  103MOL    H3314517   1.401   0.928   4.200  2.3725  3.0208  2.6551
  103MOL    H3414518   1.467   0.799   4.088  0.2657 -0.8280  1.8328
  103MOL    H3514519   1.699   0.850   4.175  0.1576 -1.2376  0.0973
  103MOL    H3614520   1.593   0.754   4.278  0.6888 -1.2327 -1.6776
  103MOL    C3714521   1.711   0.908   4.442  0.4077  0.6522 -0.4925
  103MOL    C3814522   1.697   0.982   4.572 -0.2288 -0.3278  0.3919
  103MOL    O3914523   1.602   0.930   4.662 -0.3291 -0.3734 -0.2207
  103MOL    H4014524   1.702   0.801   4.463 -0.4297  0.5390 -1.3643
  103MOL    H4114525   1.813   0.923   4.406  0.7709 -0.7461 -0.0788
  103MOL    H4214526   1.680   1.089   4.558  1.1347 -0.6020 -4.1168
  103MOL    H4314527   1.797   0.967   4.613 -1.1710 -0.5648  2.6575
  103MOL    C4414528   1.630   0.964   4.790 -0.5508 -0.3568 -0.2253
  103MOL    C4514529   1.614   0.837   4.879 -0.6793  0.0074  0.7261
  103MOL    O4614530   1.476   0.804   4.880 -0.0398 -0.0332 -0.2404
  103MOL    H4714531   1.730   1.001   4.813 -0.3087 -0.6052 -0.8562
  103MOL    H4814532   1.559   1.044   4.811 -0.6731 -0.0133 -1.8326
  103MOL    H4914533   1.642   0.861   4.982 -1.5415 -0.7452  1.1439
  103MOL    H5014534   1.675   0.753   4.844 -0.9530 -0.3534  1.1013
  103MOL    C5114535   1.462   0.683   4.944 -1.1026  0.4515 -0.0511
  103MOL    C5214536   1.315   0.640   4.949  0.1163 -0.3422  0.3088
  103MOL    O5314537   1.287   0.554   5.063  0.3893 -0.4488 -0.2906
  103MOL    H5414538   1.533   0.615   4.897 -1.9787 -1.4944  1.3592
  103MOL    H5514539   1.506   0.687   5.044  1.1995 -1.9463 -0.9022
  103MOL    H5614540   1.291   0.591   4.855  0.7916  1.6179 -0.9197
  103MOL    H5714541   1.254   0.729   4.960  2.6620  1.9424 -2.8543
  103MOL    C5814542   1.333   0.420   5.047 -0.5931  0.3043  0.1990
  103MOL    C5914543   1.298   0.334   5.171  0.3038  0.6172 -0.8042
  103MOL    O6014544   1.358   0.200   5.175  0.1206 -0.5768  0.5006
  103MOL    H6114545   1.307   0.377   4.950  4.2308 -0.9090 -0.6946
  103MOL    H6214546   1.440   0.437   5.056  0.3067 -4.7353  0.4599
  103MOL    H6314547   1.192   0.314   5.186 -0.3323  3.4999 -1.2162
  103MOL    H6414548   1.317   0.395   5.260  1.3353 -1.0594  0.1507
  103MOL    C6514549   1.314   0.125   5.282 -0.4766  0.5958 -0.8288
  103MOL    C6614550   1.370   7.753   5.297 -0.0723 -0.0933  0.6360
  103MOL    O6714551   1.493   7.771   5.365 -0.0431  0.6072  0.8977
  103MOL    H6814552   1.331   0.176   5.377  1.7512 -1.4101 -0.0873
  103MOL    H6914553   1.206   0.120   5.271 -0.6443  3.2226 -0.5886
  103MOL    H7014554   1.379   7.714   5.196 -2.5894 -1.1622  0.8062
  103MOL    H7114555   1.291   7.697   5.345 -0.3336 -0.8524 -0.6745
  103MOL    C7214556   1.538   7.658   5.436 -0.5570 -0.1381 -0.1513
  103MOL    C7314557   1.559   7.531   5.351  0.0442  0.8000 -0.2644
  103MOL    O7414558   1.437   7.470   5.315  0.1811  0.7937 -0.1892
  103MOL    H7514559   1.629   7.698   5.481  1.3645 -2.5908 -1.7445
  103MOL    H7614560   1.470   7.650   5.521 -1.6274 -1.1176 -1.0779
  103MOL    H7714561   1.605   7.449   5.406 -1.2755 -0.2705 -0.7115
  103MOL    H7814562   1.617   7.559   5.263  1.1864 -2.8445 -0.7723
  103MOL    C7914563   1.445   7.386   5.197  0.5156 -0.7427 -0.5449
  103MOL    C8014564   1.532   7.255   5.220  0.3145 -0.3456 -0.0047
  103MOL    O8114565   1.669   7.285   5.205  0.6613 -0.4198  0.1963
  103MOL    H8214566   1.343   7.363   5.166  0.3103  0.4392 -0.7804
  103MOL    H8314567   1.490   7.434   5.110  1.7182 -2.4729 -0.8897
  103MOL    H8414568   1.503   7.179   5.148 -1.5229  1.9493 -1.7418
  103MOL    H8514569   1.503   7.216   5.318 -0.6349 -0.6920 -0.4228
  103MOL    C8614570   1.750   7.180   5.259 -0.5096 -0.0320  0.0350
  103MOL    C8714571   1.895   7.231   5.259 -0.0872 -0.1368  0.4649
  103MOL    O8814572   1.915   7.336   5.361  0.7212 -0.4008 -0.4996
  103MOL    H8914573   1.726   7.153   5.362  2.2999  2.4803  1.4267
  103MOL    H9014574   1.754   7.085   5.207 -0.9256  0.7232 -1.4055
  103MOL    H9114575   1.924   7.274   5.163  0.8818 -2.7598 -0.4746
  103MOL    H9214576   1.962   7.146   5.276  0.1271 -0.5365 -2.1568
  103MOL    C9314577   1.941   7.465   5.307  0.7317  1.7460 -0.4758
  103MOL    C9414578   1.994   7.564   5.410 -0.3329 -0.1479  0.0161
  103MOL    O9514579   1.889   7.627   5.480  0.0243  0.1443  0.0175
  103MOL    H9614580   2.017   7.457   5.230  1.4841  2.0184  0.2428
  103MOL    H9714581   1.846   7.505   5.272  0.4240  1.7960  0.4053
  103MOL    H9814582   2.049   7.650   5.371 -1.1311 -0.7962 -2.6487
  103MOL    H9914583   2.072   7.515   5.468  0.5550  2.0975  0.7961
  103MOL   C10014584   1.851   7.568   5.604 -0.2755  0.2233  0.0055
  103MOL   C10114585   1.842   7.673   5.716  0.5098  0.6591  0.5243
  103MOL   O10214586   1.802   7.628   5.848 -0.3964 -0.1114 -0.0537
  103MOL   H10314587   1.757   7.516   5.584  0.8823 -1.7399 -0.5097
  103MOL   H10414588   1.923   7.492   5.634  2.1286  3.2488  2.3034
  103MOL   H10514589   1.764   7.743   5.685  1.3833  0.6538 -1.7815
  103MOL   H10614590   1.934   7.731   5.718  0.8317  0.1512  0.4415
  103MOL   C10714591   1.904   7.562   5.918  0.4164  0.6530  0.4972
  103MOL   C10814592   1.885   7.534   6.065  0.3991  1.0115  0.8618
  103MOL   O10914593   1.839   7.645   6.134 -0.0153  0.1469  0.1749
  103MOL   H11014594   1.931   7.470   5.865 -0.9575  1.0878 -1.0133
  103MOL   H11114595   1.994   7.623   5.925  1.3389 -0.3919 -1.7669
  103MOL   H11214596   1.984   7.493   6.086  0.6792 -0.3762 -2.7921
  103MOL   H11314597   1.821   7.447   6.079 -0.6274  0.9858 -3.3229
  103MOL   C11414598   1.809   7.609   6.273  0.4309  0.7871 -0.3444
  103MOL   C11514599   1.724   7.715   6.347 -0.3384  0.4841  0.4429
  103MOL   O11614600   1.586   7.711   6.301 -0.4362 -0.2580  0.2385
  103MOL   H11714601   1.755   7.516   6.292  0.5689  0.5704 -0.9887
  103MOL   H11814602   1.907   7.597   6.319  2.5312  2.2251 -4.1988
  103MOL   H11914603   1.768   0.043   6.334  2.4724 -0.6786  0.7554
  103MOL   H12014604   1.724   7.692   6.454  1.9481 -0.9207  0.1932
  103MOL   C12114605   1.508   0.045   6.345  0.6182 -0.1990 -0.2056
  103MOL   C12214606   1.441   7.765   6.470  0.1382 -0.4549  0.1444
  103MOL   O12314607   1.522   0.033   6.586 -0.3592 -0.2797 -0.2847
  103MOL   H12414608   1.559   0.140   6.361  0.4388 -0.0316 -0.6298
  103MOL   H12514609   1.433   0.069   6.270 -2.4781 -0.2572  2.7470
  103MOL   H12614610   1.425   7.657   6.466  1.1822 -0.6038 -0.2576
  103MOL   H12714611   1.344   0.042   6.477  0.2407 -0.3083  0.5862
  103MOL   C12814612   1.454   0.021   6.705  0.4763 -0.2665 -0.1237
  103MOL   C12914613   1.530   0.102   6.806  0.2982  0.7986 -0.3994
  103MOL   O13014614   1.671   0.063   6.813  0.1925 -0.6710 -0.0863
  103MOL   H13114615   1.352   0.060   6.697  0.3171 -0.2781  1.7539
  103MOL   H13214616   1.451   7.684   6.716 -1.0253 -0.2536 -0.3022
  103MOL   H13314617   1.484   0.091   6.904  1.8740  2.4417  0.5387
  103MOL   H13414618   1.528   0.207   6.776 -1.9427  1.4866  2.0106
  103MOL   C13514619   1.744   0.163   6.885 -0.5896  0.7175  0.0481
  103MOL   C13614620   1.890   0.123   6.896 -0.1070 -0.4296  0.2554
  103MOL   O13714621   1.887   0.008   6.975 -0.9338 -0.5111 -0.5038
  103MOL   H13814622   1.747   0.256   6.828 -2.4253  1.8930  1.8274
  103MOL   H13914623   1.704   0.181   6.984  1.1352 -0.3939  0.9726
  103MOL   H14014624   1.945   0.204   6.945 -0.1635 -0.1012 -0.2259
  103MOL   H14114625   1.932   0.094   6.800 -0.0447 -0.5539  0.3190
  103MOL   H14214626   1.826   7.723   6.930 -1.0780 -1.8417  1.2828
  104MOL     C114627   6.185   7.012   6.391 -0.3129 -0.3736  0.1545
  104MOL     C214628   6.061   7.099   6.359  0.1583  0.0570  0.1343
  104MOL     O314629   6.022   7.096   6.224 -0.1191  0.2086 -0.3267
  104MOL     H414630   6.264   7.038   6.321 -1.1034 -2.8877 -1.7316
  104MOL     H514631   6.158   6.907   6.385 -0.1987 -0.5427  2.2761
  104MOL     H614632   6.087   7.201   6.388  0.1606  0.4205 -1.1123
  104MOL     H714633   5.981   7.060   6.422 -1.0328 -2.2695 -2.7108
  104MOL     H814634   6.220   7.051   6.487 -0.6474 -0.4839  0.3224
  104MOL     C914635   5.927   7.197   6.184 -0.0336 -0.7411  0.3488
  104MOL    C1014636   5.898   7.178   6.036 -0.0584  0.3607 -0.3941
  104MOL    O1114637   6.004   7.233   5.959 -0.0037  0.2819  0.0653
  104MOL    H1214638   5.842   7.198   6.253 -0.7497  1.4636 -0.5474
  104MOL    H1314639   5.970   7.294   6.207 -1.2551 -0.0738 -0.1800
  104MOL    H1414640   5.809   7.239   6.017  0.0786  0.9085  0.6895
  104MOL    H1514641   5.875   7.073   6.019 -2.1794  1.1132 -2.4262
  104MOL    C1614642   6.045   7.147   5.857 -0.0218 -0.1706 -0.0945
  104MOL    C1714643   6.153   7.043   5.891  0.0630 -0.0426 -0.1311
  104MOL    O1814644   6.110   6.947   5.984 -0.3876  0.2062 -0.0167
  104MOL    H1914645   5.965   7.082   5.819  1.2285 -1.2223 -0.9847
  104MOL    H2014646   6.070   7.216   5.776  2.0249  0.9244  1.4381
  104MOL    H2114647   6.243   7.087   5.933  0.1247 -0.5303  0.2591
  104MOL    H2214648   6.185   7.001   5.796 -0.9845 -0.0119 -0.5117
  104MOL    C2314649   6.221   6.884   6.044 -0.6912  0.2963  0.5563
  104MOL    C2414650   6.187   6.753   6.121 -0.1075  0.3137  0.5599
  104MOL    O2514651   6.146   6.658   6.028  0.2045 -0.3081 -0.0493
  104MOL    H2614652   6.290   6.853   5.966 -0.2508 -2.2559  1.8858
  104MOL    H2714653   6.273   6.954   6.109 -0.1830  0.8589 -0.4479
  104MOL    H2814654   6.107   6.761   6.194 -0.4906  0.1049  0.1715
  104MOL    H2914655   6.279   6.724   6.171 -2.0362 -1.4785  3.2282
  104MOL    C3014656   6.096   6.543   6.096  0.0064 -0.3540  0.2679
  104MOL    C3114657   6.046   6.456   5.979 -0.2505  0.0707 -0.0240
  104MOL    O3214658   5.941   6.377   6.035  0.2931 -0.3131  0.4264
  104MOL    H3314659   6.177   6.499   6.154  2.1443  1.8737 -0.9473
  104MOL    H3414660   6.016   6.588   6.155  0.8604  1.4107  0.1166
  104MOL    H3514661   6.128   6.396   5.938 -1.8924 -0.3808 -2.7604
  104MOL    H3614662   6.003   6.515   5.899 -2.1256  1.5777  2.0205
  104MOL    C3714663   5.901   6.261   5.953 -0.0508 -0.1935 -0.0497
  104MOL    C3814664   5.817   6.305   5.836 -0.6493 -0.1524 -0.5710
  104MOL    O3914665   5.888   6.367   5.725 -0.1145 -0.3886  0.2442
  104MOL    H4014666   5.991   6.212   5.915 -0.3767 -2.0893  1.5372
  104MOL    H4114667   5.847   6.193   6.018 -0.7347  1.2417  0.8938
  104MOL    H4214668   5.746   6.374   5.880  1.0728  0.3728  1.4688
  104MOL    H4314669   5.766   6.213   5.806 -2.1633 -0.3919  2.6145
  104MOL    C4414670   5.801   6.396   5.612 -0.0657 -0.4316 -0.4154
  104MOL    C4514671   5.882   6.481   5.512 -0.9477  0.1660 -0.3220
  104MOL    O4614672   5.978   6.411   5.443 -0.9719  1.0950 -0.6050
  104MOL    H4714673   5.767   6.311   5.552 -1.9974  0.1890 -0.2263
  104MOL    H4814674   5.712   6.454   5.637  0.4910 -0.2769  1.2750
  104MOL    H4914675   5.926   6.572   5.554  0.0031 -0.1227 -0.6812
  104MOL    H5014676   5.810   6.527   5.444 -1.1158 -1.8927 -1.5655
  104MOL    C5114677   5.995   6.451   5.308 -0.0015  0.2920 -0.1099
  104MOL    C5214678   6.060   6.345   5.221  0.9292  0.2120 -0.2076
  104MOL    O5314679   5.976   6.230   5.203 -0.0079  0.1333  0.1633
  104MOL    H5414680   5.898   6.471   5.263 -0.5106  0.4806  1.0526
  104MOL    H5514681   6.055   6.541   5.297  0.3383  0.4572  2.8039
  104MOL    H5614682   6.156   6.321   5.268  1.1793  0.3598 -0.6369
  104MOL    H5714683   6.095   6.395   5.130  0.8432  0.5761 -0.0405
  104MOL    C5814684   6.041   6.130   5.119  0.3899 -0.3022 -0.0758
  104MOL    C5914685   5.936   6.021   5.089 -0.7194 -0.0050  0.4970
  104MOL    O6014686   5.851   6.056   4.977 -0.0702 -0.3037  0.4103
  104MOL    H6114687   6.068   6.185   5.029  2.4747 -0.4484  0.4239
  104MOL    H6214688   6.136   6.094   5.159  0.8247 -0.4398 -1.2051
  104MOL    H6314689   5.872   5.998   5.174 -2.7590  1.8211 -0.5049
  104MOL    H6414690   5.993   5.931   5.066 -2.3477 -0.5722 -1.3492
  104MOL    C6514691   5.743   5.965   4.964 -0.2824  0.5897  0.4464
  104MOL    C6614692   5.681   5.967   4.829 -0.2308 -0.1525 -0.3186
  104MOL    O6714693   5.588   6.077   4.811  0.0604  0.3201 -0.2805
  104MOL    H6814694   5.776   5.864   4.989 -3.6940 -0.8963 -0.6237
  104MOL    H6914695   5.677   5.988   5.048 -0.9724 -1.3528  0.4664
  104MOL    H7014696   5.626   5.873   4.830  1.0510 -0.9888 -3.3459
  104MOL    H7114697   5.763   5.954   4.759  2.4421  1.0401  2.4427
  104MOL    C7214698   5.555   6.075   4.671 -0.7937  0.2187  0.5375
  104MOL    C7314699   5.464   6.185   4.623  0.4554  0.5683 -0.1409
  104MOL    O7414700   5.526   6.312   4.608  0.1895  0.0961 -0.3828
  104MOL    H7514701   5.654   6.079   4.625 -0.0316 -0.6086  2.0399
  104MOL    H7614702   5.502   5.987   4.635  2.5863 -1.5420 -0.3214
  104MOL    H7714703   5.373   6.199   4.681  0.7207 -1.1884  0.7342
  104MOL    H7814704   5.421   6.165   4.524 -0.0976  1.0867 -0.0084
  104MOL    C7914705   5.451   6.416   4.552 -0.0496  0.3943 -1.0256
  104MOL    C8014706   5.517   6.553   4.591 -0.3072  0.0752  0.0264
  104MOL    O8114707   5.612   6.574   4.489 -0.5064 -0.2157 -0.2023
  104MOL    H8214708   5.442   6.411   4.444 -2.7725  1.4824 -0.8868
  104MOL    H8314709   5.353   6.403   4.597  0.6845 -3.0196 -0.2984
  104MOL    H8414710   5.570   6.556   4.686  1.0058 -1.3272 -0.6382
  104MOL    H8514711   5.438   6.627   4.578 -0.2860  0.1340  0.2325
  104MOL    C8614712   5.735   6.509   4.510 -0.0437 -0.0022  0.5747
  104MOL    C8714713   5.845   6.519   4.406  0.2316  0.8450  0.3093
  104MOL    O8814714   5.786   6.456   4.295  0.1522 -0.5590  0.1358
  104MOL    H8914715   5.788   6.560   4.590 -0.3202 -0.8607  1.3187
  104MOL    H9014716   5.731   6.405   4.542  1.5909 -0.3479 -0.3066
  104MOL    H9114717   5.932   6.465   4.443 -0.3112 -1.0066 -1.0866
  104MOL    H9214718   5.874   6.624   4.395  4.3031 -0.3043 -0.6761
  104MOL    C9314719   5.875   6.455   4.185 -0.8964 -0.1752 -0.0480
  104MOL    C9414720   5.816   6.393   4.062 -0.0407  0.1786 -0.7098
  104MOL    O9514721   5.871   6.464   3.949 -0.3720  0.6343  0.0422
  104MOL    H9614722   5.897   6.558   4.156  0.6392 -1.7944 -5.2798
  104MOL    H9714723   5.970   6.409   4.211 -0.1242  1.5285  0.2262
  104MOL    H9814724   5.709   6.406   4.073 -0.3206 -1.1945 -1.7031
  104MOL    H9914725   5.839   6.287   4.060 -1.1568 -0.0274 -4.1923
  104MOL   C10014726   5.794   6.439   3.834  0.3325  1.2015  0.7177
  104MOL   C10114727   5.857   6.490   3.706 -0.3903  0.8803 -0.0434
  104MOL   O10214728   5.963   6.402   3.676 -0.0100  0.3070 -0.1492
  104MOL   H10314729   5.785   6.330   3.826 -1.6047  1.4636 -1.1222
  104MOL   H10414730   5.700   6.494   3.841 -1.3059 -1.4290  0.1005
  104MOL   H10514731   5.878   6.597   3.705 -2.1724  1.2513  0.1848
  104MOL   H10614732   5.778   6.477   3.633 -0.4173 -0.0747  0.1422
  104MOL   C10714733   6.026   6.416   3.546  0.5818  0.5844  0.2562
  104MOL   C10814734   6.133   6.313   3.513  0.5450  0.0787 -0.5232
  104MOL   O10914735   6.071   6.198   3.449 -0.0379  0.2710  0.2986
  104MOL   H11014736   5.959   6.437   3.464 -0.3521 -0.1172  0.8333
  104MOL   H11114737   6.079   6.510   3.558  0.0946  0.7381  1.2453
  104MOL   H11214738   6.192   6.264   3.590  1.7291  0.4239 -1.1883
  104MOL   H11314739   6.194   6.349   3.430 -0.9091  1.2662 -1.0923
  104MOL   C11414740   6.153   6.112   3.370 -0.0723 -0.0439 -0.3533
  104MOL   C11514741   6.223   6.019   3.463  0.4782  0.1600 -0.1210
  104MOL   O11614742   6.320   6.088   3.533  0.4535  0.2644  0.5658
  104MOL   H11714743   6.095   6.041   3.311 -1.0717 -1.0379  1.7660
  104MOL   H11814744   6.219   6.166   3.303  0.3580 -0.7705 -0.5207
  104MOL   H11914745   6.255   5.930   3.407  1.3876  0.5063 -0.1631
  104MOL   H12014746   6.147   5.974   3.526  2.8673 -0.8687  2.1401
  104MOL   C12114747   6.408   6.002   3.604  0.0342 -0.1032 -0.4568
  104MOL   C12214748   6.495   6.093   3.691  0.3770  0.6129  0.0619
  104MOL   O12314749   6.587   6.030   3.783  0.3625  0.3755 -0.0234
  104MOL   H12414750   6.347   5.933   3.663 -0.5102  2.1392  1.6511
  104MOL   H12514751   6.470   5.934   3.544 -0.1644 -0.7502  0.0583
  104MOL   H12614752   6.441   6.167   3.749 -0.0305  0.2339  0.1656
  104MOL   H12714753   6.560   6.153   3.627 -0.7315  0.8673 -0.8290
  104MOL   C12814754   6.512   5.967   3.887 -0.4942  0.4149 -0.1511
  104MOL   C12914755   6.621   5.921   3.989  0.2584 -0.1211 -0.2209
  104MOL   O13014756   6.726   5.848   3.924 -0.1388 -0.9390  0.1888
  104MOL   H13114757   6.447   6.039   3.937 -2.1642 -0.2978 -1.2273
  104MOL   H13214758   6.455   5.884   3.845 -1.3808  1.4244 -0.9635
  104MOL   H13314759   6.583   5.876   4.081 -0.7124  0.5309 -0.3007
  104MOL   H13414760   6.665   6.011   4.031  0.3304 -0.1357 -0.2663
  104MOL   C13514761   6.838   5.815   4.015 -0.0525  0.3353 -0.1144
  104MOL   C13614762   6.916   5.933   4.055  0.2100 -0.3707  0.4809
  104MOL   O13714763   6.965   5.989   3.943  0.4298 -0.1490 -0.5840
  104MOL   H13814764   6.805   5.770   4.108  0.5156 -0.4751 -0.2985
  104MOL   H13914765   6.908   5.749   3.963  0.1985  1.6379 -1.4737
  104MOL   H14014766   6.991   5.918   4.133 -0.0235  0.4148  0.8621
  104MOL   H14114767   6.850   6.005   4.104  0.4239  0.7166 -0.8027
  104MOL   H14214768   6.887   5.992   3.889 -1.4651  1.5306  2.0885
  105MOL     C114769   2.640   5.497   7.726  0.0691 -0.8776  0.1514
  105MOL     C214770   2.737   5.480   7.618  0.0763  0.2161 -0.4043
  105MOL     O314771   2.867   5.464   7.684  0.4760  0.0663 -0.1439
  105MOL     H414772   2.619   5.405   0.009 -2.3252 -0.2388  0.3554
  105MOL     H514773   2.544   5.519   7.680  2.0087  1.5246 -2.9194
  105MOL     H614774   2.737   5.562   7.545 -0.8077 -1.6043 -2.4843
  105MOL     H714775   2.716   5.391   7.559  1.0677 -1.0122  1.0809
  105MOL     H814776   2.670   5.575   0.025  1.0333 -0.2749 -0.9073
  105MOL     C914777   2.968   5.417   7.602 -0.0941  0.3743  0.1037
  105MOL    C1014778   3.004   5.513   7.484 -0.5407 -0.7399  0.0247
  105MOL    O1114779   2.923   5.481   7.370 -0.3790  0.2496  0.4631
  105MOL    H1214780   3.049   5.404   7.673 -0.6755  1.0503  0.9055
  105MOL    H1314781   2.941   5.319   7.561 -2.3153  0.8567  0.3397
  105MOL    H1414782   3.107   5.496   7.453 -0.5332 -0.7537  0.0564
  105MOL    H1514783   2.998   5.617   7.514  0.4150 -0.7764  0.3570
  105MOL    C1614784   2.885   5.597   7.294 -0.3565 -0.3701 -0.0918
  105MOL    C1714785   2.819   5.554   7.162  0.0744  0.5698  0.3787
  105MOL    O1814786   2.911   5.557   7.054 -0.1279  0.1649  0.5388
  105MOL    H1914787   2.823   5.666   7.351 -0.3153 -0.4829  0.0910
  105MOL    H2014788   2.976   5.650   7.265  0.1043 -0.3359  1.3218
  105MOL    H2114789   2.739   5.627   7.148 -0.7336 -0.3087  0.3877
  105MOL    H2214790   2.784   5.451   7.170 -1.0141  0.8967 -0.0279
  105MOL    C2314791   2.849   5.534   6.926 -0.5645  0.2093  0.5163
  105MOL    C2414792   2.958   5.545   6.818  0.9757  0.0863  0.2241
  105MOL    O2514793   2.914   5.499   6.688  0.0457 -0.0461  0.0585
  105MOL    H2614794   2.793   5.440   6.923  0.9360 -0.6878  0.5150
  105MOL    H2714795   2.772   5.609   6.911 -0.9829  0.0569  1.8261
  105MOL    H2814796   3.032   5.475   6.856 -0.0473  0.4975  3.1083
  105MOL    H2914797   3.008   5.642   6.823  2.5385 -0.7503  1.7109
  105MOL    C3014798   3.009   5.444   6.600  0.1739  0.0225  0.0411
  105MOL    C3114799   3.015   5.295   6.609 -0.4661 -0.8071  0.5348
  105MOL    O3214800   3.073   5.256   6.734  0.0715 -0.0565  0.0237
  105MOL    H3314801   2.995   5.486   6.500 -0.2266 -1.3303 -0.4764
  105MOL    H3414802   3.107   5.478   6.634  0.4010  1.1859 -1.6671
  105MOL    H3514803   3.058   5.251   6.520 -1.0769 -1.4956  0.5772
  105MOL    H3614804   2.911   5.262   6.609 -0.3033 -1.3125  0.4289
  105MOL    C3714805   3.091   5.116   6.739  0.2008  0.1982  0.1921
  105MOL    C3814806   3.132   5.079   6.878  1.1369  0.1426  0.3691
  105MOL    O3914807   3.013   5.088   6.960  0.1812 -0.6750  0.0260
  105MOL    H4014808   3.006   5.060   6.701  0.4282 -0.8091  1.1449
  105MOL    H4114809   3.173   5.101   6.670 -0.3914  0.6428 -0.6171
  105MOL    H4214810   3.215   5.132   6.925  0.5219  1.2175  0.2524
  105MOL    H4314811   3.171   4.978   6.867  1.2599  0.0806  1.3348
  105MOL    C4414812   3.037   5.102   7.102  0.1816  0.3394  0.9895
  105MOL    C4514813   2.910   5.128   7.181  0.4056  0.9606  0.3241
  105MOL    O4614814   2.847   5.001   7.222  0.6719  0.2155  0.0208
  105MOL    H4714815   3.099   5.023   7.146  2.0953  2.3780  2.0823
  105MOL    H4814816   3.102   5.189   7.103 -0.7514  1.0266  1.7005
  105MOL    H4914817   2.836   5.185   7.125  0.7387  1.6669  0.6002
  105MOL    H5014818   2.942   5.184   7.268  0.4027  0.3153  0.7464
  105MOL    C5114819   2.798   4.920   7.115  0.0652  0.2372  0.3738
  105MOL    C5214820   2.729   4.804   7.175 -0.5419  0.0332 -0.0292
  105MOL    O5314821   2.605   4.849   7.220 -0.0001 -0.1080  0.0763
  105MOL    H5414822   2.730   4.976   7.051  0.4659 -1.0087 -1.1829
  105MOL    H5514823   2.875   4.880   7.050 -0.3001 -0.6275  0.4533
  105MOL    H5614824   2.780   4.774   7.267  0.7613  2.3640  0.0234
  105MOL    H5714825   2.722   4.735   7.091 -3.4124 -1.0104  0.9841
  105MOL    C5814826   2.526   4.755   7.299  0.4635  0.4763 -0.5181
  105MOL    C5914827   2.445   4.670   7.205 -0.0171 -0.1137  1.0254
  105MOL    O6014828   2.519   4.574   7.137 -0.4239 -0.0166  0.5778
  105MOL    H6114829   2.590   4.686   7.354  0.8462 -0.5606 -2.2366
  105MOL    H6214830   2.465   4.807   7.373  0.4891  0.8914 -0.7868
  105MOL    H6314831   2.411   4.730   7.120  0.9350 -0.8752  0.1022
  105MOL    H6414832   2.357   4.628   7.254  0.5565 -2.0219  0.4342
  105MOL    C6514833   2.438   4.468   7.080 -0.2000  0.6444  0.4548
  105MOL    C6614834   2.543   4.367   7.029  0.2933 -0.6842 -0.0569
  105MOL    O6714835   2.603   4.300   7.143 -0.1306  0.6623 -0.4305
  105MOL    H6814836   2.361   4.430   7.147  1.0587 -0.0771  1.5065
  105MOL    H6914837   2.375   4.513   7.003  2.9748 -0.7416 -3.1124
  105MOL    H7014838   2.619   4.425   6.978 -0.3574 -0.0714 -0.3480
  105MOL    H7114839   2.500   4.303   6.952 -0.0400  1.3647 -1.6146
  105MOL    C7214840   2.668   4.183   7.101 -0.1683 -0.8631 -0.5535
  105MOL    C7314841   2.746   4.134   7.223 -0.3145 -0.2346  0.3918
  105MOL    O7414842   2.844   4.041   7.178 -0.4351 -0.1649 -0.6666
  105MOL    H7514843   2.593   4.111   7.067 -0.9820 -0.0049 -0.5842
  105MOL    H7614844   2.744   4.206   7.026 -1.9757  2.4044 -1.4673
  105MOL    H7714845   2.684   4.081   7.295  0.2210  0.3838  1.3172
  105MOL    H7814846   2.790   4.218   7.277 -2.4535  1.9961 -1.2178
  105MOL    C7914847   2.947   4.014   7.282 -0.1379 -0.1585 -0.5466
  105MOL    C8014848   2.889   3.914   7.373  0.7025 -0.2655 -0.3261
  105MOL    O8114849   2.851   3.977   7.492  0.0799 -0.5697 -0.0349
  105MOL    H8214850   3.035   3.977   7.229  1.7094 -0.1698  2.4573
  105MOL    H8314851   2.991   4.098   7.334  0.8702 -1.1673  0.2353
  105MOL    H8414852   2.968   3.848   7.408  0.1373  0.1469  1.7957
  105MOL    H8514853   2.813   3.850   7.329 -0.3086  0.2188  0.6929
  105MOL    C8614854   2.796   3.894   7.592 -0.1364  0.2144  0.3494
  105MOL    C8714855   2.781   3.970   7.725 -0.3927 -0.1588  0.3822
  105MOL    O8814856   2.867   3.918   0.062  0.0541 -0.9869  0.8206
  105MOL    H8914857   2.700   3.859   7.554 -0.3169  0.3378  0.6898
  105MOL    H9014858   2.863   3.807   7.596 -1.1081 -0.5972 -0.5197
  105MOL    H9114859   2.678   3.954   7.759 -0.0381 -1.4255  0.8628
  105MOL    H9214860   2.795   4.077   7.709 -0.0928 -0.2791 -0.1350
  105MOL    C9314861   2.821   3.789   0.107  0.0011  0.4532 -0.1846
  105MOL    C9414862   2.910   3.732   0.216  0.4711  0.4133 -0.1919
  105MOL    O9514863   3.019   3.656   0.156 -0.6318 -0.0484 -0.4572
  105MOL    H9614864   2.723   3.811   0.149  0.7355  0.4383  1.5583
  105MOL    H9714865   2.805   3.718   0.026 -1.5641 -0.4079  0.8475
  105MOL    H9814866   2.845   3.658   0.263 -1.3261  0.5014 -2.4798
  105MOL    H9914867   2.941   3.809   0.287 -3.3426  0.3980  1.6406
  105MOL   C10014868   3.093   3.581   0.250 -0.0775 -0.2052  0.7059
  105MOL   C10114869   3.203   3.503   0.172  0.1016  0.6785 -0.1209
  105MOL   O10214870   3.141   3.387   0.115 -0.5567  0.5333  0.1313
  105MOL   H10314871   3.151   3.655   0.306 -0.5572  0.5993  0.1493
  105MOL   H10414872   3.033   3.529   0.325 -0.8827  0.2694  0.3919
  105MOL   H10514873   3.286   3.480   0.239 -0.3481  2.4000  1.0815
  105MOL   H10614874   3.248   3.575   0.104 -0.0628  2.7444  1.8674
  105MOL   C10714875   3.229   3.310   0.027 -0.7878 -0.7433  0.1165
  105MOL   C10814876   3.152   3.210   7.713  1.3098  0.0169 -0.8172
  105MOL   O10914877   3.079   3.130   0.030 -0.0416 -0.5407 -0.4594
  105MOL   H11014878   3.270   3.380   7.724 -2.3311  1.9672  1.7124
  105MOL   H11114879   3.302   3.271   0.097  2.5853  0.0937 -2.8129
  105MOL   H11214880   3.222   3.165   7.642  1.5998 -1.5428  0.4077
  105MOL   H11314881   3.089   3.262   7.641  0.7712  1.2359  0.5259
  105MOL   C11414882   2.994   3.032   7.738  0.3180  0.2760  0.3975
  105MOL   C11514883   2.888   2.998   0.074 -0.0564 -0.2295 -0.0399
  105MOL   O11614884   2.917   2.881   0.141 -0.2544  0.0921  0.1830
  105MOL   H11714885   2.945   3.082   7.655 -0.6651 -1.3279  0.0084
  105MOL   H11814886   3.058   2.949   7.710  1.6464  0.9262  1.4206
  105MOL   H11914887   2.793   2.988   0.022  0.1994 -1.3412 -0.3077
  105MOL   H12014888   2.887   3.087   0.138  1.1523  0.5454 -1.0575
  105MOL   C12114889   3.038   2.897   0.223  0.9061  0.4436  0.0587
  105MOL   C12214890   3.073   2.758   0.294 -0.3878 -0.6724  0.6119
  105MOL   O12314891   3.135   2.677   0.191  0.3072  0.1001  0.0964
  105MOL   H12414892   3.122   2.936   0.167 -0.1417  3.2356  0.3441
  105MOL   H12514893   3.026   2.980   0.293  1.3047 -1.5093  2.5189
  105MOL   H12614894   2.981   2.722   0.339 -0.0273 -0.2352  1.7013
  105MOL   H12714895   3.142   2.779   0.376 -1.8241  1.7823  1.2379
  105MOL   C12814896   3.055   2.621   0.092  0.2790  0.0388  0.1320
  105MOL   C12914897   3.123   2.496   0.034  0.1214  0.0929  0.5897
  105MOL   O13014898   3.215   2.562   7.720 -0.1289 -0.6723 -0.6929
  105MOL   H13114899   2.959   2.595   0.137  1.0191  0.3693  1.9520
  105MOL   H13214900   3.026   2.685   0.009 -1.3559  1.2425  1.5859
  105MOL   H13314901   3.052   2.439   7.746  0.7554 -0.6338  0.5260
  105MOL   H13414902   3.174   2.435   0.108  0.7102  2.3152  2.0503
  105MOL   C13514903   3.344   2.507   7.730 -0.4951  0.1477  0.2574
  105MOL   C13614904   3.428   2.593   0.061 -0.1367  0.1106  0.0763
  105MOL   O13714905   3.384   2.574   0.191 -0.4073 -0.5114  0.1555
  105MOL   H13814906   3.356   2.401   7.756  2.0638  0.4877  0.5875
  105MOL   H13914907   3.393   2.524   7.634  0.5004  2.1434  1.0988
  105MOL   H14014908   3.443   2.695   0.025 -3.1894  0.2260 -1.0093
  105MOL   H14114909   3.526   2.545   0.059 -0.7678 -1.1567 -0.9288
  105MOL   H14214910   3.302   2.622   0.187  1.2829  2.4746  0.3074
  106MOL     C114911   4.750   4.542   3.060 -0.5953 -0.5267 -0.0569
  106MOL     C214912   4.802   4.421   3.140 -0.0756  0.0681  0.4800
  106MOL     O314913   4.888   4.473   3.250  0.2083  0.2277  0.1064
  106MOL     H414914   4.664   4.581   3.116 -0.4606  1.1018 -0.9408
  106MOL     H514915   4.721   4.516   2.958  1.8781 -0.4858 -0.8029
  106MOL     H614916   4.872   4.359   3.084 -0.4645 -0.3122  0.4160
  106MOL     H714917   4.714   4.362   3.167 -1.0823  1.4699  0.3275
  106MOL     H814918   4.833   4.611   3.046 -1.3946  0.4513 -0.0747
  106MOL     C914919   4.923   4.365   3.338 -0.1264 -0.0623  0.0347
  106MOL    C1014920   5.073   4.325   3.335 -0.5992  0.0088 -0.2153
  106MOL    O1114921   5.093   4.222   3.243  0.2513 -0.3366  0.0736
  106MOL    H1214922   4.900   4.385   3.443  1.4073  1.4354  0.1110
  106MOL    H1314923   4.865   4.276   3.317 -0.1843  0.0734 -0.3767
  106MOL    H1414924   5.104   4.291   3.434  1.8080  0.0522 -0.9144
  106MOL    H1514925   5.137   4.411   3.314  0.5675 -0.9833 -0.8253
  106MOL    C1614926   5.231   4.189   3.226 -0.4991 -0.1800 -0.6309
  106MOL    C1714927   5.257   4.075   3.130 -0.2275  0.4248  0.0152
  106MOL    O1814928   5.235   4.094   2.991  0.1870  0.1588  0.4385
  106MOL    H1914929   5.270   4.287   3.197  0.8063 -0.5789 -0.2606
  106MOL    H2014930   5.266   4.165   3.326 -1.1267 -0.8129 -0.5553
  106MOL    H2114931   5.202   3.987   3.164 -0.7186  1.2804  1.4566
  106MOL    H2214932   5.365   4.060   3.136 -0.4814 -1.2190  0.9995
  106MOL    C2314933   5.264   3.972   2.915 -0.2641  0.2385  0.6014
  106MOL    C2414934   5.276   4.011   2.766  0.0257 -0.1901 -0.2733
  106MOL    O2514935   5.146   4.018   2.707  0.7645  0.8257 -0.2377
  106MOL    H2614936   5.354   3.915   2.939  0.0251 -0.7101 -2.5262
  106MOL    H2714937   5.181   3.902   2.932 -1.5874  1.5404 -0.4022
  106MOL    H2814938   5.326   3.937   2.703 -2.0062 -1.1126 -0.8528
  106MOL    H2914939   5.344   4.095   2.761 -1.0261  0.6392 -0.7919
  106MOL    C3014940   5.154   4.055   2.569 -0.1921 -0.1927  0.4825
  106MOL    C3114941   5.022   4.049   2.501 -0.0997 -0.0548  0.5122
  106MOL    O3214942   4.978   3.914   2.481  0.0590  0.4661  0.0331
  106MOL    H3314943   5.199   4.153   2.554  0.7397 -0.5790  0.7218
  106MOL    H3414944   5.220   3.980   2.526  0.9736 -0.3481  2.4593
  106MOL    H3514945   5.045   4.098   2.407 -0.3003 -0.6867  0.1302
  106MOL    H3614946   4.946   4.111   2.548  0.6016  2.7103 -1.8850
  106MOL    C3714947   4.843   3.896   2.435 -0.4237  0.4612 -0.1987
  106MOL    C3814948   4.820   3.750   2.406 -1.0138 -0.4878 -0.4967
  106MOL    O3914949   4.872   3.715   2.277 -0.4175 -0.2444  0.0050
  106MOL    H4014950   4.767   3.925   2.508  0.4230  4.1432 -0.6676
  106MOL    H4114951   4.812   3.957   2.351  0.5362 -0.0591 -0.9424
  106MOL    H4214952   4.716   3.716   2.414 -1.4759  1.0768  0.2866
  106MOL    H4314953   4.867   3.695   2.487 -2.0803  3.8835  3.3227
  106MOL    C4414954   5.002   3.684   2.255  0.6076  0.5813  0.1161
  106MOL    C4514955   5.029   3.690   2.108 -0.0883 -0.6720 -0.3764
  106MOL    O4614956   5.073   3.814   2.065  0.0460 -0.7051  0.0372
  106MOL    H4714957   5.080   3.732   2.313 -0.1619 -0.1934  1.8344
  106MOL    H4814958   5.009   3.581   2.292 -0.3579  0.2207 -0.6891
  106MOL    H4914959   4.952   3.644   2.046 -0.9478 -1.0927  0.9891
  106MOL    H5014960   5.113   3.625   2.080 -1.5861 -2.2475 -1.3510
  106MOL    C5114961   4.975   3.916   2.078  0.5916 -0.2106 -0.2910
  106MOL    C5214962   4.997   4.021   1.974 -0.0821  0.1099 -0.5764
  106MOL    O5314963   4.966   3.964   1.844  0.2237 -0.3617  0.1141
  106MOL    H5414964   4.875   3.873   2.068  0.4578 -0.0287  0.2545
  106MOL    H5514965   4.986   3.962   2.176  1.0021  0.5997 -0.7097
  106MOL    H5614966   5.096   4.065   1.968 -1.0677  2.6898  1.0617
  106MOL    H5714967   4.923   4.100   1.988 -2.3788 -1.5408 -2.9380
  106MOL    C5814968   4.964   4.059   1.742  0.0677  0.1471  0.1699
  106MOL    C5914969   4.918   3.996   1.609 -0.3158 -0.1864  0.5963
  106MOL    O6014970   4.791   3.934   1.604  0.2943 -0.2093  0.1139
  106MOL    H6114971   4.891   4.136   1.769 -1.0442 -0.4356 -1.1135
  106MOL    H6214972   5.053   4.121   1.730 -1.0723  2.5532  3.2696
  106MOL    H6314973   4.994   3.929   1.567 -1.6344 -0.6663 -1.0631
  106MOL    H6414974   4.921   4.080   1.540 -1.2941  0.0718  0.8651
  106MOL    C6514975   4.686   4.019   1.645 -0.3418  0.0691 -0.5963
  106MOL    C6614976   4.561   3.945   1.617 -0.3892  0.1906 -0.5231
  106MOL    O6714977   4.440   3.997   1.674 -0.0653 -0.4803 -0.5224
  106MOL    H6814978   4.689   4.044   1.751 -0.8925  0.3126 -0.6377
  106MOL    H6914979   4.675   4.107   1.582 -0.1336  0.3851 -0.1924
  106MOL    H7014980   4.568   3.842   1.651  1.0793  0.3908 -0.1985
  106MOL    H7114981   4.547   3.940   1.509  1.2703  0.6272 -0.7717
  106MOL    C7214982   4.328   3.927   1.630  0.0254 -0.3044  1.0560
  106MOL    C7314983   4.206   4.003   1.687 -0.6104 -0.4212  0.0811
  106MOL    O7414984   4.192   3.984   1.829  0.3203  0.0657  0.3890
  106MOL    H7514985   4.317   3.931   1.521  2.1031  1.4298  0.8752
  106MOL    H7614986   4.336   3.822   1.660  0.1353 -0.3600  0.8348
  106MOL    H7714987   4.119   3.957   1.640  0.2511 -2.0177  0.0037
  106MOL    H7814988   4.215   4.107   1.659 -0.2344 -0.1904  1.0389
  106MOL    C7914989   4.096   4.075   1.874 -0.0243 -0.5209  0.0154
  106MOL    C8014990   4.098   4.074   2.023  0.4949  0.4253  0.7156
  106MOL    O8114991   4.008   3.967   2.066 -0.3053 -0.0558 -0.1739
  106MOL    H8214992   4.116   4.177   1.842 -1.5946  0.0487  0.8298
  106MOL    H8314993   3.999   4.054   1.829 -0.3553 -1.0465  0.9655
  106MOL    H8414994   4.052   4.168   2.056 -2.4823 -0.2156 -1.3796
  106MOL    H8514995   4.202   4.057   2.051  0.1415 -0.6352  1.4294
  106MOL    C8614996   4.007   3.954   2.203 -0.6943 -0.1683 -0.6079
  106MOL    C8714997   3.920   3.837   2.252  0.0524  0.3610  0.5349
  106MOL    O8814998   3.789   3.837   2.198 -0.0101 -0.4218 -0.7200
  106MOL    H8914999   4.109   3.936   2.236 -0.6088 -0.8111 -1.2220
  106MOL    H9015000   3.975   4.044   2.257  1.2586  0.4691 -0.4943
  106MOL    H9115001   3.917   3.820   2.360 -1.4539 -2.8201  0.0376
  106MOL    H9215002   3.962   3.749   2.204  1.6172  0.0727  2.3865
  106MOL    C9315003   3.693   3.745   2.257  0.9367 -0.3631  0.4276
  106MOL    C9415004   3.551   3.808   2.218  0.0022 -0.3850 -0.2003
  106MOL    O9515005   3.494   3.876   2.329  0.3006 -0.7085 -0.1216
  106MOL    H9615006   3.684   3.648   2.208 -1.1904  0.5879 -1.1433
  106MOL    H9715007   3.698   3.734   2.365  1.2333  0.3985  0.4969
  106MOL    H9815008   3.480   3.726   2.205 -1.6187  1.0074 -0.2985
  106MOL    H9915009   3.561   3.867   2.128 -2.1205 -2.0355 -1.5795
  106MOL   C10015010   3.553   4.007   2.345 -0.7965 -0.3114  0.1396
  106MOL   C10115011   3.546   4.049   2.491 -0.0815  0.3605 -0.4479
  106MOL   O10215012   3.596   4.184   2.507  0.2849  0.3454 -0.2817
  106MOL   H10315013   3.655   4.020   2.311 -0.5747 -2.5829 -0.1787
  106MOL   H10415014   3.494   4.077   2.286 -1.6338 -1.0594  0.0671
  106MOL   H10515015   3.598   3.972   2.548 -0.6562 -0.7135 -1.3850
  106MOL   H10615016   3.446   4.034   2.531 -0.0297  0.8511 -0.1320
  106MOL   C10715017   3.735   4.201   2.511 -0.0899 -0.4813  0.2235
  106MOL   C10815018   3.772   4.349   2.542  0.8868 -0.8064 -0.3385
  106MOL   O10915019   3.714   4.433   2.443 -0.0858  0.3642  0.2356
  106MOL   H11015020   3.780   4.133   2.583  1.9073  0.4824 -0.0921
  106MOL   H11115021   3.783   4.179   2.416 -0.3906 -0.8112  0.1431
  106MOL   H11215022   3.880   4.354   2.546  0.9655  0.9796 -3.3218
  106MOL   H11315023   3.744   4.367   2.646 -0.0203  0.3831 -0.7824
  106MOL   C11415024   3.759   4.564   2.465 -0.1827 -0.1469  0.1351
  106MOL   C11515025   3.723   4.667   2.355  0.2319  0.3702 -0.0043
  106MOL   O11615026   3.819   4.675   2.256 -0.5803 -0.3035  0.1543
  106MOL   H11715027   3.730   4.598   2.564 -0.0859  1.5061 -0.3870
  106MOL   H11815028   3.868   4.565   2.463 -0.1693  2.2978  0.6821
  106MOL   H11915029   3.722   4.768   2.396 -1.9238  1.7097 -3.0861
  106MOL   H12015030   3.626   4.645   2.310 -1.0164 -0.1919  2.8868
  106MOL   C12115031   3.780   4.698   2.118  0.2460  0.3352  0.1102
  106MOL   C12215032   3.673   4.810   2.103 -0.2139  0.3693  0.5316
  106MOL   O12315033   3.670   4.840   1.966 -0.1148 -0.3566 -0.4929
  106MOL   H12415034   3.871   4.724   2.064  0.5731 -2.0525 -0.5631
  106MOL   H12515035   3.736   4.613   2.066 -2.9766  1.7185  0.4776
  106MOL   H12615036   3.710   4.896   2.159  2.5880 -0.4219 -0.0497
  106MOL   H12715037   3.578   4.790   2.154 -0.0033 -0.2143  0.6992
  106MOL   C12815038   3.623   4.974   1.945  0.2348 -0.3283  0.2122
  106MOL   C12915039   3.619   5.001   1.792 -0.4116  0.3535 -0.6453
  106MOL   O13015040   3.508   4.941   1.732  0.3796 -0.2433 -0.2119
  106MOL   H13115041   3.529   4.978   2.000  0.7403 -1.1754  1.1403
  106MOL   H13215042   3.683   5.053   1.990 -0.2360 -0.8511  1.7689
  106MOL   H13315043   3.697   4.953   1.733  0.3341 -1.1314  1.4935
  106MOL   H13415044   3.619   5.108   1.775  1.0290  0.5150  0.2783
  106MOL   C13515045   3.474   5.005   1.606 -0.3478 -0.1292 -0.6923
  106MOL   C13615046   3.358   4.928   1.540 -0.7433 -0.1733  0.1331
  106MOL   O13715047   3.322   4.962   1.410 -0.2816  0.8017 -0.3030
  106MOL   H13815048   3.446   5.110   1.619  2.3682  0.2743  2.5930
  106MOL   H13915049   3.564   5.002   1.546  0.9508 -0.7332  1.2402
  106MOL   H14015050   3.276   4.911   1.609 -0.2363  0.5556  0.9257
  106MOL   H14115051   3.395   4.827   1.524  0.6885  0.5099 -1.0667
  106MOL   H14215052   3.402   4.950   1.362  1.4886  2.1194  2.1836
  107MOL     C115053   3.422   1.088   5.476 -0.4135  0.3073 -0.6158
  107MOL     C215054   3.345   1.065   5.606 -0.4109 -0.3277  0.0698
  107MOL     O315055   3.401   1.143   5.710  0.1738 -0.1225 -0.1522
  107MOL     H415056   3.401   1.185   5.432  1.5332  0.4264 -1.3181
  107MOL     H515057   3.384   1.019   5.401  2.7691 -1.9001 -0.2886
  107MOL     H615058   3.344   0.960   5.637 -0.7811 -0.1973  0.5090
  107MOL     H715059   3.244   1.102   5.594 -0.3719 -0.3947 -0.4517
  107MOL     H815060   3.525   1.065   5.501 -0.3032  0.1647 -1.1958
  107MOL     C915061   3.356   1.118   5.841  0.0192 -0.4510  0.2392
  107MOL    C1015062   3.467   1.159   5.937 -0.2296 -0.1690  0.1657
  107MOL    O1115063   3.509   1.298   5.927 -0.0924  0.1513 -0.4870
  107MOL    H1215064   3.269   1.181   5.861 -0.7611 -0.8635 -1.6657
  107MOL    H1315065   3.328   1.013   5.849 -2.7748  0.1802 -0.3708
  107MOL    H1415066   3.555   1.094   5.925  0.7639  1.2324 -0.2715
  107MOL    H1515067   3.439   1.136   6.040  0.8089 -1.1328  0.2541
  107MOL    C1615068   3.634   1.318   5.996 -0.1147  0.0886 -0.0654
  107MOL    C1715069   3.689   1.466   5.981 -0.6895 -0.4938 -0.2441
  107MOL    O1815070   3.765   1.462   5.858 -0.2142  0.0748 -0.1964
  107MOL    H1915071   3.607   1.303   6.100 -1.1423 -1.7891 -0.5947
  107MOL    H2015072   3.715   1.253   5.964 -1.2944 -0.8670 -1.1709
  107MOL    H2115073   3.777   1.484   6.043  0.6383 -2.8428 -1.3894
  107MOL    H2215074   3.617   1.548   5.981  0.7144  0.7648 -1.7855
  107MOL    C2315075   3.810   1.584   5.826 -0.1008 -0.0686  0.2892
  107MOL    C2415076   3.907   1.562   5.707  0.2215 -0.2992  0.0268
  107MOL    O2515077   4.027   1.495   5.750  0.2434  0.7831  0.6217
  107MOL    H2615078   3.723   1.636   5.787  0.4982  0.4422 -0.3758
  107MOL    H2715079   3.862   1.643   5.902 -1.0436  2.3172 -0.8794
  107MOL    H2815080   3.943   1.661   5.679  0.4606 -0.5044 -0.3945
  107MOL    H2915081   3.855   1.521   5.621 -1.5978  0.0980  0.9039
  107MOL    C3015082   4.141   1.526   5.676  0.7721  1.0496  0.0577
  107MOL    C3115083   4.216   1.626   5.754  0.0024 -0.0198  0.3129
  107MOL    O3215084   4.176   1.755   5.715  0.4227 -0.4289  0.3326
  107MOL    H3315085   4.188   1.429   5.664  0.4345  0.9377 -0.3279
  107MOL    H3415086   4.121   1.564   5.576  1.0267  0.4037 -0.2382
  107MOL    H3515087   4.322   1.614   5.731  0.2994  1.3626  0.9345
  107MOL    H3615088   4.200   1.607   5.860  0.5106 -0.9884  0.2180
  107MOL    C3715089   4.216   1.857   5.803  0.1345  0.9076 -0.2423
  107MOL    C3815090   4.163   1.999   5.772 -0.2699 -0.3177 -0.3740
  107MOL    O3915091   4.020   1.995   5.755  0.0573 -0.5954  0.9078
  107MOL    H4015092   4.188   1.830   5.905  2.5597 -0.4577  0.0988
  107MOL    H4115093   4.324   1.860   5.811  0.3067  0.1708 -2.0339
  107MOL    H4215094   4.221   2.035   5.687  0.5279  0.9100  0.6787
  107MOL    H4315095   4.186   2.068   5.852  0.3710 -2.0036  0.9223
  107MOL    C4415096   3.939   1.961   5.862  0.0036 -0.0153  0.6062
  107MOL    C4515097   3.928   2.063   5.972  0.3902  0.7482  0.0598
  107MOL    O4615098   4.042   2.056   6.058  0.0480  0.2474 -0.0368
  107MOL    H4715099   3.840   1.960   5.817 -0.2985  0.2395  1.2479
  107MOL    H4815100   3.960   1.861   5.899 -2.2782 -0.3854  0.9646
  107MOL    H4915101   3.837   2.044   6.028 -0.1569  1.5198 -0.5656
  107MOL    H5015102   3.929   2.167   5.938 -1.1831  1.6900  2.7201
  107MOL    C5115103   4.029   2.137   6.177 -0.3612 -0.4823 -0.2449
  107MOL    C5215104   4.075   2.284   6.164  0.2363 -0.4142 -0.1238
  107MOL    O5315105   4.218   2.293   6.146 -0.9655 -0.6325  0.0011
  107MOL    H5415106   3.925   2.133   6.211 -0.2933 -0.5574 -0.0422
  107MOL    H5515107   4.071   2.089   6.265  0.2936  5.2673  2.8582
  107MOL    H5615108   4.054   2.344   6.252  1.2252 -0.7282  0.3426
  107MOL    H5715109   4.024   2.329   6.079  2.0651  1.2441 -0.3667
  107MOL    C5815110   4.265   2.429   6.143  0.3145 -0.0057  1.2407
  107MOL    C5915111   4.309   2.478   6.281 -0.4144  0.6256 -0.0191
  107MOL    O6015112   4.201   2.560   6.329  0.1442  0.3647  0.6860
  107MOL    H6115113   4.347   2.430   6.072  0.2431  0.6652  1.1620
  107MOL    H6215114   4.192   2.495   6.096 -0.1792  0.0933  2.1154
  107MOL    H6315115   4.398   2.540   6.278 -0.1150  0.2265  0.5163
  107MOL    H6415116   4.332   2.392   6.344 -1.0408 -0.7298 -1.6274
  107MOL    C6515117   4.230   2.656   6.429  0.3678  0.8057 -0.7874
  107MOL    C6615118   4.110   2.739   6.461  1.1853  0.6538  0.8125
  107MOL    O6715119   4.148   2.859   6.515  0.3231  0.2441 -0.0514
  107MOL    H6815120   4.269   2.614   6.522 -0.3847  3.0247  0.5899
  107MOL    H6915121   4.312   2.719   6.394  0.3626  1.7717  0.8405
  107MOL    H7015122   4.047   2.679   6.527 -1.5113  1.4855 -0.8879
  107MOL    H7115123   4.056   2.756   6.367 -0.9790  1.8392  2.2298
  107MOL    C7215124   4.032   2.936   6.568 -0.6817  0.1814 -0.5508
  107MOL    C7315125   4.084   3.082   6.596  0.2982 -0.3226  0.5326
  107MOL    O7415126   3.990   3.185   6.567 -0.1454  0.1167  0.2963
  107MOL    H7515127   3.944   2.941   6.504 -0.8663  0.3485 -0.2874
  107MOL    H7615128   3.985   2.893   6.657 -0.7999 -0.0420 -0.7213
  107MOL    H7715129   4.175   3.098   6.539  0.4490 -1.0441  0.5624
  107MOL    H7815130   4.122   3.097   6.697  0.4609 -0.7017  0.5310
  107MOL    C7915131   4.018   3.308   6.632  0.0899 -0.0980 -0.7188
  107MOL    C8015132   3.907   3.406   6.595 -0.3068  0.1775 -0.0850
  107MOL    O8115133   3.794   3.373   6.677 -0.4245  0.2445  0.0819
  107MOL    H8215134   4.035   3.290   6.738  1.6864 -2.0931 -1.2779
  107MOL    H8315135   4.114   3.347   6.600  0.9706 -0.4457  1.4223
  107MOL    H8415136   3.882   3.400   6.490 -0.5221  2.0681 -0.1691
  107MOL    H8515137   3.946   3.507   6.609  2.2536 -0.4097 -2.5000
  107MOL    C8615138   3.684   3.463   6.650 -0.1765  0.1230  0.0884
  107MOL    C8715139   3.575   3.433   6.751  0.1140  0.2645 -0.0950
  107MOL    O8815140   3.592   3.519   6.863  0.0439 -0.2518  0.2963
  107MOL    H8915141   3.721   3.566   6.649  1.2004 -0.3532  0.8517
  107MOL    H9015142   3.641   3.437   6.554  0.2265 -0.8667  0.1677
  107MOL    H9115143   3.581   3.330   6.786 -0.2276  0.2412 -0.1042
  107MOL    H9215144   3.477   3.447   6.705 -0.6583 -1.5853  0.9424
  107MOL    C9315145   3.589   3.455   6.985  0.7183  0.0154 -0.2081
  107MOL    C9415146   3.575   3.555   7.108 -0.0713 -0.3194  0.5323
  107MOL    O9515147   3.705   3.577   7.165  0.1877  0.5737 -0.0157
  107MOL    H9615148   3.495   3.400   7.001  0.9854  0.1506  2.0694
  107MOL    H9715149   3.669   3.382   6.995  2.2969  1.7052 -0.3007
  107MOL    H9815150   3.528   3.516   7.197  0.0797 -0.9666  0.3324
  107MOL    H9915151   3.529   3.651   7.082  2.2940  0.5634 -0.5990
  107MOL   C10015152   3.731   3.705   7.201 -0.0065 -0.6455 -0.9894
  107MOL   C10115153   3.870   3.743   7.249  0.1927  0.8113 -0.2336
  107MOL   O10215154   3.907   3.879   7.238 -0.2454 -0.1329  0.3323
  107MOL   H10315155   3.718   3.782   7.126  1.8894  1.9520  1.2533
  107MOL   H10415156   3.652   3.735   7.270 -0.0223 -0.0321 -1.2726
  107MOL   H10515157   3.944   3.681   7.197  0.5799  0.7762  0.3528
  107MOL   H10615158   3.859   3.729   7.357  1.5131 -1.9532 -0.4073
  107MOL   C10715159   4.037   3.912   7.294  0.0542  0.9209 -1.3839
  107MOL   C10815160   4.056   4.058   7.318  0.2861 -0.8396 -0.1307
  107MOL   O10915161   4.056   4.119   7.190 -0.1851 -0.2808 -0.1099
  107MOL   H11015162   4.048   3.855   7.386 -1.1241 -0.8044 -2.2763
  107MOL   H11115163   4.114   3.871   7.228  0.5455 -0.6612  0.1068
  107MOL   H11215164   4.147   4.085   7.371 -0.2587  0.6347  0.0577
  107MOL   H11315165   3.991   4.105   7.392  2.8707  2.0950  0.3578
  107MOL   C11415166   4.064   4.266   7.199  0.4920  0.4249  0.2052
  107MOL   C11515167   4.085   4.342   7.061  0.1250 -0.1347 -0.5932
  107MOL   O11615168   4.101   4.482   7.096 -0.1337  0.0946  0.4616
  107MOL   H11715169   3.966   4.291   7.239 -0.5391 -0.7414 -1.5177
  107MOL   H11815170   4.152   4.276   7.263 -0.4029  1.1082  1.3304
  107MOL   H11915171   3.997   4.334   6.997 -1.7220  0.9012  1.7490
  107MOL   H12015172   4.175   4.303   7.011  0.3057  1.5786 -1.6490
  107MOL   C12115173   4.124   4.556   6.979  0.2797 -0.3507  0.1804
  107MOL   C12215174   4.143   4.708   7.016  0.0295 -0.1306 -0.1682
  107MOL   O12315175   4.186   4.785   6.897 -0.0668 -0.4234 -0.4062
  107MOL   H12415176   4.213   4.521   6.926  0.2078  1.2044 -1.0324
  107MOL   H12515177   4.035   4.534   6.920  1.2948 -2.6670 -0.5530
  107MOL   H12615178   4.225   4.710   7.087  0.9828 -0.3729 -1.2434
  107MOL   H12715179   4.058   4.756   7.065  0.0377 -2.7650  2.5499
  107MOL   C12815180   4.154   4.922   6.915 -0.5556  0.1068  0.4947
  107MOL   C12915181   4.234   5.003   6.821 -0.2496 -0.3465  0.0889
  107MOL   O13015182   4.169   4.992   6.698 -0.2119 -0.2285  0.7906
  107MOL   H13115183   4.045   4.928   6.904 -0.5925 -1.3140 -0.1303
  107MOL   H13215184   4.172   4.957   7.017  0.8324  0.0459  0.2707
  107MOL   H13315185   4.335   4.964   6.831  0.2259  0.7316 -0.4757
  107MOL   H13415186   4.224   5.109   6.846  0.4308 -0.7843  2.3220
  107MOL   C13515187   4.246   5.052   6.596 -0.5409  0.3809  0.3535
  107MOL   C13615188   4.157   5.068   6.474  0.2553  0.6797  0.4503
  107MOL   O13715189   4.061   5.170   6.518  0.0282  0.4203  0.2326
  107MOL   H13815190   4.303   5.142   6.618  3.5936 -1.8466 -0.6831
  107MOL   H13915191   4.325   4.978   6.588 -0.7523  0.1710  0.2108
  107MOL   H14015192   4.101   4.976   6.454  2.7784 -0.1835 -3.1042
  107MOL   H14115193   4.220   5.100   6.391 -2.1478 -0.7041 -1.9892
  107MOL   H14215194   4.014   5.132   6.591 -0.6584  0.9127  0.0523
  108MOL     C115195   6.207   5.833   1.648 -0.0076  0.0399 -0.2550
  108MOL     C215196   6.353   5.801   1.616 -0.0847  0.6210 -0.6043
  108MOL     O315197   6.373   5.798   1.475 -0.4548  0.2305  0.4438
  108MOL     H415198   6.169   5.922   1.599 -1.3359 -0.0910  0.5183
  108MOL     H515199   6.200   5.853   1.755 -2.4926 -1.1060 -0.1739
  108MOL     H615200   6.362   5.702   1.662  0.8526  0.2948 -1.4551
  108MOL     H715201   6.420   5.873   1.660  2.3188 -2.1523  0.4308
  108MOL     H815202   6.136   5.752   1.633 -0.3913  0.2538  0.3820
  108MOL     C915203   6.485   5.733   1.431 -0.8799  0.9026  0.0904
  108MOL    C1015204   6.489   5.723   1.284 -0.3171  0.2420 -0.0940
  108MOL    O1115205   6.493   5.844   1.221  0.5497  0.0303  0.3165
  108MOL    H1215206   6.578   5.774   1.472 -1.8704  3.3601 -0.0252
  108MOL    H1315207   6.483   5.631   1.468 -1.0345  1.1129  0.6690
  108MOL    H1415208   6.399   5.675   1.245 -0.1102 -1.0742  1.0390
  108MOL    H1515209   6.561   5.646   1.256 -1.3955 -0.5915 -0.6140
  108MOL    C1615210   6.607   5.924   1.240 -0.0419 -0.0100  0.1380
  108MOL    C1715211   6.591   6.065   1.160  0.1440  0.1003 -0.5667
  108MOL    O1815212   6.636   6.047   1.028  0.4823 -0.3727  0.2400
  108MOL    H1915213   6.611   5.959   1.343 -1.6940  3.8007 -1.0168
  108MOL    H2015214   6.699   5.872   1.214 -0.1329 -0.0651 -0.0792
  108MOL    H2115215   6.648   6.144   1.208  4.3329 -2.1976 -1.5386
  108MOL    H2215216   6.487   6.097   1.150 -0.1416 -0.9269 -0.8871
  108MOL    C2315217   6.569   5.945   0.944  0.0377  0.0419 -0.5667
  108MOL    C2415218   6.616   5.949   0.796 -0.0313  0.2015 -0.7295
  108MOL    O2515219   6.605   5.823   0.744  0.4814 -0.1421  0.4000
  108MOL    H2615220   6.585   5.844   0.980  2.1433  0.4373 -0.3461
  108MOL    H2715221   6.462   5.966   0.939 -0.5031 -1.7513  2.0619
  108MOL    H2815222   6.712   6.000   0.785 -0.4121  1.1121  0.0641
  108MOL    H2915223   6.547   6.010   0.738  1.8272  2.8271 -0.2910
  108MOL    C3015224   6.669   5.811   0.618  0.2051  0.2802 -0.1255
  108MOL    C3115225   6.682   5.670   0.569 -0.2907  0.1584  0.4455
  108MOL    O3215226   6.763   5.596   0.655 -0.4876  0.6573  0.3336
  108MOL    H3315227   6.614   5.866   0.542 -1.5868 -3.4784 -1.6597
  108MOL    H3415228   6.767   5.859   0.613  0.7091 -0.9445 -2.8124
  108MOL    H3515229   6.719   5.679   0.467  0.2476  0.0684  0.6278
  108MOL    H3615230   6.585   5.622   0.559 -0.8473  1.6065 -1.4012
  108MOL    C3715231   6.791   5.466   0.601  0.0600  0.3594  0.1774
  108MOL    C3815232   6.893   5.392   0.679  0.2393  0.0446  0.2014
  108MOL    O3915233   6.832   5.353   0.797  0.2557 -0.5579  0.4003
  108MOL    H4015234   6.706   5.398   0.598  0.5500 -0.3280  1.2386
  108MOL    H4115235   6.823   5.481   0.498 -2.8832 -0.7434 -0.9309
  108MOL    H4215236   6.980   5.454   0.701  0.7328 -0.6299  0.1335
  108MOL    H4315237   6.928   5.308   0.620 -0.3936 -0.1274  0.0580
  108MOL    C4415238   6.913   5.293   0.892  0.0284 -0.1411  0.9331
  108MOL    C4515239   6.986   5.161   0.852 -0.3129  0.3254 -0.2101
  108MOL    O4615240   6.887   5.058   0.874 -0.6710  0.7139 -0.3532
  108MOL    H4715241   6.984   5.369   0.925 -0.9005  2.7847 -3.4102
  108MOL    H4815242   6.851   5.270   0.979  0.5058 -2.4910  0.6932
  108MOL    H4915243   7.063   5.141   0.927 -0.3198  2.1130  0.2992
  108MOL    H5015244   7.022   5.155   0.750 -0.4315 -2.4412 -0.1425
  108MOL    C5115245   6.782   5.040   0.786 -0.5447 -0.1706  0.5066
  108MOL    C5215246   6.677   4.959   0.849  0.5923  0.4634  0.6967
  108MOL    O5315247   6.596   5.030   0.944  0.5563 -0.0162  0.3014
  108MOL    H5415248   6.740   5.129   0.739 -1.4625 -0.4950  0.7039
  108MOL    H5515249   6.833   4.993   0.702 -2.8207 -0.1145 -0.9283
  108MOL    H5615250   6.730   4.872   0.888  1.8112  1.1497  0.6099
  108MOL    H5715251   6.608   4.921   0.774 -0.9383  0.0901  2.2747
  108MOL    C5815252   6.499   4.952   1.017 -0.4433  0.4004  0.0006
  108MOL    C5915253   6.386   4.874   0.937 -0.2566  0.4940  0.2583
  108MOL    O6015254   6.396   4.734   0.945  0.4771 -0.3652 -0.4499
  108MOL    H6115255   6.552   4.892   1.091 -2.4555 -2.3232 -0.7175
  108MOL    H6215256   6.460   5.028   1.085 -1.0537 -0.7641  0.9803
  108MOL    H6315257   6.393   4.893   0.830 -0.6971  0.6348  0.2518
  108MOL    H6415258   6.288   4.903   0.976 -0.3057  0.2710  0.3037
  108MOL    C6515259   6.273   4.670   0.922  0.5474  0.6480  0.2403
  108MOL    C6615260   6.285   4.516   0.902  0.4373 -0.0679  0.0965
  108MOL    O6715261   6.290   4.455   1.033  0.3201  0.3938 -0.4873
  108MOL    H6815262   6.193   4.691   0.992  0.5632 -3.5585  1.6018
  108MOL    H6915263   6.249   4.703   0.821 -0.7860  0.3476  0.4604
  108MOL    H7015264   6.371   4.480   0.846  0.7560 -0.2954  0.7221
  108MOL    H7115265   6.192   4.488   0.853 -0.3666  1.4382  0.7191
  108MOL    C7215266   6.312   4.314   1.029 -0.0013  0.0393 -0.3524
  108MOL    C7315267   6.373   4.283   1.164  0.2130 -0.0691  0.1449
  108MOL    O7415268   6.281   4.317   1.265 -0.4358  0.0656 -0.9772
  108MOL    H7515269   6.208   4.284   1.019 -0.1695  0.5227 -0.0884
  108MOL    H7615270   6.368   4.287   0.940 -1.6686  0.9203 -1.6804
  108MOL    H7715271   6.467   4.335   1.184  0.8158 -0.5283 -1.4134
  108MOL    H7815272   6.385   4.176   1.176  1.0691  0.1703  1.5744
  108MOL    C7915273   6.333   4.300   1.399 -0.9166  0.5218  0.0929
  108MOL    C8015274   6.248   4.362   1.502 -0.6785  0.2305 -0.4807
  108MOL    O8115275   6.286   4.501   1.505 -0.4303 -0.0511 -0.5129
  108MOL    H8215276   6.356   4.195   1.418 -0.6498  0.5201 -0.2424
  108MOL    H8315277   6.429   4.346   1.421 -1.1876  1.1212  0.0291
  108MOL    H8415278   6.263   4.308   1.595  3.2565 -1.4808 -2.0366
  108MOL    H8515279   6.141   4.358   1.481 -0.8710 -1.6602  0.7281
  108MOL    C8615280   6.278   4.550   1.641  0.0931 -0.4853 -0.3379
  108MOL    C8715281   6.314   4.698   1.652 -0.1146  0.4725  0.2267
  108MOL    O8815282   6.258   4.744   1.778  0.1651  0.3605  0.2686
  108MOL    H8915283   6.178   4.537   1.682 -0.1864  0.9755 -0.5343
  108MOL    H9015284   6.340   4.496   1.712 -0.3167 -0.1136  0.3014
  108MOL    H9115285   6.286   4.758   1.565 -0.0036 -0.3749 -0.4061
  108MOL    H9215286   6.421   4.694   1.670 -0.6915 -0.4613  3.7343
  108MOL    C9315287   6.300   4.877   1.806  0.3937 -0.5341 -0.1370
  108MOL    C9415288   6.442   4.886   1.866 -0.4827 -0.3427 -0.1805
  108MOL    O9515289   6.432   4.848   2.000  0.2234  0.1451 -0.2365
  108MOL    H9615290   6.289   4.941   1.718  0.3430  0.8323  0.8421
  108MOL    H9715291   6.230   4.927   1.874 -0.3411 -0.6663 -0.7877
  108MOL    H9815292   6.467   4.992   1.865  0.8337 -0.5900  2.3537
  108MOL    H9915293   6.510   4.821   1.811 -0.5419 -0.6434  0.1009
  108MOL   C10015294   6.550   4.880   2.065 -0.7267 -0.5220  0.1397
  108MOL   C10115295   6.558   4.792   2.189  0.4421 -0.7365  0.2723
  108MOL   O10215296   6.491   4.854   2.291 -0.4304 -0.3622  0.8130
  108MOL   H10315297   6.640   4.859   2.007 -0.8292 -1.5290  0.3203
  108MOL   H10415298   6.550   4.986   2.086  0.4580 -0.6983  1.0213
  108MOL   H10515299   6.665   4.786   2.209  0.3962  0.8999  1.1093
  108MOL   H10615300   6.527   4.690   2.166  2.3955 -0.8034 -2.1859
  108MOL   C10715301   6.501   4.775   2.410 -0.4860  0.3807  0.3092
  108MOL   C10815302   6.505   4.860   2.537  0.2893  0.2950  0.4392
  108MOL   O10915303   6.381   4.918   2.573  0.0315 -0.6699 -0.2783
  108MOL   H11015304   6.408   4.719   2.415 -0.0636 -0.3744 -0.1684
  108MOL   H11115305   6.583   4.703   2.404 -0.7454  0.1649 -0.7171
  108MOL   H11215306   6.588   4.930   2.546 -0.9027  1.7596  0.3009
  108MOL   H11315307   6.522   4.788   2.617 -0.3406  0.5214  0.7773
  108MOL   C11415308   6.281   4.829   2.618 -0.7051 -0.3116 -0.3199
  108MOL   C11515309   6.169   4.915   2.679 -0.9134  0.2404  0.3093
  108MOL   O11615310   6.210   4.963   2.803 -0.3319 -0.2220  0.0667
  108MOL   H11715311   6.242   4.774   2.532  0.9091 -1.7227 -0.1871
  108MOL   H11815312   6.320   4.756   2.688  0.2234 -0.7403 -1.2590
  108MOL   H11915313   6.078   4.856   2.686  0.4711 -2.1498 -0.9086
  108MOL   H12015314   6.144   4.998   2.613 -0.9534 -0.6437 -0.7971
  108MOL   C12115315   6.115   4.985   2.901 -0.6014 -0.2214  0.2609
  108MOL   C12215316   6.190   5.012   3.028  0.3082  0.0079  0.0546
  108MOL   O12315317   6.200   4.888   3.097  0.0597  0.1653  0.0214
  108MOL   H12415318   6.058   5.074   2.874 -0.5470 -1.1965 -3.2801
  108MOL   H12515319   6.058   4.892   2.905 -1.0076 -0.1401 -2.8958
  108MOL   H12615320   6.121   5.070   3.090  1.7785  0.5511  1.2202
  108MOL   H12715321   6.279   5.072   3.012  2.9609 -3.9492 -0.7213
  108MOL   C12815322   6.243   4.898   3.236  0.0573 -0.6463  0.2093
  108MOL   C12915323   6.179   4.784   3.317  0.9133 -0.4776 -0.6236
  108MOL   O13015324   6.053   4.826   3.365 -0.8086 -0.4775  0.3277
  108MOL   H13115325   6.349   4.878   3.247  0.1369  0.3954  1.4388
  108MOL   H13215326   6.229   4.995   3.282  0.4431 -0.4646 -0.0587
  108MOL   H13315327   6.231   4.758   3.409 -3.1579 -1.3152  1.5653
  108MOL   H13415328   6.174   4.704   3.243  1.9429 -0.2373 -0.9582
  108MOL   C13515329   5.966   4.730   3.415 -0.6006 -0.0008 -0.5731
  108MOL   C13615330   5.831   4.796   3.450  0.0057  0.0356  0.1469
  108MOL   O13715331   5.765   4.832   3.333  0.4618  0.0181  0.3346
  108MOL   H13815332   5.945   4.658   3.335 -0.7970  1.9913 -2.3554
  108MOL   H13915333   6.002   4.675   3.502 -1.3741  0.9663  0.3645
  108MOL   H14015334   5.851   4.880   3.516 -0.7616  0.8417 -0.6432
  108MOL   H14115335   5.772   4.724   3.508  1.2519 -1.8478 -0.8528
  108MOL   H14215336   5.828   4.885   3.286  1.3486 -1.0642  0.2890
  109MOL     C115337   3.945   2.912   5.571 -0.2440 -0.1182 -0.1813
  109MOL     C215338   4.068   3.006   5.541  0.0845 -0.5230  0.5986
  109MOL     O315339   4.077   3.118   5.636 -0.1147  0.1980 -0.4334
  109MOL     H415340   3.949   2.897   5.679  2.5311  1.5760 -0.0180
  109MOL     H515341   3.959   2.813   5.527  1.8993 -0.7661  1.9022
  109MOL     H615342   4.069   3.035   5.436  0.0905 -1.7194  0.2562
  109MOL     H715343   4.154   2.944   5.566 -0.6464 -1.7100  0.2411
  109MOL     H815344   3.845   2.941   5.536 -1.3617 -3.3643  0.1490
  109MOL     C915345   4.168   3.226   5.613 -0.0876 -0.1945  0.2409
  109MOL    C1015346   4.308   3.210   5.689 -0.0587 -0.3983  0.7463
  109MOL    O1115347   4.296   3.251   5.822  0.3995 -0.4180  0.6077
  109MOL    H1215348   4.192   3.248   5.509  1.7763 -2.2904  0.2024
  109MOL    H1315349   4.118   3.316   5.648 -0.6723 -0.4786  0.1385
  109MOL    H1415350   4.389   3.270   5.647  0.1895  1.5739  3.8911
  109MOL    H1515351   4.351   3.110   5.688  1.4371  0.1988  2.8222
  109MOL    C1615352   4.412   3.236   5.896 -0.5456 -0.2954 -0.0130
  109MOL    C1715353   4.407   3.325   6.020  0.3467 -0.4769  0.4540
  109MOL    O1815354   4.457   3.453   6.004 -0.0281  0.4208  0.4869
  109MOL    H1915355   4.419   3.136   5.938 -0.0347 -0.3358 -0.1809
  109MOL    H2015356   4.502   3.266   5.841  0.5102  0.1450  1.8949
  109MOL    H2115357   4.469   3.276   6.095  2.0376  0.2865 -0.4284
  109MOL    H2215358   4.307   3.343   6.060  1.2211  3.0129  1.2353
  109MOL    C2315359   4.434   3.529   6.114  0.0833 -0.3991  0.3733
  109MOL    C2415360   4.519   3.657   6.116 -0.3553 -0.7442  0.2872
  109MOL    O2515361   4.448   3.779   6.078 -0.4347 -0.0756  0.0433
  109MOL    H2615362   4.330   3.562   6.112  0.1455 -0.2088  0.2474
  109MOL    H2715363   4.441   3.479   6.211  0.0758 -1.4112 -0.1479
  109MOL    H2815364   4.603   3.653   6.048 -0.6397 -1.9362 -0.0080
  109MOL    H2915365   4.551   3.668   6.220 -0.7658  1.3248  0.2210
  109MOL    C3015366   4.389   3.771   5.947 -0.2562  0.0511 -0.0850
  109MOL    C3115367   4.321   3.906   5.921  0.3035 -0.2158  0.2940
  109MOL    O3215368   4.419   4.007   5.896  0.3799 -0.3276  0.4798
  109MOL    H3315369   4.464   3.759   5.869 -1.3563  1.7608 -1.4601
  109MOL    H3415370   4.318   3.689   5.942  0.0176 -0.1462 -0.8058
  109MOL    H3515371   4.264   3.922   6.012 -1.2646  0.6605 -0.8106
  109MOL    H3615372   4.250   3.892   5.839 -2.1931 -0.7828  2.4905
  109MOL    C3715373   4.362   4.132   5.864 -0.0780  0.2663  0.5052
  109MOL    C3815374   4.474   4.225   5.820  0.7965  0.6135 -0.6015
  109MOL    O3915375   4.574   4.259   5.915 -0.4365  0.5549  0.0065
  109MOL    H4015376   4.290   4.124   5.784  0.3656  0.2085  0.1086
  109MOL    H4115377   4.321   4.176   5.955  0.9873 -0.7845  1.5266
  109MOL    H4215378   4.429   4.313   5.774  0.8036 -0.0496 -1.8996
  109MOL    H4315379   4.539   4.175   5.747 -1.4044 -0.0837 -2.1469
  109MOL    C4415380   4.682   4.340   5.866 -0.2702 -0.2168  0.2359
  109MOL    C4515381   4.752   4.401   5.986  0.1788  1.0135 -0.3492
  109MOL    O4615382   4.850   4.306   6.015 -0.3757 -0.2344 -0.1863
  109MOL    H4715383   4.737   4.278   5.795 -0.2006  0.0111  0.0921
  109MOL    H4815384   4.637   4.423   5.813 -0.5833 -1.0583 -0.8335
  109MOL    H4915385   4.693   4.427   6.074 -0.9797 -0.5571 -0.6383
  109MOL    H5015386   4.799   4.494   5.955  3.9909 -0.5015  0.6067
  109MOL    C5115387   4.949   4.346   6.104 -0.6768 -0.1106  0.0027
  109MOL    C5215388   4.892   4.345   6.248  0.2134  0.1570 -0.1275
  109MOL    O5315389   4.923   4.453   6.334  0.3868  0.1100 -0.0658
  109MOL    H5415390   5.034   4.278   6.096 -0.1740  0.5362 -0.2230
  109MOL    H5515391   4.995   4.443   6.086  0.0417 -0.0744  1.8405
  109MOL    H5615392   4.919   4.258   6.309  1.1074  2.1051  2.3553
  109MOL    H5715393   4.783   4.340   6.244  0.2502 -0.8164 -0.0934
  109MOL    C5815394   4.870   4.571   6.290  0.5218  0.3199 -0.3883
  109MOL    C5915395   4.926   4.695   6.365  0.2917 -0.1597 -0.4650
  109MOL    O6015396   5.061   4.696   6.327 -0.0635 -0.2784 -0.3156
  109MOL    H6115397   4.887   4.584   6.183  2.3794  0.1301 -0.1439
  109MOL    H6215398   4.763   4.560   6.307  1.0772 -2.0288  2.0627
  109MOL    H6315399   4.919   4.676   6.473 -0.5664 -1.1452 -0.6831
  109MOL    H6415400   4.871   4.786   6.340 -1.0758 -1.0549 -0.7992
  109MOL    C6515401   5.148   4.804   6.374  0.1026  0.2009 -0.1587
  109MOL    C6615402   5.133   4.937   6.295  0.5823  0.2128  0.4541
  109MOL    O6715403   5.002   4.988   6.331 -0.0615 -0.1226 -0.5182
  109MOL    H6815404   5.135   4.820   6.481  2.2666  2.0022 -0.1294
  109MOL    H6915405   5.251   4.771   6.361  0.5566  1.4743  0.2143
  109MOL    H7015406   5.134   4.930   6.187 -1.3591  0.1364  0.4263
  109MOL    H7115407   5.216   5.000   6.326  0.5697  0.0288  0.8814
  109MOL    C7215408   4.972   5.123   6.304  0.4956  0.2878 -0.2220
  109MOL    C7315409   5.034   5.217   6.401  0.4332  0.5422 -0.0011
  109MOL    O7415410   5.160   5.249   6.342  0.1057 -0.1895 -0.0930
  109MOL    H7515411   4.990   5.151   6.200 -2.1788  0.3217 -0.7235
  109MOL    H7615412   4.864   5.136   6.310  0.4220 -1.6386  4.5820
  109MOL    H7715413   5.039   5.173   6.501 -3.4855  0.2619  0.1690
  109MOL    H7815414   4.973   5.308   6.405  1.2386  1.0229  2.8642
  109MOL    C7915415   5.233   5.344   6.415 -0.4900 -0.0086 -0.2426
  109MOL    C8015416   5.201   5.489   6.388  0.6949  0.1365 -0.0037
  109MOL    O8115417   5.256   5.538   6.267 -0.0182  0.4258  0.4468
  109MOL    H8215418   5.221   5.337   6.523  0.1143  0.2899 -0.1553
  109MOL    H8315419   5.339   5.331   6.391 -0.4449  0.4083 -0.2772
  109MOL    H8415420   5.254   5.547   6.463  4.2421 -1.5918 -1.0551
  109MOL    H8515421   5.096   5.503   6.411  0.6258  0.1389 -0.3170
  109MOL    C8615422   5.198   5.659   6.228  0.4178  0.5512 -0.2062
  109MOL    C8715423   5.284   5.738   6.134 -0.1151  0.5466 -0.2026
  109MOL    O8815424   5.260   5.697   5.999 -0.1577 -0.0168  0.3169
  109MOL    H8915425   5.102   5.641   6.180 -0.0716 -0.2508  1.0719
  109MOL    H9015426   5.181   5.723   6.315  0.2797 -0.2728  0.3742
  109MOL    H9115427   5.386   5.741   6.171  0.1766 -0.1097 -0.9435
  109MOL    H9215428   5.250   5.841   6.138 -1.5206  0.0725  0.4143
  109MOL    C9315429   5.283   5.801   5.907  0.0292  0.7739 -0.2508
  109MOL    C9415430   5.253   5.757   5.764 -0.1549  0.1302 -0.1485
  109MOL    O9515431   5.364   5.682   5.705  0.0988  0.4123 -0.1543
  109MOL    H9615432   5.233   5.893   5.935  1.1449  0.5390  2.7585
  109MOL    H9715433   5.390   5.821   5.916 -0.1360  1.9029 -0.7218
  109MOL    H9815434   5.226   5.845   5.705 -2.0139  0.1064  0.6666
  109MOL    H9915435   5.155   5.712   5.756  0.6803 -1.8794  0.6722
  109MOL   C10015436   5.376   5.546   5.759 -0.1323  0.3112  0.6661
  109MOL   C10115437   5.521   5.527   5.806  0.7068  0.2625  0.7840
  109MOL   O10215438   5.605   5.500   5.698  0.2254 -0.0719  0.3837
  109MOL   H10315439   5.312   5.542   5.847  1.5491  0.6585  1.9129
  109MOL   H10415440   5.355   5.473   5.681  0.1153  0.9638 -0.0226
  109MOL   H10515441   5.528   5.464   5.895 -1.8451  0.4318  1.1600
  109MOL   H10615442   5.556   5.618   5.854  1.3152  0.6201 -0.3487
  109MOL   C10715443   5.741   5.493   5.748  0.8067 -0.7525  0.1885
  109MOL   C10815444   5.835   5.496   5.633 -0.0203  0.2854  0.0078
  109MOL   O10915445   5.818   5.617   5.564 -0.5629 -0.1464 -0.0965
  109MOL   H11015446   5.747   5.580   5.814  0.8437  0.2989 -1.1590
  109MOL   H11115447   5.736   5.399   5.801  1.5796 -0.3424  0.9962
  109MOL   H11215448   5.804   5.417   5.565 -1.9101 -0.6176  1.8708
  109MOL   H11315449   5.938   5.474   5.662 -0.6501 -1.5176  0.9665
  109MOL   C11415450   5.915   5.640   5.466  0.9301  0.3402  0.2496
  109MOL   C11515451   5.912   5.780   5.416 -0.7232  0.1263 -0.3037
  109MOL   O11615452   5.981   5.871   5.503 -0.5746  0.2318 -0.4354
  109MOL   H11715453   6.015   5.625   5.505  0.2332  0.9570  2.3757
  109MOL   H11815454   5.888   5.575   5.383  0.5927  1.0529 -0.2055
  109MOL   H11915455   5.806   5.803   5.406 -1.4364 -2.3394  1.2995
  109MOL   H12015456   5.964   5.785   5.320  3.1935  0.5544  1.7032
  109MOL   C12115457   6.013   6.001   5.450 -0.1997  0.4005  0.1485
  109MOL   C12215458   6.078   6.106   5.546 -0.4733 -0.4756 -0.2328
  109MOL   O12315459   6.221   6.114   5.528 -0.1624  0.2219  0.6937
  109MOL   H12415460   6.062   5.990   5.353 -1.5592 -1.6589 -0.3389
  109MOL   H12515461   5.918   6.047   5.421 -1.4385 -1.5734  0.9851
  109MOL   H12615462   6.055   6.083   5.649  2.1192  2.2958  1.0481
  109MOL   H12715463   6.032   6.205   5.535  2.2494  1.1269  2.0672
  109MOL   C12815464   6.284   6.224   5.587 -0.0579  0.2109  0.3422
  109MOL   C12915465   6.286   6.217   5.744 -0.0324 -0.6698  0.1707
  109MOL   O13015466   6.388   6.302   5.802  0.3560  0.1486  0.0552
  109MOL   H13115467   6.384   6.234   5.546 -0.3183  0.8409 -0.1469
  109MOL   H13215468   6.230   6.311   5.548 -0.7948 -1.7923 -3.4268
  109MOL   H13315469   6.318   6.114   5.761 -1.6207 -1.1292  0.4050
  109MOL   H13415470   6.189   6.247   5.783 -0.5041 -0.6588 -0.9646
  109MOL   C13515471   6.373   6.433   5.761  0.4145 -0.0381  0.2803
  109MOL   C13615472   6.461   6.521   5.854  0.5576  0.0613  0.7794
  109MOL   O13715473   6.420   6.659   5.831 -0.0368 -0.0396 -0.0404
  109MOL   H13815474   6.411   6.442   5.659 -0.8383  2.0792 -0.0127
  109MOL   H13915475   6.268   6.458   5.759 -0.1423 -2.2409  0.1377
  109MOL   H14015476   6.569   6.501   5.847  0.3933 -1.0845  1.2920
  109MOL   H14115477   6.437   6.511   5.960  0.5288 -0.4044  0.7309
  109MOL   H14215478   6.346   6.667   5.889  0.2921  1.8107  0.1762
  110MOL     C115479   3.853   5.232   0.624  0.1276  0.0936  0.0467
  110MOL     C215480   3.781   5.331   0.718 -0.2382 -0.2566  0.3902
  110MOL     O315481   3.732   5.435   0.641 -0.0136  0.6951 -0.0062
  110MOL     H415482   3.947   5.278   0.592 -0.1218 -0.6252 -1.7709
  110MOL     H515483   3.815   5.200   0.527  1.8425 -3.6038  0.4969
  110MOL     H615484   3.848   5.378   0.790 -0.3966 -1.1865  1.1480
  110MOL     H715485   3.696   5.288   0.770  0.1770 -0.0949  1.2143
  110MOL     H815486   3.880   5.145   0.684 -1.0124 -0.3002 -0.0046
  110MOL     C915487   3.639   5.523   0.705 -0.4698  0.1320 -0.4115
  110MOL    C1015488   3.633   5.648   0.611  0.4626 -0.1471 -0.1738
  110MOL    O1115489   3.764   5.709   0.594 -0.2679 -0.0748  0.1317
  110MOL    H1215490   3.547   5.466   0.714 -0.3689  0.3155  1.8781
  110MOL    H1315491   3.663   5.552   0.807 -0.6972 -0.1199 -0.2864
  110MOL    H1415492   3.568   5.721   0.659  0.8177 -0.6893  1.1586
  110MOL    H1515493   3.585   5.608   0.522  2.1981 -1.3649 -0.5755
  110MOL    C1615494   3.770   5.766   0.463 -0.3396 -0.5802  0.0623
  110MOL    C1715495   3.897   5.853   0.451 -0.0503  0.0297 -1.0654
  110MOL    O1815496   3.877   5.984   0.504 -0.0542 -0.1536 -0.1528
  110MOL    H1915497   3.772   5.689   0.386 -0.2259 -1.8847  1.3371
  110MOL    H2015498   3.684   5.831   0.451  0.5531  0.3941 -1.1417
  110MOL    H2115499   3.915   5.860   0.344 -2.4178  3.2390 -1.3198
  110MOL    H2215500   3.987   5.802   0.486 -0.2638 -1.6113 -2.8440
  110MOL    C2315501   3.996   6.064   0.480 -0.1722 -0.2036  0.0856
  110MOL    C2415502   4.000   6.192   0.570  0.1356  0.5122  0.3947
  110MOL    O2515503   3.907   6.288   0.522 -0.4552 -0.2739 -0.3907
  110MOL    H2615504   4.085   6.006   0.506 -0.7222 -0.4298  1.4782
  110MOL    H2715505   4.000   6.101   0.377  0.5671  2.1896  0.9390
  110MOL    H2815506   4.101   6.231   0.572 -0.2868  1.6210  0.4997
  110MOL    H2915507   3.984   6.160   0.673  0.2220 -1.9801 -0.3288
  110MOL    C3015508   3.906   6.395   0.611  0.3471 -0.6325  0.2605
  110MOL    C3115509   3.857   6.524   0.543 -0.2010  0.8201 -0.0591
  110MOL    O3215510   3.866   6.630   0.629 -0.6322  0.4106 -0.6956
  110MOL    H3315511   3.839   6.387   0.696  1.6663 -1.1049  1.2614
  110MOL    H3415512   4.005   6.415   0.650 -0.4580 -0.3304  2.1733
  110MOL    H3515513   3.750   6.516   0.522 -0.4215 -3.6846  2.1305
  110MOL    H3615514   3.918   6.546   0.456  2.1623 -1.1862  1.0465
  110MOL    C3715515   3.818   6.755   0.575  0.1921 -0.1547 -0.2885
  110MOL    C3815516   3.862   6.881   0.647  0.5410 -0.2725 -0.1822
  110MOL    O3915517   3.976   6.946   0.576 -0.6214  0.2168 -0.5877
  110MOL    H4015518   3.829   6.761   0.467 -2.3361 -2.1460 -0.7111
  110MOL    H4115519   3.710   6.762   0.582  0.3169  3.1003 -1.0603
  110MOL    H4215520   3.880   6.866   0.753  0.2812 -1.6054 -0.3236
  110MOL    H4315521   3.783   6.957   0.646  0.6906 -0.1198 -0.9692
  110MOL    C4415522   4.102   6.887   0.598  0.6115  0.3662  0.3043
  110MOL    C4515523   4.208   6.965   0.528 -0.1336 -0.6039 -0.0307
  110MOL    O4615524   4.330   6.942   0.591  0.9929  0.0636 -0.4632
  110MOL    H4715525   4.127   6.890   0.704  2.7009 -0.8541 -0.1240
  110MOL    H4815526   4.109   6.779   0.586 -1.3146  0.3005 -0.4881
  110MOL    H4915527   4.164   7.064   0.540 -1.2760 -0.9642 -1.2172
  110MOL    H5015528   4.208   6.944   0.422 -1.4081  1.8914 -0.5691
  110MOL    C5115529   4.420   7.045   0.572 -0.0923 -0.3547  0.7858
  110MOL    C5215530   4.538   7.045   0.668 -0.0156  0.1979 -0.2596
  110MOL    O5315531   4.509   7.084   0.803 -0.1858 -0.5956 -0.5396
  110MOL    H5415532   4.451   7.035   0.468 -2.2926 -1.2854  0.1922
  110MOL    H5515533   4.368   7.140   0.569 -1.6786 -1.2526 -1.6527
  110MOL    H5615534   4.610   7.114   0.626  0.9528  0.2778  1.4697
  110MOL    H5715535   4.601   6.957   0.681  2.3869  1.4237 -3.1100
  110MOL    C5815536   4.590   7.182   0.856  0.2472  0.0281  0.0393
  110MOL    C5915537   4.547   7.323   0.813 -0.1730  0.7048 -0.5002
  110MOL    O6015538   4.600   7.353   0.689 -0.6893  0.0542 -0.4565
  110MOL    H6115539   4.587   7.166   0.964  0.0586 -0.3919 -0.0296
  110MOL    H6215540   4.697   7.164   0.846  0.1598 -0.5012  0.0584
  110MOL    H6315541   4.578   7.404   0.879 -1.4504  1.3064 -0.6311
  110MOL    H6415542   4.439   7.324   0.827  0.0753  0.3923  1.5832
  110MOL    C6515543   4.523   7.429   0.595  1.2579 -0.3212  0.8963
  110MOL    C6615544   4.597   7.409   0.459  0.2875 -0.5380  0.1770
  110MOL    O6715545   4.511   7.448   0.357 -0.2887  0.2657  0.2738
  110MOL    H6815546   4.430   7.376   0.574  1.3876 -0.3169  0.3261
  110MOL    H6915547   4.496   7.533   0.612 -2.3682 -1.2591  1.3874
  110MOL    H7015548   4.630   7.305   0.462 -0.7144 -0.8702 -0.0591
  110MOL    H7115549   4.685   7.473   0.451  1.3950 -2.0428  0.0601
  110MOL    C7215550   4.536   7.362   0.245  0.7883  0.0389  0.5894
  110MOL    C7315551   4.464   7.419   0.127 -0.4575  0.5303 -0.3657
  110MOL    O7415552   4.327   7.444   0.155  0.7068  0.3775  0.2866
  110MOL    H7515553   4.642   7.347   0.221  0.3018 -1.8323 -0.4160
  110MOL    H7615554   4.491   7.266   0.269  0.4592  0.1461  0.4075
  110MOL    H7715555   4.462   7.348   0.044  0.6867  0.6780 -0.5378
  110MOL    H7815556   4.515   7.505   0.082  4.4170 -2.3479 -0.7253
  110MOL    C7915557   4.288   7.574   0.118 -0.4921 -0.3159 -0.0622
  110MOL    C8015558   4.135   7.577   0.113  0.1033 -0.1135 -0.3755
  110MOL    O8115559   4.081   7.702   0.064 -0.5287  0.3085  0.4347
  110MOL    H8215560   4.317   7.655   0.186 -1.8856 -0.2085  0.4291
  110MOL    H8315561   4.329   7.605   0.022 -1.3278 -0.7880 -0.5748
  110MOL    H8415562   4.086   7.557   0.208 -2.2121  1.6612 -1.1655
  110MOL    H8515563   4.102   7.489   0.059  1.8512  0.3950 -2.3418
  110MOL    C8615564   3.938   7.708   0.077 -0.3825  0.5188  0.3046
  110MOL    C8715565   3.882   0.077   0.057  0.2369  0.9776 -0.3856
  110MOL    O8815566   3.881   0.148   0.184  0.1537 -0.4191  0.6782
  110MOL    H8915567   3.899   7.638   0.004 -0.3878  1.6350 -0.7723
  110MOL    H9015568   3.903   7.673   0.174 -2.9884 -0.1010 -0.8196
  110MOL    H9115569   3.779   0.079   0.024 -0.3840 -1.1838  1.3618
  110MOL    H9215570   3.932   0.141   7.756 -0.6617 -0.3430 -2.2062
  110MOL    C9315571   4.005   0.182   0.244 -0.8593 -0.2267  0.5092
  110MOL    C9415572   3.987   0.286   0.361 -0.2800 -0.1532  0.0544
  110MOL    O9515573   4.002   0.425   0.331 -0.2002 -0.4326  0.4366
  110MOL    H9615574   4.068   0.097   0.272  0.1414  0.6192  0.8460
  110MOL    H9715575   4.068   0.222   0.164 -2.5355  0.2306 -0.6135
  110MOL    H9815576   4.067   0.262   0.432 -1.6574  0.7932  1.9827
  110MOL    H9915577   3.898   0.256   0.417  0.6330 -1.5919  0.7626
  110MOL   C10015578   3.892   0.484   0.271  0.1707 -0.2447 -0.0958
  110MOL   C10115579   3.893   0.637   0.262  0.5456  0.4901  0.0640
  110MOL   O10215580   3.973   0.692   0.150 -0.5363  0.0360  0.2890
  110MOL   H10315581   3.891   0.455   0.166 -0.7207  1.5449 -0.6032
  110MOL   H10415582   3.795   0.458   0.314  1.2822 -1.2105  1.9074
  110MOL   H10515583   3.917   0.686   0.357  0.9294  3.1332 -1.3440
  110MOL   H10615584   3.790   0.664   0.243  0.6589  0.0830 -1.2049
  110MOL   C10715585   4.121   0.701   0.186  0.4273  0.3352  0.9702
  110MOL   C10815586   4.149   0.830   0.275  0.2307  0.2082  0.5808
  110MOL   O10915587   4.109   0.805   0.411 -0.3675  0.0161  0.1515
  110MOL   H11015588   4.167   0.608   0.218  2.1703  0.8693  0.0933
  110MOL   H11115589   4.165   0.730   0.091 -0.5408  1.9128  0.9852
  110MOL   H11215590   4.100   0.914   0.227  1.5132 -0.1634 -1.4888
  110MOL   H11315591   4.257   0.847   0.274  0.0136  1.6381 -0.4906
  110MOL   C11415592   4.122   0.922   0.490  0.0093  0.1640  0.4877
  110MOL   C11515593   4.000   1.005   0.466  0.7487 -0.1232  0.6071
  110MOL   O11615594   3.884   0.956   0.529 -0.0852  0.3975 -0.4192
  110MOL   H11715595   4.107   0.894   0.594  1.2938  0.3430  0.7293
  110MOL   H11815596   4.209   0.983   0.466  0.6837 -0.3814  1.5150
  110MOL   H11915597   3.980   1.042   0.366  1.9567 -0.1704  0.3444
  110MOL   H12015598   4.022   1.090   0.531  2.4313 -0.0498 -0.0430
  110MOL   C12115599   3.760   1.023   0.500  0.5160 -0.6300 -0.4731
  110MOL   C12215600   3.650   0.948   0.570 -0.0249  0.0602  0.0419
  110MOL   O12315601   3.525   1.008   0.545  0.1932  0.0634  0.2361
  110MOL   H12415602   3.767   1.124   0.540 -1.1582  0.5442 -3.0259
  110MOL   H12515603   3.748   1.014   0.392 -0.1828  0.6342 -0.5055
  110MOL   H12615604   3.675   0.968   0.675 -0.6197  1.6899 -0.1078
  110MOL   H12715605   3.653   0.841   0.549 -2.6753 -0.1746  0.6982
  110MOL   C12815606   3.419   0.944   0.618  0.2302 -0.3255  0.0967
  110MOL   C12915607   3.308   1.045   0.641 -0.3771 -0.4284 -0.2087
  110MOL   O13015608   3.253   1.080   0.516 -0.2434 -0.2108  0.3605
  110MOL   H13115609   3.386   0.857   0.560  0.7174  0.5671 -1.5465
  110MOL   H13215610   3.452   0.908   0.716 -0.0952 -2.5761 -0.5780
  110MOL   H13315611   3.352   1.125   0.701  1.4765 -2.1672  0.8418
  110MOL   H13415612   3.228   0.991   0.692 -0.5677  1.3721  1.4558
  110MOL   C13515613   3.151   1.174   0.528 -0.8374 -0.2858  0.3479
  110MOL   C13615614   3.127   1.213   0.387 -0.5465 -0.1262 -0.0021
  110MOL   O13715615   3.081   1.110   0.300  0.0442  0.5610  0.2972
  110MOL   H13815616   3.070   1.120   0.575  0.4077 -2.0616  0.4894
  110MOL   H13915617   3.182   1.251   0.598 -0.3527  1.9439 -2.2066
  110MOL   H14015618   3.225   1.245   0.351 -0.3598 -1.5246 -0.7870
  110MOL   H14115619   3.061   1.300   0.389 -1.5094 -0.8510 -0.3087
  110MOL   H14215620   3.135   1.033   0.304  1.8842  1.7585 -0.6902
  111MOL     C115621   5.650   4.870   2.155 -0.2023 -0.4016 -0.5760
  111MOL     C215622   5.785   4.916   2.227  0.4047  1.2943  0.3954
  111MOL     O315623   5.890   4.834   2.183  0.0740  0.0419 -0.0248
  111MOL     H415624   5.565   4.938   2.167  0.1985  0.0140 -0.0519
  111MOL     H515625   5.612   4.773   2.185  0.4827 -0.5567 -0.2095
  111MOL     H615626   5.783   4.916   2.336  3.7198 -1.2231  0.5565
  111MOL     H715627   5.811   5.015   2.190 -0.7598  0.8066 -1.8330
  111MOL     H815628   5.673   4.863   2.049 -1.9862  0.4047 -1.0412
  111MOL     C915629   6.013   4.862   2.241  0.3112 -0.0101  0.1780
  111MOL    C1015630   6.126   4.782   2.176  0.5776  0.2884  0.2365
  111MOL    O1115631   6.118   4.647   2.221  0.2043 -0.1855  0.2551
  111MOL    H1215632   6.037   4.967   2.227 -0.1344 -0.0062 -0.5118
  111MOL    H1315633   6.020   4.850   2.350 -0.0869 -0.8801  0.1166
  111MOL    H1415634   6.228   4.808   2.207  1.1299  1.5680 -2.5026
  111MOL    H1515635   6.126   4.779   2.068  0.3720 -0.4822  0.2494
  111MOL    C1615636   6.028   4.567   2.169 -0.1067 -0.0429 -0.1252
  111MOL    C1715637   6.071   4.427   2.212  0.2279  0.0353 -0.3006
  111MOL    O1815638   6.024   4.390   2.346  0.3155 -0.5135 -0.6504
  111MOL    H1915639   5.933   4.587   2.219  1.2999  0.6430  2.3493
  111MOL    H2015640   6.022   4.571   2.060  1.6264 -1.6489 -0.2943
  111MOL    H2115641   6.178   4.409   2.213  0.3871  0.9671  1.6013
  111MOL    H2215642   6.027   4.345   2.155 -0.7096 -0.0786  0.5625
  111MOL    C2315643   6.104   4.283   2.400  0.3464 -0.2650  0.7034
  111MOL    C2415644   6.074   4.148   2.337  0.0072 -0.3187 -0.3181
  111MOL    O2515645   6.168   4.132   2.236  0.1438  0.0409 -0.0258
  111MOL    H2615646   6.207   4.317   2.401 -0.5473  2.5667  2.3082
  111MOL    H2715647   6.091   4.276   2.508 -1.1384  0.8182  0.6146
  111MOL    H2815648   5.970   4.135   2.309 -1.0699  0.6043  3.0365
  111MOL    H2915649   6.093   4.069   2.410 -0.4962  0.2610  0.4495
  111MOL    C3015650   6.179   4.003   2.176 -0.1081 -0.1038 -0.0191
  111MOL    C3115651   6.318   3.979   2.136 -0.1887  0.2663  0.4031
  111MOL    O3215652   6.317   3.859   2.063  0.1437  0.3164 -0.1394
  111MOL    H3315653   6.160   3.919   2.244  0.1902 -0.7577 -0.7338
  111MOL    H3415654   6.112   3.992   2.091  0.6379 -1.4978 -0.4510
  111MOL    H3515655   6.396   3.975   2.212  1.9869  2.5700 -1.5894
  111MOL    H3615656   6.347   4.050   2.058  0.6442 -0.2902  0.1942
  111MOL    C3715657   6.438   3.842   1.993 -0.1435  0.7044 -0.0346
  111MOL    C3815658   6.491   3.698   1.996  0.8692 -0.1452 -0.0487
  111MOL    O3915659   6.492   3.662   2.131 -0.5010 -0.4603  0.4396
  111MOL    H4015660   6.399   3.871   1.896  0.5186  1.6162 -0.0428
  111MOL    H4115661   6.521   3.912   2.007 -0.6102  1.2822 -0.1498
  111MOL    H4215662   6.586   3.687   1.945 -0.2170 -1.4345 -1.8688
  111MOL    H4315663   6.423   3.631   1.943 -0.3276  0.7469  0.3305
  111MOL    C4415664   6.470   3.530   2.167  0.2038 -0.0848 -0.2881
  111MOL    C4515665   6.486   3.500   2.316  0.0663  0.2012  0.0489
  111MOL    O4615666   6.617   3.532   2.359 -0.4716  0.7375 -0.2734
  111MOL    H4715667   6.368   3.505   2.136 -0.6450  0.3430  2.0191
  111MOL    H4815668   6.536   3.463   2.112 -0.3463  0.3211 -1.4599
  111MOL    H4915669   6.466   3.396   2.341  1.1423  0.1076  0.5386
  111MOL    H5015670   6.412   3.563   2.368  0.0393  1.0696 -1.0260
  111MOL    C5115671   6.661   3.486   2.487 -0.1989  0.0330  0.0359
  111MOL    C5215672   6.765   3.576   2.545 -0.0752 -0.4259 -0.6410
  111MOL    O5315673   6.900   3.540   2.530 -0.2657  0.0263 -0.2588
  111MOL    H5415674   6.575   3.472   2.553  0.2017 -1.1291  0.3166
  111MOL    H5515675   6.692   3.383   2.471  0.3095  0.2327 -0.2504
  111MOL    H5615676   6.741   3.578   2.651 -0.3222 -2.3552 -0.6401
  111MOL    H5715677   6.746   3.677   2.509  0.8807  0.2544  0.7456
  111MOL    C5815678   6.980   3.641   2.591  0.6991  0.1823 -0.1549
  111MOL    C5915679   7.133   3.602   2.583 -0.0296  0.4775 -0.1989
  111MOL    O6015680   7.182   3.662   2.469 -0.3633  0.3193 -1.2180
  111MOL    H6115681   6.960   3.743   2.560  1.0554 -0.4997 -2.8315
  111MOL    H6215682   6.954   3.649   2.696 -0.1270  0.2499 -0.3593
  111MOL    H6315683   7.150   3.495   2.581 -1.2987  0.2310  1.0236
  111MOL    H6415684   7.193   3.637   2.667 -0.4049  0.9718 -0.1305
  111MOL    C6515685   7.295   3.581   2.425  0.2177  0.0023 -0.4766
  111MOL    C6615686   7.356   3.651   2.302 -0.4795 -0.0820  0.4689
  111MOL    O6715687   7.440   3.766   2.335  0.0252  0.1631  0.1735
  111MOL    H6815688   7.374   3.563   2.498 -0.4276 -0.3822  0.1302
  111MOL    H6915689   7.260   3.483   2.391  0.7581  0.0618 -1.2271
  111MOL    H7015690   7.280   3.672   2.227 -1.1694 -0.5124  1.0449
  111MOL    H7115691   7.409   3.574   2.247  1.1157  0.5220  1.1351
  111MOL    C7215692   7.496   3.826   2.212  0.3618  0.5519  0.1856
  111MOL    C7315693   7.566   3.951   2.254 -0.2874 -0.3297  0.0931
  111MOL    O7415694   7.698   3.942   2.287 -0.0855 -0.2934 -0.2145
  111MOL    H7515695   7.555   3.755   2.154 -0.7266 -1.2304  1.1958
  111MOL    H7615696   7.415   3.853   2.144  1.4380  3.5830  0.0223
  111MOL    H7715697   7.508   4.018   2.317  0.4595  0.3168  0.0988
  111MOL    H7815698   7.571   4.016   2.167  0.9504  0.7086  0.9335
  111MOL    C7915699   7.725   3.895   2.418 -0.7338  0.2511 -0.3414
  111MOL    C8015700   0.105   3.913   2.435  0.3352  0.3467  0.2298
  111MOL    O8115701   0.144   4.049   2.443 -0.5042  0.0008  0.1092
  111MOL    H8215702   7.661   3.938   2.495 -0.3825 -0.6031  0.4322
  111MOL    H8315703   7.698   3.790   2.422  1.9836 -0.5695 -2.3626
  111MOL    H8415704   0.156   3.875   2.347  1.7222  1.5155  0.5223
  111MOL    H8515705   0.146   3.863   2.523  0.7973 -1.2482 -0.8743
  111MOL    C8615706   0.287   4.077   2.445  0.1871 -0.5169  0.0646
  111MOL    C8715707   0.313   4.229   2.416 -0.1246  1.2176  0.1786
  111MOL    O8815708   0.285   4.265   2.283  0.3864 -0.1788  0.2099
  111MOL    H8915709   0.323   4.031   2.538 -1.7040  0.9506  1.5663
  111MOL    H9015710   0.348   4.026   2.370 -0.0477  0.5964 -0.8981
  111MOL    H9115711   0.416   4.252   2.442 -0.1887  2.9711 -1.0484
  111MOL    H9215712   0.268   4.293   2.493 -0.7603  1.0695 -0.0641
  111MOL    C9315713   0.307   4.404   2.273  0.4489 -0.4739  0.0538
  111MOL    C9415714   0.308   4.411   2.118 -0.2195  0.6390  0.0562
  111MOL    O9515715   0.424   4.486   2.086 -0.5271  0.1586 -0.0779
  111MOL    H9615716   0.215   4.446   2.315 -0.0916  0.3835 -1.9332
  111MOL    H9715717   0.401   4.437   2.318  0.3026 -0.0960  0.0903
  111MOL    H9815718   0.221   4.466   2.083 -0.7035 -0.7505 -1.0017
  111MOL    H9915719   0.317   4.313   2.070  2.3394  1.0113 -0.3160
  111MOL   C10015720   0.442   4.513   1.946 -0.4441 -0.2540 -0.3897
  111MOL   C10115721   0.338   4.611   1.890  0.8418  0.3896  0.2094
  111MOL   O10215722   0.377   4.737   1.933  0.5884 -0.2302  0.2356
  111MOL   H10315723   0.541   4.556   1.927  0.0551 -0.9238  0.6567
  111MOL   H10415724   0.439   4.420   1.891  2.5126 -1.3397  1.1825
  111MOL   H10515725   0.231   4.595   1.906  0.7968  2.2014  1.9168
  111MOL   H10615726   0.349   4.611   1.781 -0.3450  2.1881  0.0584
  111MOL   C10715727   0.324   4.851   1.865  0.1126 -0.0334 -0.0462
  111MOL   C10815728   0.310   4.975   1.961  0.2553  0.7799 -0.4928
  111MOL   O10915729   0.259   5.092   1.905  0.4871 -0.4545  0.3599
  111MOL   H11015730   0.391   4.869   1.780  0.3324  1.1108  0.3655
  111MOL   H11115731   0.222   4.829   1.832  0.2786 -0.7612 -0.0719
  111MOL   H11215732   0.409   5.005   1.997 -0.1921  1.4308  0.1881
  111MOL   H11315733   0.251   4.947   2.048  1.5416 -1.1644 -0.1873
  111MOL   C11415734   0.123   5.111   1.930 -0.6520 -0.3835 -1.5536
  111MOL   C11515735   0.060   5.228   1.852  0.2922  0.2988 -0.5951
  111MOL   O11615736   0.019   5.188   1.720  0.1838 -0.4622  0.0951
  111MOL   H11715737   0.068   5.017   1.918  0.1859 -0.8867 -1.4956
  111MOL   H11815738   0.119   5.139   2.035  1.6817  0.0847 -1.5717
  111MOL   H11915739   0.125   5.315   1.866  0.4588 -0.3861  3.3460
  111MOL   H12015740   7.743   5.256   1.909  1.3241 -0.8975  1.6342
  111MOL   C12115741   0.129   5.191   1.638  0.1583  0.4554  0.2123
  111MOL   C12215742   0.082   5.135   1.500  0.6063 -0.7092 -0.3731
  111MOL   O12315743   0.012   5.235   1.429  0.0999  0.7221 -0.3793
  111MOL   H12415744   0.171   5.291   1.638 -0.0298  0.5422 -0.5469
  111MOL   H12515745   0.210   5.125   1.670  0.5337  0.7477 -0.1269
  111MOL   H12615746   0.039   5.036   1.517  2.3826 -1.0837  2.4331
  111MOL   H12715747   0.171   5.110   1.443  0.1171 -0.3907 -1.2746
  111MOL   C12815748   0.026   5.221   1.293  0.2888 -0.4497 -0.6855
  111MOL   C12915749   7.693   5.317   1.238  0.0738 -0.4893  0.3392
  111MOL   O13015750   7.743   5.449   1.244  0.3859 -0.4379 -0.1681
  111MOL   H13115751   0.127   5.250   1.263  1.1922 -1.5932  1.1508
  111MOL   H13215752   7.766   5.128   1.246 -1.3212 -1.3280  2.0475
  111MOL   H13315753   7.604   5.313   1.301 -1.0312 -0.8667 -1.2140
  111MOL   H13415754   7.680   5.295   1.132  0.5182 -1.1348  0.4141
  111MOL   C13515755   7.656   5.550   1.181  0.0651 -0.1404  0.5216
  111MOL   C13615756   7.704   5.689   1.193  0.1952  0.4456 -0.5316
  111MOL   O13715757   0.047   5.715   1.111  0.6426 -0.2862 -0.7614
  111MOL   H13815758   7.670   5.521   1.077  0.8729 -0.2650  0.6637
  111MOL   H13915759   7.551   5.540   1.209 -0.3713 -1.0464 -1.4015
  111MOL   H14015760   7.725   5.714   1.297  1.7830 -3.0220  0.0602
  111MOL   H14115761   7.623   5.748   1.151 -1.8804 -0.9001  1.4655
  111MOL   H14215762   0.118   5.669   1.154 -1.0405 -1.4085  0.8687
  112MOL     C115763   6.168   3.182   7.649 -0.1554 -0.0617 -0.3229
  112MOL     C215764   6.114   3.117   0.007  0.0165  0.0070  0.4469
  112MOL     O315765   6.206   3.044   0.075  0.3764 -0.0293  0.8383
  112MOL     H415766   6.225   3.274   7.658 -0.8170  0.4420 -1.1744
  112MOL     H515767   6.084   3.210   7.585 -0.5832  0.1847  0.3343
  112MOL     H615768   6.042   3.041   7.746  0.7738 -0.0289 -1.1994
  112MOL     H715769   6.064   3.185   0.075  0.7339  0.8863  0.0998
  112MOL     H815770   6.222   3.114   7.583  0.7681  1.8825 -1.5891
  112MOL     C915771   6.160   2.992   0.204 -0.5244  0.0440  0.3945
  112MOL    C1015772   6.282   2.922   0.254  0.1543  0.4633 -0.4453
  112MOL    O1115773   6.278   2.782   0.219 -0.1418 -0.5530  0.1250
  112MOL    H1215774   6.121   3.072   0.266 -1.1082  0.0211  0.0577
  112MOL    H1315775   6.079   2.919   0.203 -1.8828  1.4719  2.4604
  112MOL    H1415776   6.284   2.909   0.362  0.9315 -0.8610 -0.6081
  112MOL    H1515777   6.381   2.965   0.241  0.5357  0.4994  2.2552
  112MOL    C1615778   6.394   2.710   0.232 -0.2524  0.2895  0.0613
  112MOL    C1715779   6.372   2.564   0.264 -0.6461 -0.9877  0.1319
  112MOL    O1815780   6.303   2.503   0.153  0.3906 -0.0291 -0.5947
  112MOL    H1915781   6.457   2.719   0.144  1.4070  0.6146  1.2694
  112MOL    H2015782   6.453   2.747   0.315  0.6834  0.1905 -0.5596
  112MOL    H2115783   6.324   2.560   0.362  1.0168 -1.7338  0.9406
  112MOL    H2215784   6.464   2.507   0.278 -1.1421 -1.6243  0.8587
  112MOL    C2315785   6.239   2.392   0.195  1.1834  0.9106  0.3392
  112MOL    C2415786   6.155   2.353   0.076 -0.7820 -0.3488 -0.1432
  112MOL    O2515787   6.143   2.205   0.080 -0.3751  0.3240 -0.0332
  112MOL    H2615788   6.315   2.315   0.212  0.7393  0.3644 -0.1293
  112MOL    H2715789   6.178   2.399   0.285  3.4398 -0.9727  2.0808
  112MOL    H2815790   6.206   2.374   7.753  0.4935  0.3995  0.6981
  112MOL    H2915791   6.053   2.391   0.070 -1.0405 -1.1313 -0.7481
  112MOL    C3015792   6.051   2.152   0.174  0.3724 -0.3598  0.3167
  112MOL    C3115793   6.056   2.001   0.156 -0.2682  1.0194  0.5730
  112MOL    O3215794   5.948   1.936   0.234 -0.1371  0.0344  0.0516
  112MOL    H3315795   6.075   2.173   0.278  0.5484  0.5145  0.0974
  112MOL    H3415796   5.950   2.190   0.156  0.8757 -0.1759 -2.4194
  112MOL    H3515797   6.153   1.962   0.188 -0.9204 -1.5617 -0.4815
  112MOL    H3615798   6.058   1.977   0.050  0.8150  0.4705  0.7038
  112MOL    C3715799   5.926   1.798   0.211 -0.3686 -0.4047 -0.2995
  112MOL    C3815800   5.841   1.776   0.087 -0.6140 -0.6862  0.0084
  112MOL    O3915801   5.913   1.711   7.749  0.1778 -0.1581 -0.2535
  112MOL    H4015802   6.020   1.745   0.196 -0.5453 -1.1879  1.2980
  112MOL    H4115803   5.874   1.766   0.301  3.7448 -1.1379  1.9013
  112MOL    H4215804   5.795   1.862   0.039  0.6742 -1.6256 -2.9784
  112MOL    H4315805   5.761   1.714   0.126 -0.9379 -0.2956 -0.0325
  112MOL    C4415806   5.893   1.574   7.741  0.3556 -0.7452 -0.2139
  112MOL    C4515807   5.989   1.506   0.059  0.3215  0.0125 -0.6756
  112MOL    O4615808   5.950   1.481   0.196  0.3078 -0.0163  0.2552
  112MOL    H4715809   5.794   1.549   0.008  0.7829 -2.0180  0.0746
  112MOL    H4815810   5.900   1.524   7.644 -2.0396 -0.3936 -0.6227
  112MOL    H4915811   6.088   1.548   0.048  0.3286  0.0730 -0.3792
  112MOL    H5015812   5.995   1.403   0.023  0.2995 -0.3805  0.4329
  112MOL    C5115813   6.055   1.431   0.280 -0.8809 -0.4383  0.7214
  112MOL    C5215814   6.015   1.418   0.425 -0.0596 -0.0923  0.2884
  112MOL    O5315815   5.936   1.301   0.446 -0.6499  0.8390  0.5529
  112MOL    H5415816   6.095   1.336   0.245  0.0857  0.6452 -1.2219
  112MOL    H5515817   6.134   1.505   0.292 -0.8565 -0.6506  1.9946
  112MOL    H5615818   5.985   1.510   0.474 -0.9390 -0.0099 -0.3872
  112MOL    H5715819   6.108   1.398   0.479 -1.1063  0.0858  2.1993
  112MOL    C5815820   5.871   1.297   0.574  0.3125 -0.3239  0.3947
  112MOL    C5915821   5.945   1.213   0.677  0.5576  0.7226 -0.3671
  112MOL    O6015822   6.022   1.287   0.757 -0.4833 -0.2500  0.1627
  112MOL    H6115823   5.850   1.399   0.605  2.0182  0.0642  0.3051
  112MOL    H6215824   5.775   1.253   0.547 -0.9758  2.2481  0.6535
  112MOL    H6315825   6.005   1.145   0.616 -0.0973  1.3951 -1.7853
  112MOL    H6415826   5.877   1.156   0.740 -1.0040  2.9654  0.0389
  112MOL    C6515827   6.113   1.215   0.848  0.3452 -0.2226 -0.1832
  112MOL    C6615828   6.175   1.308   0.953 -0.2146 -0.2773 -0.1423
  112MOL    O6715829   6.078   1.355   1.047  0.5570 -0.3267  0.0008
  112MOL    H6815830   6.056   1.130   0.886  0.0922 -1.0742 -2.3821
  112MOL    H6915831   6.198   1.182   0.788  2.2140 -1.7319  3.1371
  112MOL    H7015832   6.212   1.390   0.891 -0.3150  0.9808  1.4265
  112MOL    H7115833   6.268   1.274   1.000 -0.3670 -0.4833  0.0126
  112MOL    C7215834   6.121   1.470   1.120  0.9418  0.2267  0.0535
  112MOL    C7315835   6.006   1.522   1.205 -0.1683  0.2188 -0.3028
  112MOL    O7415836   5.916   1.605   1.127 -0.3637  0.3857 -0.5439
  112MOL    H7515837   6.211   1.444   1.176  1.3871  0.6231 -0.4768
  112MOL    H7615838   6.137   1.553   1.051  0.7764  1.7185  1.7492
  112MOL    H7715839   6.048   1.574   1.291  1.0992  1.2109 -1.5023
  112MOL    H7815840   5.943   1.441   1.241 -2.4004  1.0948 -2.1617
  112MOL    C7915841   5.816   1.672   1.209 -0.4373  0.5036  0.1596
  112MOL    C8015842   5.757   1.793   1.141  0.5220  0.0046  0.3278
  112MOL    O8115843   5.835   1.913   1.123 -0.2351 -0.2693  0.0018
  112MOL    H8215844   5.748   1.589   1.227 -1.0291  0.0697 -3.5288
  112MOL    H8315845   5.851   1.705   1.306  0.5767  0.4239 -0.1651
  112MOL    H8415846   5.671   1.815   1.204  0.2565  0.9249 -0.3388
  112MOL    H8515847   5.717   1.761   1.045  0.9513 -0.2183  0.2226
  112MOL    C8615848   5.768   2.020   1.062 -0.6337 -0.8349  0.2417
  112MOL    C8715849   5.859   2.131   1.025 -0.4970 -0.3293  0.4223
  112MOL    O8815850   5.885   2.238   1.122  0.1249 -0.3743 -0.1045
  112MOL    H8915851   5.729   1.980   0.968 -2.1520  0.4050  0.3294
  112MOL    H9015852   5.673   2.045   1.108 -0.4889  2.0086 -0.9055
  112MOL    H9115853   5.827   2.177   0.931  0.4181  2.0816  1.2457
  112MOL    H9215854   5.961   2.099   1.007  0.4944  3.2655 -0.8767
  112MOL    C9315855   5.767   2.315   1.143 -0.2736  0.6575 -0.7059
  112MOL    C9415856   5.715   2.386   1.020 -0.5658  0.3720  0.5135
  112MOL    O9515857   5.614   2.303   0.963 -0.0013 -0.2206  0.4218
  112MOL    H9615858   5.687   2.260   1.193 -1.6710  3.4991  0.2779
  112MOL    H9715859   5.793   2.388   1.221  2.0565 -0.4801 -0.3483
  112MOL    H9815860   5.797   2.391   0.948 -2.1742 -0.9877 -1.4603
  112MOL    H9915861   5.684   2.490   1.031 -0.3383  0.3960  0.9604
  112MOL   C10015862   5.587   2.335   0.831 -0.5815 -0.2472  0.9945
  112MOL   C10115863   5.520   2.206   0.773 -0.1636 -0.6484 -0.1500
  112MOL   O10215864   5.625   2.113   0.748 -0.1404 -0.1363  0.5083
  112MOL   H10315865   5.531   2.427   0.841 -1.3140 -0.3918 -1.5818
  112MOL   H10415866   5.676   2.364   0.775  0.7417 -1.7050  2.2681
  112MOL   H10515867   5.469   2.237   0.681 -1.1116 -2.0835 -0.1376
  112MOL   H10615868   5.449   2.160   0.842 -2.5497 -0.1885 -2.2305
  112MOL   C10715869   5.573   2.001   0.674 -0.3481 -0.6977  0.1952
  112MOL   C10815870   5.689   1.927   0.602 -0.3294  0.5479  0.5288
  112MOL   O10915871   5.766   1.845   0.695  0.3293 -0.0100  0.4738
  112MOL   H11015872   5.533   1.935   0.751  0.7068  0.9302  2.2201
  112MOL   H11115873   5.495   2.042   0.610 -0.5741  1.5271  1.8249
  112MOL   H11215874   5.756   1.992   0.545  0.7263 -1.8139 -0.9961
  112MOL   H11315875   5.641   1.871   0.521  0.2669  2.0910 -0.9256
  112MOL   C11415876   5.880   1.800   0.637 -0.1242 -0.4288 -0.4546
  112MOL   C11515877   5.954   1.699   0.722  0.3940  0.4366 -0.3756
  112MOL   O11615878   6.082   1.695   0.667  0.0525 -0.8130  0.3304
  112MOL   H11715879   5.844   1.748   0.548 -0.3074  0.7480 -1.0888
  112MOL   H11815880   5.957   1.876   0.619 -0.0628 -0.2411  0.5924
  112MOL   H11915881   5.902   1.603   0.717  1.2171  0.0626 -2.6694
  112MOL   H12015882   5.959   1.739   0.823  0.1670  0.8502 -0.5257
  112MOL   C12115883   6.160   1.610   0.751 -0.3414 -0.0341  0.7291
  112MOL   C12215884   6.298   1.604   0.692  0.1729 -0.2575 -0.6632
  112MOL   O12315885   6.372   1.725   0.712 -0.0713  0.0477 -0.3226
  112MOL   H12415886   6.158   1.636   0.857  0.1668  1.5418  0.3624
  112MOL   H12515887   6.113   1.511   0.744  1.0728 -0.6344 -0.6050
  112MOL   H12615888   6.295   1.566   0.590 -0.1671  0.3647 -0.8933
  112MOL   H12715889   6.362   1.526   0.731 -0.6693 -0.9539 -0.6562
  112MOL   C12815890   6.512   1.720   0.678  0.4440 -0.3320  0.2563
  112MOL   C12915891   6.563   1.867   0.679  0.2361  0.6169 -0.1592
  112MOL   O13015892   6.692   1.887   0.625 -0.0869 -0.2723  0.3845
  112MOL   H13115893   6.568   1.663   0.752  2.4682  1.2077 -0.0336
  112MOL   H13215894   6.524   1.672   0.580  0.0824 -0.0455  0.0710
  112MOL   H13315895   6.556   1.897   0.784  0.9023 -1.6969  0.5806
  112MOL   H13415896   6.499   1.942   0.633 -1.7191 -0.3103  0.9650
  112MOL   C13515897   6.751   2.012   0.644  0.2963  0.4521  0.3651
  112MOL   C13615898   6.887   1.984   0.573 -0.0190  0.0475  0.0060
  112MOL   O13715899   6.955   2.106   0.543  0.5129 -0.6308  0.2714
  112MOL   H13815900   6.684   2.090   0.606  1.8622  1.1620 -0.9838
  112MOL   H13915901   6.767   2.025   0.751  1.4782  0.1851  0.2281
  112MOL   H14015902   6.860   1.928   0.483 -1.1602 -4.8919  3.1734
  112MOL   H14115903   6.949   1.923   0.639 -0.5567 -1.5643 -0.9352
  112MOL   H14215904   7.033   2.078   0.499 -0.8904 -1.1770 -1.9075
  113MOL     C115905   6.663   4.028   0.902  0.0811 -0.2472  0.1424
  113MOL     C215906   6.589   4.169   0.887 -0.2250 -0.2546  0.2446
  113MOL     O315907   6.692   4.253   0.828  0.2596  0.2164 -0.4249
  113MOL     H415908   6.698   3.989   0.806 -2.4025 -2.4978  0.0755
  113MOL     H515909   6.584   3.962   0.938  0.0966 -0.4967 -0.2738
  113MOL     H615910   6.560   4.211   0.983  0.3944  0.2677  0.2075
  113MOL     H715911   6.505   4.158   0.819 -0.9235  0.8195  0.9223
  113MOL     H815912   6.747   4.030   0.971  1.8302 -0.7701 -1.9318
  113MOL     C915913   6.636   4.375   0.779  0.1640  0.4593  0.6076
  113MOL    C1015914   6.748   4.446   0.700 -0.2109  0.2777 -0.0171
  113MOL    O1115915   6.803   4.522   0.803 -0.7886 -0.0846 -0.0595
  113MOL    H1215916   6.556   4.350   0.709  0.6297 -1.1788  0.6589
  113MOL    H1315917   6.588   4.433   0.857 -0.1959  1.1372 -0.1036
  113MOL    H1415918   6.715   4.520   0.627 -2.8925  0.7219  1.5694
  113MOL    H1515919   6.830   4.383   0.666 -1.9793 -2.5236  0.7410
  113MOL    C1615920   6.906   4.610   0.759  1.7007  0.2204  0.1651
  113MOL    C1715921   6.966   4.674   0.884  0.1866  0.4002 -0.4488
  113MOL    O1815922   7.076   4.583   0.912 -0.1595  0.1873 -0.0397
  113MOL    H1915923   6.980   4.565   0.693 -0.5580  1.4598 -3.3360
  113MOL    H2015924   6.859   4.686   0.697  0.1430 -1.4066 -0.7119
  113MOL    H2115925   6.892   4.674   0.964 -0.7078  2.2341 -1.2558
  113MOL    H2215926   7.004   4.774   0.866 -3.8852  1.7323 -2.1160
  113MOL    C2315927   7.176   4.641   0.992 -0.7564 -0.2092 -0.3903
  113MOL    C2415928   7.122   4.691   1.132  0.4750 -0.2278  0.2657
  113MOL    O2515929   7.233   4.707   1.215  0.3565  0.2251  0.6305
  113MOL    H2615930   7.260   4.572   1.001 -0.7793 -0.1312  0.5250
  113MOL    H2715931   7.224   4.723   0.939  1.1393 -0.1829  1.2791
  113MOL    H2815932   7.054   4.616   1.174  0.0839 -0.6114 -1.0349
  113MOL    H2915933   7.075   4.788   1.120 -1.5317 -1.2791 -0.7214
  113MOL    C3015934   7.193   4.739   1.349 -0.0185 -0.1162 -1.0093
  113MOL    C3115935   7.309   4.790   1.428  0.2883 -0.3083 -0.9278
  113MOL    O3215936   7.321   4.935   1.415  0.2314 -0.3776 -0.0803
  113MOL    H3315937   7.122   4.822   1.344  0.9608  0.8242  0.5057
  113MOL    H3415938   7.152   4.646   1.388  2.3864 -1.1252 -0.7959
  113MOL    H3515939   7.396   4.733   1.395  0.4462 -0.0554 -0.9492
  113MOL    H3615940   7.293   4.752   1.529 -1.5283 -0.0227 -1.0907
  113MOL    C3715941   7.450   4.989   1.390  0.8803 -0.0483  0.2983
  113MOL    C3815942   7.484   4.993   1.240  1.2522 -0.2527  0.4385
  113MOL    O3915943   7.605   4.924   1.206  0.2494  0.1045 -0.3769
  113MOL    H4015944   7.451   5.093   1.420 -0.0055 -0.0693  0.4383
  113MOL    H4115945   7.530   4.932   1.437  0.3630 -1.7884 -0.8606
  113MOL    H4215946   7.488   5.097   1.207 -1.3209  0.0584  1.0230
  113MOL    H4315947   7.392   4.958   1.194  0.6003  0.9778  0.8064
  113MOL    C4415948   7.636   4.922   1.070 -0.4666  0.1307 -0.4690
  113MOL    C4515949   0.012   4.865   1.060  0.5587 -0.4364 -0.5171
  113MOL    O4615950   0.110   4.963   1.102  0.3408 -0.0238 -0.3019
  113MOL    H4715951   7.575   4.854   1.011 -0.3392 -2.0901  1.8530
  113MOL    H4815952   7.623   5.022   1.030 -1.1176  0.0501 -0.4684
  113MOL    H4915953   0.043   4.832   0.961  0.0413  0.4147 -0.9730
  113MOL    H5015954   0.021   4.781   1.129 -1.6744 -1.5360 -1.5080
  113MOL    C5115955   0.238   4.908   1.115  0.4281  0.3564  0.0761
  113MOL    C5215956   0.248   4.847   1.257 -0.1285 -0.2032  0.2390
  113MOL    O5315957   0.231   4.706   1.265  0.3811  0.2080 -0.5213
  113MOL    H5415958   0.259   4.846   1.029  3.6251 -0.3845  1.3060
  113MOL    H5515959   0.317   4.982   1.124  0.2796  0.2931  2.3183
  113MOL    H5615960   0.164   4.885   1.316 -0.6997  0.0531 -0.7314
  113MOL    H5715961   0.340   4.875   1.308  0.6405  0.4787 -1.5088
  113MOL    C5815962   0.256   4.644   1.399 -0.4526  0.2515  0.3278
  113MOL    C5915963   0.220   4.497   1.386  0.3727  0.1514 -0.7758
  113MOL    O6015964   0.300   4.436   1.285  0.0203 -0.0490 -0.1125
  113MOL    H6115965   0.361   4.658   1.424  0.4171  0.4433 -3.0625
  113MOL    H6215966   0.203   4.684   1.485  0.2266  0.6255  0.5758
  113MOL    H6315967   0.116   4.481   1.357  0.7972 -3.5509 -0.4733
  113MOL    H6415968   0.238   4.441   1.478  0.9330 -0.0745 -1.0230
  113MOL    C6515969   0.258   4.321   1.225  0.4615 -0.8479  0.0204
  113MOL    C6615970   0.269   4.196   1.306 -0.5377 -0.5776 -0.2850
  113MOL    O6715971   0.159   4.191   1.399 -0.2398  0.6685  0.7135
  113MOL    H6815972   0.153   4.324   1.194  0.3911  0.4320  0.3353
  113MOL    H6915973   0.314   4.301   1.134 -0.4024 -1.9390 -0.2797
  113MOL    H7015974   0.361   4.194   1.365 -0.3833 -2.7305 -0.5816
  113MOL    H7115975   0.268   4.112   1.237  0.3730  0.6730 -1.8624
  113MOL    C7215976   0.091   4.063   1.401  0.1070 -0.1611  0.1056
  113MOL    C7315977   0.166   3.964   1.489  0.0975  0.1072 -0.0908
  113MOL    O7415978   0.284   3.909   1.429 -0.4123 -0.3723  0.0444
  113MOL    H7515979   0.000   4.086   1.457  0.1855 -2.6701  1.3431
  113MOL    H7615980   0.050   4.033   1.305 -1.1675  0.5298  0.4108
  113MOL    H7715981   0.096   3.881   1.503 -0.1746  0.4191  0.4295
  113MOL    H7815982   0.174   3.995   1.593 -3.9263  0.4115  0.2217
  113MOL    C7915983   0.253   3.812   1.330 -0.6224  1.1925 -0.2410
  113MOL    C8015984   0.388   3.772   1.267  0.1351  0.5606 -0.0023
  113MOL    O8115985   0.443   3.876   1.188  0.3749 -0.0482  0.5245
  113MOL    H8215986   0.206   3.730   1.383 -0.8972  1.9291  0.6576
  113MOL    H8315987   0.189   3.846   1.248  0.1818  0.8007 -1.0463
  113MOL    H8415988   0.371   3.690   1.197 -0.4326 -1.8098  2.8220
  113MOL    H8515989   0.453   3.749   1.351  2.6178  0.1192 -1.9633
  113MOL    C8615990   0.577   3.847   1.142 -0.5204 -0.2694  0.4247
  113MOL    C8715991   0.591   3.739   1.037 -0.5993  0.3963  0.0295
  113MOL    O8815992   0.685   3.774   0.938 -0.0601  0.5192 -0.2332
  113MOL    H8915993   0.596   3.937   1.085 -0.1550 -1.1985 -0.9402
  113MOL    H9015994   0.650   3.837   1.222  0.9295 -1.0479 -0.9700
  113MOL    H9115995   0.498   3.708   0.990 -0.1663  0.7275 -1.0610
  113MOL    H9215996   0.621   3.649   1.092  1.1428  1.8203  1.4592
  113MOL    C9315997   0.732   3.668   0.854 -0.1159  0.3255 -0.0130
  113MOL    C9415998   0.836   3.725   0.749  0.7861 -0.4115 -0.1446
  113MOL    O9515999   0.965   3.734   0.807 -0.6752 -0.0011 -0.0566
  113MOL    H9616000   0.775   3.583   0.905 -1.3614 -1.2717 -1.5596
  113MOL    H9716001   0.648   3.614   0.810  0.2719 -0.8098  0.6282
  113MOL    H9816002   0.807   3.826   0.719 -0.0170 -1.2712 -2.3270
  113MOL    H9916003   0.829   3.672   0.654 -0.8629 -0.7947  0.1615
  113MOL   C10016004   1.076   3.719   0.715 -0.2975  0.3872  0.2361
  113MOL   C10116005   1.206   3.721   0.789 -0.5860  0.6783 -0.9431
  113MOL   O10216006   1.212   3.848   0.849  0.3124  0.3936  0.1885
  113MOL   H10316007   1.071   3.624   0.662 -1.9830  0.0971  0.8783
  113MOL   H10416008   1.068   3.801   0.645  2.3372  0.4405 -0.0517
  113MOL   H10516009   1.291   3.705   0.722 -0.4040 -0.8956 -0.3517
  113MOL   H10616010   1.209   3.641   0.863 -3.6102  0.3572 -1.1145
  113MOL   C10716011   1.321   3.878   0.931  0.2897  0.2408 -0.1415
  113MOL   C10816012   1.307   3.805   1.070 -0.0927  0.6462  0.5424
  113MOL   O10916013   1.231   3.889   1.160 -0.1604  0.2846  0.0268
  113MOL   H11016014   1.415   3.854   0.881  0.5161 -0.3709  0.5754
  113MOL   H11116015   1.312   3.983   0.960 -0.5702  0.1835 -0.1716
  113MOL   H11216016   1.409   3.792   1.104  0.6236  2.0258 -1.0005
  113MOL   H11316017   1.273   3.703   1.050  1.8611 -0.1532  1.1893
  113MOL   C11416018   1.086   3.894   1.140 -0.3481  0.1671  0.3413
  113MOL   C11516019   1.025   3.819   1.248 -0.2791  1.1063  0.2535
  113MOL   O11616020   1.046   3.681   1.240 -0.2222  0.0744  0.3861
  113MOL   H11716021   1.047   3.995   1.132 -2.3844 -0.8299 -3.8140
  113MOL   H11816022   1.054   3.850   1.046  2.4086  0.1554 -0.6474
  113MOL   H11916023   0.918   3.836   1.261 -0.1154  2.1275  0.3647
  113MOL   H12016024   1.079   3.859   1.334  0.4249  0.6343  0.0319
  113MOL   C12116025   0.952   3.624   1.147 -0.8520  0.4102 -0.3817
  113MOL   C12216026   0.985   3.475   1.122 -0.0944  0.0813 -0.2755
  113MOL   O12316027   0.930   3.396   1.225 -0.1393  0.0406  0.3054
  113MOL   H12416028   0.852   3.630   1.189  0.3388  1.4140  2.4738
  113MOL   H12516029   0.951   3.668   1.047  1.4952  1.0856 -0.1367
  113MOL   H12616030   1.091   3.461   1.103 -0.1346  0.4993 -0.8660
  113MOL   H12716031   0.940   3.442   1.028 -0.5087 -0.5617  0.1489
  113MOL   C12816032   1.004   3.283   1.262  0.4002 -0.1483  0.0312
  113MOL   C12916033   0.945   3.201   1.383 -0.5200  0.2013  0.1647
  113MOL   O13016034   1.038   3.134   1.470 -0.1104  0.1411  0.6210
  113MOL   H13116035   1.012   3.218   1.175 -1.2071 -1.6198  0.9445
  113MOL   H13216036   1.103   3.320   1.289  1.1025 -1.7046 -0.3674
  113MOL   H13316037   0.882   3.127   1.333  0.5079 -0.3191 -0.3613
  113MOL   H13416038   0.901   3.264   1.460 -0.0796 -0.0065  0.5855
  113MOL   C13516039   1.134   3.053   1.400 -0.2965 -1.0178  0.0301
  113MOL   C13616040   1.180   2.930   1.487 -0.1254  0.6853  0.0062
  113MOL   O13716041   1.248   2.986   1.592  0.2016  0.8784  0.2169
  113MOL   H13816042   1.089   3.010   1.311 -2.1210 -0.1764  0.5288
  113MOL   H13916043   1.218   3.116   1.373 -1.3033  0.2099 -0.2716
  113MOL   H14016044   1.238   2.854   1.435 -3.4018 -1.7002 -0.3364
  113MOL   H14116045   1.088   2.888   1.528  0.7026 -2.9308 -1.6018
  113MOL   H14216046   1.190   3.042   1.642 -2.0382  0.3659 -1.6952
  114MOL     C116047   7.006   4.743   3.095 -0.0482  0.5227  0.1864
  114MOL     C216048   7.052   4.887   3.087  0.1899  0.7106  0.2134
  114MOL     O316049   7.053   4.934   3.220  0.3420  0.9266 -0.2052
  114MOL     H416050   6.903   4.728   3.127  0.0977  0.9275  0.8469
  114MOL     H516051   7.064   4.698   3.176  1.0992  0.1214 -0.8537
  114MOL     H616052   6.979   4.944   3.028  0.6325  0.2416 -0.7924
  114MOL     H716053   7.152   4.891   3.044  0.6589  0.9663  1.3260
  114MOL     H816054   7.029   4.684   3.006 -2.0520 -2.2787  1.4252
  114MOL     C916055   7.029   5.071   3.241  0.0166 -0.3182 -0.3114
  114MOL    C1016056   7.064   5.094   3.388  0.0940 -0.4627 -0.0685
  114MOL    O1116057   6.972   5.046   3.473 -0.1159  0.1076 -0.3238
  114MOL    H1216058   7.068   5.141   3.167  0.4355  0.2149  0.4018
  114MOL    H1316059   6.921   5.070   3.225 -0.0136 -0.0881 -0.1316
  114MOL    H1416060   7.056   5.201   3.408 -1.3382 -0.8312  1.4809
  114MOL    H1516061   7.160   5.055   3.422 -0.6879 -1.6792  0.7942
  114MOL    C1616062   6.987   5.084   3.607 -0.5383 -0.0625 -0.3320
  114MOL    C1716063   6.885   5.024   3.697 -0.0967 -1.3961  0.2115
  114MOL    O1816064   6.893   5.076   3.831 -0.4450  0.3067  0.2630
  114MOL    H1916065   7.082   5.061   3.655 -0.6011 -1.8393 -1.0270
  114MOL    H2016066   6.976   5.192   3.611  1.4318  0.1572 -0.7421
  114MOL    H2116067   6.893   4.916   3.705  0.1943 -1.3017  1.3684
  114MOL    H2216068   6.784   5.047   3.664  0.7499  3.2448  0.5719
  114MOL    C2316069   6.799   5.014   3.920 -0.7119  0.4127 -0.1021
  114MOL    C2416070   6.788   5.093   4.043  0.0406  0.1259 -0.5888
  114MOL    O2516071   6.914   5.079   4.118 -0.4367  0.2834 -0.0859
  114MOL    H2616072   6.704   4.974   3.886 -1.0444  0.7408  0.4410
  114MOL    H2716073   6.834   4.919   3.960 -1.9290 -0.9731 -2.2788
  114MOL    H2816074   6.704   5.054   4.100 -0.4759  0.5512 -1.0536
  114MOL    H2916075   6.770   5.198   4.020 -0.6388  0.3023  0.6829
  114MOL    C3016076   7.002   5.192   4.098 -0.4404  0.3050 -0.1450
  114MOL    C3116077   7.134   5.179   4.185  0.7591  0.5947 -0.2470
  114MOL    O3216078   7.124   5.225   4.321  0.5091 -0.4908 -0.1779
  114MOL    H3316079   7.027   5.185   3.991  0.2790  0.6848 -0.0062
  114MOL    H3416080   6.957   5.288   4.121 -3.0801 -0.7128 -0.9184
  114MOL    H3516081   7.215   5.235   4.139  0.3745  0.3515 -1.2389
  114MOL    H3616082   7.167   5.075   4.181  2.9549  1.1482  2.1711
  114MOL    C3716083   7.051   5.125   4.391 -0.2422  0.0732  0.0453
  114MOL    C3816084   7.070   5.143   4.545 -0.0155  0.6441 -0.9075
  114MOL    O3916085   6.951   5.102   4.611 -0.5299  0.3936 -0.5135
  114MOL    H4016086   6.950   5.137   4.351 -0.0897 -1.2834 -0.7862
  114MOL    H4116087   7.082   5.025   4.363  1.3886  0.2400  1.1981
  114MOL    H4216088   7.084   5.249   4.569 -0.1522  0.1776  1.3002
  114MOL    H4316089   7.161   5.091   4.575 -0.6745  0.5786  0.9914
  114MOL    C4416090   6.938   4.967   4.628  0.0620  0.7394  0.1544
  114MOL    C4516091   6.823   4.925   4.714 -0.8010  0.1415 -0.1023
  114MOL    O4616092   6.845   4.928   4.856  0.0227  0.1782  0.1189
  114MOL    H4716093   6.924   4.922   4.529 -0.9522  0.0830  0.5940
  114MOL    H4816094   7.033   4.931   4.667 -0.4255 -1.6888 -0.7570
  114MOL    H4916095   6.813   4.822   4.679 -2.0515 -0.1217  0.9791
  114MOL    H5016096   6.729   4.974   4.691 -0.2661  1.2261 -0.0031
  114MOL    C5116097   6.821   5.047   4.922  0.1908  0.5286 -0.0340
  114MOL    C5216098   6.942   5.147   4.920 -0.5260  0.3964  0.4041
  114MOL    O5316099   7.029   5.135   5.031 -0.4093  0.0995  0.1751
  114MOL    H5416100   6.737   5.110   4.895 -0.4025 -0.1479  0.2225
  114MOL    H5516101   6.812   5.023   5.028  0.2259  0.6276 -0.0089
  114MOL    H5616102   6.909   5.251   4.918  1.7016  1.1204 -2.4605
  114MOL    H5716103   6.998   5.136   4.827 -2.6611 -0.1555 -0.8550
  114MOL    C5816104   7.129   5.033   5.019  0.2488  0.3892 -0.3125
  114MOL    C5916105   7.202   5.021   5.157  0.8824 -0.1230 -0.3906
  114MOL    O6016106   7.258   4.891   5.167 -0.2246  0.2906 -0.0318
  114MOL    H6116107   7.076   4.942   4.990  0.6380  0.8259 -2.5166
  114MOL    H6216108   7.200   5.064   4.942  0.0588  0.6215 -0.3952
  114MOL    H6316109   7.132   5.037   5.239 -1.1915 -2.0866 -1.7226
  114MOL    H6416110   7.282   5.095   5.164 -1.2002  2.1986 -0.4983
  114MOL    C6516111   7.361   4.880   5.265 -0.5462 -0.2687 -0.5098
  114MOL    C6616112   7.390   4.740   5.302 -0.6064 -0.0275 -0.0952
  114MOL    O6716113   7.329   4.682   5.412 -0.3503 -0.8111  0.1246
  114MOL    H6816114   7.453   4.932   5.238 -0.9398  1.3122  1.0483
  114MOL    H6916115   7.349   4.935   5.359  0.0002  0.4734 -0.8586
  114MOL    H7016116   7.494   4.750   5.333 -0.6673 -1.3095  0.5221
  114MOL    H7116117   7.394   4.672   5.217 -0.8392  1.0187 -0.9567
  114MOL    C7216118   7.202   4.650   5.388 -0.3185  0.5754  0.9138
  114MOL    C7316119   7.159   4.564   5.495  0.5651 -0.1221 -0.1481
  114MOL    O7416120   7.239   4.447   5.511 -0.0337  0.0166  0.1591
  114MOL    H7516121   7.129   4.731   5.380 -0.5495  0.3041  0.1706
  114MOL    H7616122   7.206   4.590   5.297 -0.2265 -1.1139  2.0053
  114MOL    H7716123   7.062   4.526   5.461  1.2140 -0.5525 -1.5380
  114MOL    H7816124   7.147   4.622   5.587  0.6943  0.5026 -0.5278
  114MOL    C7916125   7.179   4.343   5.593  0.6926 -0.2210 -0.4408
  114MOL    C8016126   7.255   4.210   5.603  1.0164 -0.0003 -0.2180
  114MOL    O8116127   7.376   4.223   5.677  0.7317  0.2352 -0.4923
  114MOL    H8216128   7.168   4.387   5.693 -0.9674  0.1118 -0.7615
  114MOL    H8316129   7.077   4.323   5.562  0.2129 -0.4492  1.2459
  114MOL    H8416130   7.265   4.171   5.501  2.6591 -1.4371  0.4722
  114MOL    H8516131   7.190   4.131   5.642  1.4531  0.2989  1.1376
  114MOL    C8616132   7.367   4.266   5.812 -0.6546 -0.3066 -0.3975
  114MOL    C8716133   7.413   4.408   5.832 -0.1466 -0.1546 -0.4252
  114MOL    O8816134   7.553   4.398   5.867  0.8002  0.4348  0.2742
  114MOL    H8916135   7.260   4.270   5.835 -1.1015  0.8353 -2.4303
  114MOL    H9016136   7.423   4.196   5.873 -0.3811  1.6675  1.6826
  114MOL    H9116137   7.350   4.445   5.913 -0.9127 -1.4091 -0.4247
  114MOL    H9216138   7.401   4.478   5.750  0.6170 -1.0834 -1.3523
  114MOL    C9316139   7.642   4.422   5.762 -0.5180 -0.7594 -0.2915
  114MOL    C9416140   7.761   4.495   5.826  0.4442 -0.3243 -0.0153
  114MOL    O9516141   7.736   4.629   5.852 -0.3346 -0.0690  0.6353
  114MOL    H9616142   7.668   4.326   5.718 -2.8212 -2.6183  2.3082
  114MOL    H9716143   7.607   4.493   5.686  1.0540  1.4781  1.0029
  114MOL    H9816144   0.068   4.487   5.751  0.7290  2.3142 -0.0297
  114MOL    H9916145   0.019   4.425   5.905 -1.5796 -1.4075 -0.2053
  114MOL   C10016146   7.654   4.656   5.962  0.1480 -0.1088  0.8472
  114MOL   C10116147   7.638   4.813   5.972 -0.4175 -0.2916 -0.4295
  114MOL   O10216148   7.550   4.872   5.876  0.5212 -0.3421  0.1515
  114MOL   H10316149   7.556   4.609   5.968  1.2973 -2.9870 -1.6926
  114MOL   H10416150   7.709   4.621   6.049  0.8603  1.8787  1.2304
  114MOL   H10516151   7.732   4.868   5.975 -0.5447  0.0375 -2.0091
  114MOL   H10616152   7.581   4.831   6.062  0.2827  0.9384 -0.2295
  114MOL   C10716153   7.611   4.878   5.757 -1.0223 -0.0571 -0.3148
  114MOL   C10816154   7.541   4.971   5.659  0.0248  0.2152  0.1458
  114MOL   O10916155   7.605   5.096   5.658 -0.5794  0.1268  0.2783
  114MOL   H11016156   7.715   4.910   5.770 -0.8209 -0.6736 -0.4288
  114MOL   H11116157   7.601   4.778   5.717 -1.0005  0.1876 -0.9305
  114MOL   H11216158   7.436   4.972   5.689  0.4111  0.3736  1.5489
  114MOL   H11316159   7.550   4.928   5.560 -2.4507  1.1877 -0.5380
  114MOL   C11416160   7.583   5.173   5.774 -0.4596 -0.2704 -0.3112
  114MOL   C11516161   7.616   5.323   5.769  0.8056  0.6065 -0.0382
  114MOL   O11616162   7.529   5.376   5.661  0.1626 -0.6034 -0.1219
  114MOL   H11716163   7.481   5.158   5.810 -0.7539  1.0951 -0.5248
  114MOL   H11816164   7.633   5.125   5.858 -1.8834  0.9786  1.3013
  114MOL   H11916165   7.719   5.349   5.745  0.9224  1.3600  1.2250
  114MOL   H12016166   7.591   5.369   5.865  0.3725 -1.5588  0.9167
  114MOL   C12116167   7.529   5.518   5.658  0.0934  0.4098  0.4852
  114MOL   C12216168   7.443   5.570   5.538 -0.5362 -0.2202 -0.4498
  114MOL   O12316169   7.513   5.559   5.412 -0.0301  0.0848  0.2278
  114MOL   H12416170   7.500   5.558   5.755  0.0199  0.8701  0.2764
  114MOL   H12516171   7.635   5.538   5.642 -0.1637  1.7524  0.4012
  114MOL   H12616172   7.417   5.676   5.549  0.0843  0.0888 -1.8724
  114MOL   H12716173   7.348   5.519   5.528 -0.8419  0.4725 -1.1277
  114MOL   C12816174   7.421   5.573   5.299 -0.2803  0.5430 -1.0173
  114MOL   C12916175   7.380   5.723   5.277 -0.4153  0.0493  0.6909
  114MOL   O13016176   7.294   5.767   5.382 -0.8095  0.1191 -0.1574
  114MOL   H13116177   7.469   5.539   5.207  0.2459 -0.6387 -0.3116
  114MOL   H13216178   7.338   5.506   5.319 -1.4772  2.0570 -0.7992
  114MOL   H13316179   7.317   5.711   5.189 -1.3043 -1.0088  1.4569
  114MOL   H13416180   7.464   5.791   5.261 -0.6036  0.6762  2.2849
  114MOL   C13516181   7.248   5.898   5.354  0.2689  0.4979 -0.4607
  114MOL   C13616182   7.146   5.920   5.466 -0.5608  0.3908  0.5502
  114MOL   O13716183   7.040   5.824   5.463  0.4107  0.3221 -0.1064
  114MOL   H13816184   7.329   5.971   5.360 -0.1704  1.1031 -1.9193
  114MOL   H13916185   7.205   5.918   5.256 -1.5201  0.6188  0.3376
  114MOL   H14016186   7.104   6.020   5.462  1.4922  1.2370 -0.4639
  114MOL   H14116187   7.189   5.917   5.566 -0.0678 -1.6020  0.2956
  114MOL   H14216188   7.087   5.750   5.427  0.5626  1.0785 -1.4928
  115MOL     C116189   2.345   6.139   1.603  0.2064 -0.4952  0.0387
  115MOL     C216190   2.364   6.193   1.746 -0.1929 -0.1954 -0.2127
  115MOL     O316191   2.253   6.229   1.826 -0.4902  0.3421 -0.3735
  115MOL     H416192   2.312   6.036   1.612 -2.9223  0.5369  0.7215
  115MOL     H516193   2.446   6.149   1.561  0.7166 -1.1779  1.0879
  115MOL     H616194   2.430   6.279   1.745 -0.4881  0.0272 -0.6691
  115MOL     H716195   2.421   6.116   1.797  0.5748  0.3239 -0.2854
  115MOL     H816196   2.277   6.189   1.534 -1.3024 -1.5796  0.7316
  115MOL     C916197   2.288   6.277   1.957 -0.8050  0.6760  0.2947
  115MOL    C1016198   2.170   6.316   2.032  0.2039  0.3815 -0.2781
  115MOL    O1116199   2.139   6.451   2.035 -0.2503  0.3222  0.0306
  115MOL    H1216200   2.330   6.190   2.008 -1.0227  0.7344  0.5739
  115MOL    H1316201   2.373   6.344   1.959  0.5245 -0.7717 -3.0220
  115MOL    H1416202   2.188   6.277   2.132  1.0469  0.1532 -0.5170
  115MOL    H1516203   2.083   6.256   2.009 -0.4648  0.6290  1.5327
  115MOL    C1616204   2.065   6.489   2.146  1.1355  0.2477 -0.8119
  115MOL    C1716205   2.055   6.642   2.149  0.9112 -0.5259 -0.3832
  115MOL    O1816206   1.951   6.701   2.063 -0.4081 -0.0743  0.4275
  115MOL    H1916207   1.966   6.448   2.127  1.0147  0.4835 -0.6869
  115MOL    H2016208   2.098   6.458   2.245  0.9540  2.8752  0.1102
  115MOL    H2116209   2.153   6.678   2.119  0.2511  1.3841 -0.3227
  115MOL    H2216210   2.042   6.680   2.250  1.4363 -2.9021  0.6058
  115MOL    C2316211   1.817   6.695   2.105 -0.0515  0.5873  0.6815
  115MOL    C2416212   1.730   6.807   2.030  0.2140  0.0441  0.2507
  115MOL    O2516213   1.751   6.940   2.075 -0.6424  0.6116  0.4201
  115MOL    H2616214   1.785   6.598   2.068  1.6547 -0.8744  3.0096
  115MOL    H2716215   1.811   6.703   2.213 -1.3675  1.6057  0.5572
  115MOL    H2816216   1.630   6.785   2.066 -0.3650  0.9994 -0.7548
  115MOL    H2916217   1.726   6.782   1.924  2.6407  0.5040  0.0237
  115MOL    C3016218   1.857   7.006   2.018  0.2117 -0.4513  0.7509
  115MOL    C3116219   1.853   7.156   2.054  0.0172 -0.5142 -0.1312
  115MOL    O3216220   1.919   7.187   2.177 -0.2628  0.1157 -1.0277
  115MOL    H3316221   1.953   6.967   2.053 -0.9045 -3.5237  0.5402
  115MOL    H3416222   1.857   6.996   1.910 -1.7144  0.5248  0.6451
  115MOL    H3516223   1.749   7.186   2.065 -0.5163 -2.2983 -0.1273
  115MOL    H3616224   1.894   7.218   1.974 -0.5691 -1.4607 -1.1898
  115MOL    C3716225   1.935   7.328   2.200 -0.2238 -0.9310  0.2340
  115MOL    C3816226   2.045   7.349   2.299  0.1586  0.2671  0.4485
  115MOL    O3916227   2.170   7.341   2.230 -0.0193  0.4788 -0.6513
  115MOL    H4016228   1.971   7.379   2.110  1.8931  0.5170  1.8474
  115MOL    H4116229   1.839   7.369   2.231 -0.6843 -1.6083 -0.2620
  115MOL    H4216230   2.034   7.280   2.383  2.5318 -2.1711 -1.1573
  115MOL    H4316231   2.036   7.450   2.339  0.3838  0.6707 -0.4871
  115MOL    C4416232   2.278   7.361   2.323 -0.2078 -0.4759 -0.1975
  115MOL    C4516233   2.408   7.368   2.239  0.7256  1.1300  0.1738
  115MOL    O4616234   2.439   7.234   2.196 -0.0188 -0.0877 -0.3498
  115MOL    H4716235   2.272   7.462   2.363  1.2268 -0.5088  0.1266
  115MOL    H4816236   2.264   7.297   2.410 -1.2027 -0.0774 -0.0555
  115MOL    H4916237   2.490   7.417   2.292 -0.0591 -0.7225  3.2664
  115MOL    H5016238   2.396   7.427   2.149 -3.2829 -3.4873 -2.5143
  115MOL    C5116239   2.516   7.157   2.286  0.1787  0.3839 -0.2278
  115MOL    C5216240   2.565   7.023   2.233 -0.6776  0.0617 -0.0688
  115MOL    O5316241   2.631   6.959   2.339 -0.2913  0.1389 -0.1044
  115MOL    H5416242   2.602   7.217   2.314  1.2979 -0.5257 -1.6507
  115MOL    H5516243   2.453   7.130   2.371  0.3322  0.4028 -0.1077
  115MOL    H5616244   2.630   7.046   2.149 -1.7062  0.3682 -0.7866
  115MOL    H5716245   2.484   6.957   2.200 -0.5836  1.3329 -2.9985
  115MOL    C5816246   2.730   6.870   2.279 -0.0070  0.2625 -0.7210
  115MOL    C5916247   2.802   6.782   2.385  0.0312  1.1349  0.1087
  115MOL    O6016248   2.916   6.853   2.438 -0.1804 -0.0187 -0.2260
  115MOL    H6116249   2.679   6.804   2.209 -0.1970  0.6671 -0.9614
  115MOL    H6216250   2.807   6.917   2.218  0.8170  0.8321  0.7096
  115MOL    H6316251   2.834   6.688   2.341  0.4398  0.3359  2.0247
  115MOL    H6416252   2.729   6.755   2.461 -0.5792 -0.7401 -1.1162
  115MOL    C6516253   2.890   6.946   2.542  0.1122  0.5380 -0.8500
  115MOL    C6616254   3.020   7.006   2.604  0.7253 -0.5151  0.6253
  115MOL    O6716255   2.996   7.133   2.667  0.1332 -0.2166 -0.1797
  115MOL    H6816256   2.836   7.027   2.493  2.7816  1.2084 -2.8129
  115MOL    H6916257   2.840   6.900   2.628  1.6072  2.6941  1.2628
  115MOL    H7016258   3.098   7.006   2.528 -1.1272  0.9705 -1.3354
  115MOL    H7116259   3.054   6.932   2.677 -0.9333  1.1118  3.1251
  115MOL    C7216260   3.066   7.240   2.610 -0.1003  0.2550 -0.1491
  115MOL    C7316261   3.218   7.235   2.634 -0.1505  0.1545 -0.0158
  115MOL    O7416262   3.288   7.176   2.524 -0.6205 -0.2471 -0.1525
  115MOL    H7516263   3.050   7.250   2.503 -1.9827 -3.5721 -0.3025
  115MOL    H7616264   3.020   7.330   2.653  0.5273  0.5133 -0.0070
  115MOL    H7716265   3.246   7.189   2.729 -1.3420 -0.2192  0.1535
  115MOL    H7816266   3.244   7.340   2.649  1.9941 -0.0248 -2.0172
  115MOL    C7916267   3.427   7.197   2.534  0.2377 -0.2410 -0.3833
  115MOL    C8016268   3.505   7.148   2.407  0.1493 -0.2382  0.0323
  115MOL    O8116269   3.629   7.080   2.444 -0.6131  0.2084 -0.3873
  115MOL    H8216270   3.436   7.304   2.551 -0.8167  0.2344 -2.6171
  115MOL    H8316271   3.464   7.153   2.627  3.5231 -0.0869 -1.5327
  115MOL    H8416272   3.526   7.227   2.335  2.1101  0.5844  1.4725
  115MOL    H8516273   3.439   7.076   2.359 -1.8071  0.5053  1.4894
  115MOL    C8616274   3.717   7.166   2.524  0.0175 -0.0529  0.0618
  115MOL    C8716275   3.848   7.091   2.554  0.5328 -0.6698 -0.0097
  115MOL    O8816276   3.933   7.162   2.646 -0.1260  0.4247 -0.0217
  115MOL    H8916277   3.742   7.256   2.469  0.6309 -1.2559 -1.7063
  115MOL    H9016278   3.664   7.190   2.615  0.8284  0.7381  0.3370
  115MOL    H9116279   3.902   7.069   2.462  0.2398 -1.9578  0.1112
  115MOL    H9216280   3.813   6.998   2.599  0.6083 -2.0779 -2.7490
  115MOL    C9316281   3.907   7.135   2.776 -0.0680  0.3467 -1.0551
  115MOL    C9416282   3.981   7.241   2.862  0.6665  0.4925  0.0546
  115MOL    O9516283   3.960   7.224   3.008  0.4648 -0.0649  0.1946
  115MOL    H9616284   3.802   7.141   2.806  0.5556  3.3532  0.7791
  115MOL    H9716285   3.936   7.032   2.797  2.6344  0.8178 -2.3279
  115MOL    H9816286   3.956   7.342   2.829  1.3467  0.3998 -0.7652
  115MOL    H9916287   4.089   7.230   2.852  0.6068 -0.4343  0.3352
  115MOL   C10016288   4.030   7.322   3.085 -0.9626 -1.0675 -0.1658
  115MOL   C10116289   3.968   7.328   3.228  0.1680  0.3732  0.2673
  115MOL   O10216290   4.013   7.228   3.317 -0.2907 -0.3444  0.1229
  115MOL   H10316291   4.138   7.318   3.086 -0.8274  1.0373 -1.8384
  115MOL   H10416292   4.014   7.418   3.034 -0.7442  0.0035  1.7165
  115MOL   H10516293   3.861   7.317   3.212  0.2301 -0.4323  0.3744
  115MOL   H10616294   3.991   7.419   3.283  1.7757  0.0156  0.2193
  115MOL   C10716295   4.139   7.266   3.374 -0.4146  0.3748 -0.5265
  115MOL   C10816296   4.210   7.124   3.399 -0.6660 -0.1654 -0.1356
  115MOL   O10916297   4.231   7.081   3.265  0.6110  0.4370  0.7196
  115MOL   H11016298   4.191   7.340   3.313 -1.8610  3.5099  1.9417
  115MOL   H11116299   4.114   7.327   3.460  2.1855  1.2666 -0.3768
  115MOL   H11216300   4.168   7.042   3.457  1.1615 -1.4733 -0.6187
  115MOL   H11316301   4.301   7.146   3.455 -0.8481 -2.4548  1.1136
  115MOL   C11416302   4.282   6.951   3.249 -0.4138  0.1004 -0.1782
  115MOL   C11516303   4.433   6.963   3.273  0.3533  0.4586 -0.3356
  115MOL   O11616304   4.465   6.990   3.411 -0.2673  0.4503  0.2953
  115MOL   H11716305   4.247   6.887   3.330 -0.0789 -1.3287 -1.1339
  115MOL   H11816306   4.252   6.911   3.152  1.6152  0.5064 -1.0161
  115MOL   H11916307   4.468   7.044   3.209  1.4257  0.4905  0.2811
  115MOL   H12016308   4.483   6.875   3.230  0.5554 -0.3518  1.5201
  115MOL   C12116309   4.604   6.966   3.432 -0.0087  0.4774  0.8793
  115MOL   C12216310   4.683   7.075   3.370 -0.1779  0.4617 -0.2981
  115MOL   O12316311   4.707   7.059   3.230 -0.5742  0.1835 -0.2206
  115MOL   H12416312   4.624   6.962   3.539  1.4869  1.3678  0.6479
  115MOL   H12516313   4.641   6.870   3.396  2.9998  2.2413 -0.9497
  115MOL   H12616314   4.781   7.065   3.416 -0.0668 -1.1993 -0.8662
  115MOL   H12716315   4.633   7.166   3.404  2.3679  0.9062  2.4174
  115MOL   C12816316   4.800   7.161   3.188 -0.2377 -0.1328  0.5486
  115MOL   C12916317   4.807   7.140   3.030  0.0838 -0.2620  0.4958
  115MOL   O13016318   4.894   7.027   3.012 -0.4609 -0.2924  0.3193
  115MOL   H13116319   4.762   7.258   3.217  1.7876  1.1844 -1.0457
  115MOL   H13216320   4.899   7.136   3.225  0.2176  0.6114 -0.1351
  115MOL   H13316321   4.844   7.230   2.981  0.8626 -1.4146 -1.1152
  115MOL   H13416322   4.716   7.123   2.972  0.4221 -0.4953  0.0257
  115MOL   C13516323   4.948   7.020   2.881  0.1319 -0.0569  0.1444
  115MOL   C13616324   5.016   6.883   2.867  0.0049  0.2870 -0.6484
  115MOL   O13716325   4.928   6.803   2.786 -0.2695  0.6450 -0.1695
  115MOL   H13816326   4.873   7.020   2.802  0.7349 -1.3946 -0.4394
  115MOL   H13916327   5.011   7.109   2.871 -0.2059  0.2390  0.6070
  115MOL   H14016328   5.028   6.832   2.962  0.9865 -1.2878 -1.5963
  115MOL   H14116329   5.108   6.883   2.809 -0.7210  1.4107 -1.8355
  115MOL   H14216330   4.932   6.843   2.700  0.5919  1.6590  0.3352
  116MOL     C116331   0.403   6.890   7.603  0.2801  0.9064 -0.2824
  116MOL     C216332   0.455   6.990   7.710  0.0607 -0.3288  0.4027
  116MOL     O316333   0.359   7.086   7.746  0.1778  0.1999  0.6909
  116MOL     H416334   0.462   6.799   7.602 -1.2443 -0.1213  1.2331
  116MOL     H516335   0.409   6.939   7.506  0.8695  0.0022 -0.7003
  116MOL     H616336   0.547   7.036   7.675  0.4238 -2.6456 -1.8454
  116MOL     H716337   0.478   6.941   0.034 -0.8518  0.7221  1.1761
  116MOL     H816338   0.297   6.874   7.623 -0.0254  3.2557  0.2129
  116MOL     C916339   0.412   7.182   0.063 -0.1082 -0.3581  0.1631
  116MOL    C1016340   0.335   7.310   0.047  0.2962 -0.1969 -0.0941
  116MOL    O1116341   0.376   7.373   7.702 -1.0631  0.2524  0.4042
  116MOL    H1216342   0.405   7.146   0.165 -0.5679  0.0447  0.2738
  116MOL    H1316343   0.518   7.203   0.046  0.6591 -2.8770  1.5276
  116MOL    H1416344   0.368   7.372   0.131  1.3551 -3.2458  1.8263
  116MOL    H1516345   0.229   7.285   0.039  0.4368 -0.8229 -0.0096
  116MOL    C1616346   0.301   7.488   7.677 -0.6647  0.3334 -0.6684
  116MOL    C1716347   0.345   7.571   7.553 -0.0058  0.4326  0.4871
  116MOL    O1816348   0.316   7.488   7.435  0.0816 -0.5702 -0.3759
  116MOL    H1916349   0.195   7.464   7.664 -0.4436 -0.3335 -1.2321
  116MOL    H2016350   0.298   7.542   0.001  0.6586  0.2538 -0.5709
  116MOL    H2116351   0.442   7.621   7.554  0.6736 -0.8390 -0.5781
  116MOL    H2216352   0.280   7.657   7.549  1.2877  1.3414 -1.6542
  116MOL    C2316353   0.362   7.550   7.315 -0.3606 -0.1326 -0.2950
  116MOL    C2416354   0.352   7.468   7.188  0.2272  0.0239 -0.5575
  116MOL    O2516355   0.446   7.505   7.091  0.3883 -0.0944 -0.1589
  116MOL    H2616356   0.312   7.647   7.310  1.2114  0.7349  0.2063
  116MOL    H2716357   0.469   7.572   7.324  0.4034 -3.1776 -1.6741
  116MOL    H2816358   0.248   7.468   7.153  0.8178 -0.5686 -2.3672
  116MOL    H2916359   0.363   7.360   7.205  1.0544  0.4932  2.1842
  116MOL    C3016360   0.480   7.412   6.989  0.3201  0.8979  0.2229
  116MOL    C3116361   0.605   7.326   7.032 -0.2376 -0.2324 -0.7153
  116MOL    O3216362   0.559   7.204   7.103  0.9012 -0.4854  0.2474
  116MOL    H3316363   0.393   7.360   6.948  0.8883 -0.0181  0.1464
  116MOL    H3416364   0.510   7.466   6.899  1.5574 -0.7918 -0.4076
  116MOL    H3516365   0.673   7.383   7.094  0.2987  0.0425 -1.5446
  116MOL    H3616366   0.660   7.300   6.941  1.2132  2.3506 -0.6163
  116MOL    C3716367   0.497   7.104   7.023 -0.2407  0.7156  0.0219
  116MOL    C3816368   0.466   6.989   7.117  0.1130 -0.5689  0.9175
  116MOL    O3916369   0.372   6.906   7.058  0.5142  0.0586  0.4383
  116MOL    H4016370   0.410   7.140   6.970  1.1721  2.0828 -1.4029
  116MOL    H4116371   0.560   7.072   6.940 -0.0215 -2.8632  1.4578
  116MOL    H4216372   0.436   7.032   7.213  0.6467  1.0414  0.3695
  116MOL    H4316373   0.559   6.938   7.140  1.0776 -1.1525 -3.8713
  116MOL    C4416374   0.340   6.795   7.142 -0.5691 -0.1000 -0.0876
  116MOL    C4516375   0.228   6.710   7.073 -0.0102  0.1261 -0.3379
  116MOL    O4616376   0.279   6.626   6.976 -0.0823  0.2165  0.1474
  116MOL    H4716377   0.436   6.745   7.156  0.5852  1.5094 -1.9873
  116MOL    H4816378   0.321   6.833   7.243 -3.4047  1.8300 -1.2621
  116MOL    H4916379   0.148   6.759   7.018  1.9056  1.8092 -1.7240
  116MOL    H5016380   0.179   6.639   7.140 -1.0159  1.6635  0.5606
  116MOL    C5116381   0.183   6.521   6.940  0.0245  0.1687  0.4769
  116MOL    C5216382   0.200   6.396   7.027 -0.0763  0.7461  0.1107
  116MOL    O5316383   0.326   6.330   6.992  0.1480 -0.0969 -0.0222
  116MOL    H5416384   0.080   6.557   6.951 -0.0171  0.1865  0.0683
  116MOL    H5516385   0.199   6.496   6.835 -2.9261  0.0293  0.0194
  116MOL    H5616386   0.112   6.334   7.008  0.4721 -0.2581  0.8206
  116MOL    H5716387   0.201   6.417   7.134  0.2257 -0.0720  0.2717
  116MOL    C5816388   0.362   6.219   7.074  0.0355 -0.5259 -0.7473
  116MOL    C5916389   0.491   6.152   7.030 -0.1186  0.4695  0.6002
  116MOL    O6016390   0.461   6.068   6.920 -0.0203 -0.3329 -0.1416
  116MOL    H6116391   0.366   6.262   7.174  1.2997  2.1507 -1.8960
  116MOL    H6216392   0.274   6.156   7.089 -0.1536 -0.1646 -0.3226
  116MOL    H6316393   0.520   6.096   7.119 -1.1550  1.7919  1.7950
  116MOL    H6416394   0.562   6.232   7.008 -3.1944  3.3564  0.7395
  116MOL    C6516395   0.575   6.023   6.849  0.2104  0.1812 -0.0107
  116MOL    C6616396   0.613   6.133   6.751  0.1607 -0.1608 -0.3338
  116MOL    O6716397   0.529   6.142   6.634 -0.0736 -0.0429  0.3054
  116MOL    H6816398   0.653   6.008   6.923  1.3896  1.0916 -1.0565
  116MOL    H6916399   0.569   5.928   6.797  1.0920  0.6079 -0.8948
  116MOL    H7016400   0.715   6.110   6.721  0.7947 -0.2574  1.8226
  116MOL    H7116401   0.600   6.234   6.792  0.8464 -0.2755  0.1785
  116MOL    C7216402   0.589   6.209   6.521 -0.8027  0.1008  0.1552
  116MOL    C7316403   0.660   6.099   6.433 -0.1995 -0.3856  0.1913
  116MOL    O7416404   0.793   6.095   6.471  0.2470  0.1914 -0.4183
  116MOL    H7516405   0.502   6.243   6.463 -1.2131  0.6803  1.1089
  116MOL    H7616406   0.653   6.294   6.542  1.3869 -1.0941 -1.4309
  116MOL    H7716407   0.657   6.136   6.330  1.5723  0.2633  0.3427
  116MOL    H7816408   0.611   6.002   6.442 -1.5623  0.3811  1.2921
  116MOL    C7916409   0.878   6.022   6.385  0.1136 -0.4303  0.1927
  116MOL    C8016410   1.023   6.049   6.415 -0.0771  0.0657  0.4561
  116MOL    O8116411   1.059   6.187   6.404  0.2987  0.1796 -0.2454
  116MOL    H8216412   0.857   5.915   6.394 -0.4174 -0.7310 -3.6910
  116MOL    H8316413   0.850   6.044   6.282  3.9620  1.0270 -0.6105
  116MOL    H8416414   1.075   5.984   6.344 -0.1525 -1.9747  2.2452
  116MOL    H8516415   1.043   6.017   6.517 -1.3981 -0.0353  0.6948
  116MOL    C8616416   1.143   6.233   6.512 -0.0349  0.0951 -0.2225
  116MOL    C8716417   1.191   6.372   6.489 -0.2309  0.3517  0.2124
  116MOL    O8816418   1.276   6.391   6.379 -0.1114 -0.2538  0.6153
  116MOL    H8916419   1.083   6.227   6.603  0.2167  0.0117 -0.0619
  116MOL    H9016420   1.229   6.167   6.519 -1.4982 -1.8870 -0.3165
  116MOL    H9116421   1.229   6.420   6.580 -2.6218  0.0705  1.4038
  116MOL    H9216422   1.101   6.432   6.471 -1.8762 -2.7615 -2.3035
  116MOL    C9316423   1.334   6.519   6.377  0.7257  0.2063  0.6490
  116MOL    C9416424   1.405   6.536   6.241  0.3779 -0.2132  0.3975
  116MOL    O9516425   1.319   6.520   6.134  0.4467 -0.1064  0.1100
  116MOL    H9616426   1.257   6.595   6.386 -0.6766 -0.8668 -1.7163
  116MOL    H9716427   1.395   6.545   6.463 -0.2565  2.2935  0.7349
  116MOL    H9816428   1.495   6.477   6.225  0.3891  0.8134 -3.7849
  116MOL    H9916429   1.447   6.636   6.234 -0.6141  0.1109 -1.0275
  116MOL   C10016430   1.388   6.492   6.012  0.2621 -0.7755 -0.2123
  116MOL   C10116431   1.461   6.611   5.955 -0.5209  0.1254 -0.2528
  116MOL   O10216432   1.367   6.704   5.910 -0.1567 -0.0982  0.0978
  116MOL   H10316433   1.449   6.403   6.027  1.6863  0.3656  0.9755
  116MOL   H10416434   1.317   6.474   5.931  2.8372 -0.8135 -2.5298
  116MOL   H10516435   1.515   6.560   5.876  1.0496  0.2935  0.6979
  116MOL   H10616436   1.532   6.648   6.029 -0.4193  1.1723 -0.8681
  116MOL   C10716437   1.318   6.704   5.776 -0.0934  0.0182  1.2326
  116MOL   C10816438   1.202   6.813   5.767 -0.0411  0.6818  0.5535
  116MOL   O10916439   1.221   6.859   5.628 -0.4391  0.4448 -0.0472
  116MOL   H11016440   1.402   6.720   5.708 -2.0837 -0.3451 -1.3634
  116MOL   H11116441   1.271   6.607   5.758 -1.9207  0.7650  1.9144
  116MOL   H11216442   1.232   6.884   5.843 -1.5941  0.0044  1.8324
  116MOL   H11316443   1.102   6.772   5.784  0.2867  0.0133  0.9020
  116MOL   C11416444   1.123   6.961   5.597 -0.5669 -0.0354 -0.7501
  116MOL   C11516445   1.174   7.048   5.482  0.1174  0.4531  0.2736
  116MOL   O11616446   1.094   7.169   5.486 -0.5966  0.0928 -0.1957
  116MOL   H11716447   1.024   6.915   5.602 -0.4723 -0.0556  1.8789
  116MOL   H11816448   1.116   7.027   5.684  0.2184  0.5004 -1.0983
  116MOL   H11916449   1.178   6.984   5.393  0.2262  0.4149  0.3068
  116MOL   H12016450   1.275   7.079   5.506  0.5598 -1.0260  0.3870
  116MOL   C12116451   1.117   7.240   5.369 -0.4613  0.2900  0.8423
  116MOL   C12216452   1.009   7.348   5.358 -0.4167 -0.6310 -0.3414
  116MOL   O12316453   0.888   7.295   5.304 -0.3457 -0.0603  0.1682
  116MOL   H12416454   1.213   7.291   5.373 -0.0997 -0.3440  0.4214
  116MOL   H12516455   1.116   7.186   5.274  1.1864  1.3846  0.1756
  116MOL   H12616456   1.052   7.431   5.302 -1.8482  2.2098  2.6534
  116MOL   H12716457   0.995   7.380   5.461 -1.4330  1.8713 -1.2221
  116MOL   C12816458   0.793   7.397   5.284  0.4196 -0.0352 -0.1432
  116MOL   C12916459   0.671   7.324   5.225 -0.5054  0.7093  0.6393
  116MOL   O13016460   0.580   7.269   5.319  0.6065  0.3053 -0.2666
  116MOL   H13116461   0.790   7.456   5.376  1.6884  0.1085 -0.1833
  116MOL   H13216462   0.846   7.458   5.211 -0.0009  0.0974 -0.3413
  116MOL   H13316463   0.701   7.250   5.151 -0.9970  0.9753  0.1742
  116MOL   H13416464   0.616   7.401   5.171  0.3298  2.8283  2.7078
  116MOL   C13516465   0.493   7.178   5.247  0.5468 -0.0147  0.0574
  116MOL   C13616466   0.380   7.152   5.343 -0.1086  0.1846 -0.8616
  116MOL   O13716467   0.427   7.065   5.438  0.1377  0.2893  0.0623
  116MOL   H13816468   0.456   7.230   5.159  0.5703  1.6975  1.0334
  116MOL   H13916469   0.556   7.095   5.215  3.6293  1.9958  0.7108
  116MOL   H14016470   0.294   7.096   5.308  2.0800 -3.4070 -0.7273
  116MOL   H14116471   0.336   7.243   5.383  0.9686  1.3526 -2.2823
  116MOL   H14216472   0.510   7.105   5.460  0.9230 -1.6219  0.6069
  117MOL     C116473   1.962   2.756   4.244  0.1341  0.1612 -0.6404
  117MOL     C216474   1.838   2.792   4.335  0.5431 -0.2752  0.6144
  117MOL     O316475   1.854   2.923   4.384 -0.3722  0.2838  0.0817
  117MOL     H416476   1.973   2.649   4.225 -0.0859  0.1428 -0.6762
  117MOL     H516477   2.055   2.779   4.295 -0.1105 -1.2630  0.4900
  117MOL     H616478   1.830   2.716   4.413 -0.1519 -1.0987 -0.2469
  117MOL     H716479   1.748   2.780   4.275  0.4009 -1.0343  0.9700
  117MOL     H816480   1.977   2.821   4.158  3.4697 -0.6336 -0.7169
  117MOL     C916481   1.750   2.965   4.467  0.1718  0.3412 -0.3518
  117MOL    C1016482   1.776   3.111   4.509 -0.2876  0.5499  0.1404
  117MOL    O1116483   1.722   3.153   4.638 -0.2392  0.2752  0.2485
  117MOL    H1216484   1.657   2.958   4.412 -0.2152  0.6737  0.2522
  117MOL    H1316485   1.745   2.910   4.561  1.9694  0.8929  0.0946
  117MOL    H1416486   1.733   3.175   4.432  1.2187  0.5722 -0.7130
  117MOL    H1516487   1.884   3.127   4.503 -0.4039  0.5548 -2.9174
  117MOL    C1616488   1.716   3.289   4.662  0.0545  0.1190  0.0484
  117MOL    C1716489   1.655   3.310   4.792  0.3494 -0.1082 -1.0064
  117MOL    O1816490   1.512   3.302   4.768  0.0910 -0.2312 -0.0769
  117MOL    H1916491   1.814   3.334   4.645  0.2454 -0.6075 -0.7539
  117MOL    H2016492   1.662   3.340   4.583  1.5487  1.5308 -0.0851
  117MOL    H2116493   1.682   3.395   4.855 -2.1976 -0.3291  0.4305
  117MOL    H2216494   1.683   3.224   4.853  1.9215 -1.4949 -3.5913
  117MOL    C2316495   1.453   3.438   4.754  0.1858 -0.3687  0.4345
  117MOL    C2416496   1.307   3.419   4.703 -0.5004  0.6731 -0.0167
  117MOL    O2516497   1.291   3.375   4.564  0.3490 -0.1231  0.2248
  117MOL    H2616498   1.458   3.496   4.847 -0.8259  1.8087 -0.8176
  117MOL    H2716499   1.504   3.488   4.672 -1.2206 -0.2618 -0.3809
  117MOL    H2816500   1.251   3.509   4.729  0.5813  1.2041  0.5104
  117MOL    H2916501   1.273   3.332   4.759  0.3798 -1.6589 -2.9792
  117MOL    C3016502   1.158   3.337   4.525 -0.0780  0.1661  0.5249
  117MOL    C3116503   1.120   3.201   4.588 -0.2870 -0.3016 -0.1785
  117MOL    O3216504   1.173   3.083   4.524  0.1421  1.0439  0.0937
  117MOL    H3316505   1.078   3.407   4.547  0.0972  0.6920 -0.4847
  117MOL    H3416506   1.166   3.324   4.417  2.0458 -3.6314  1.0350
  117MOL    H3516507   1.011   3.204   4.590 -0.2553  3.0658 -1.1037
  117MOL    H3616508   1.160   3.188   4.689  0.1573  0.0685 -0.3037
  117MOL    C3716509   1.310   3.074   4.505  0.6565 -0.7900 -0.5874
  117MOL    C3816510   1.345   2.991   4.381  0.1976  0.4060  1.0734
  117MOL    O3916511   1.314   2.852   4.400  0.4569 -0.0225  0.3187
  117MOL    H4016512   1.359   3.169   4.484 -1.1599  0.6445  1.3927
  117MOL    H4116513   1.357   3.033   4.594  1.4257  0.0612 -0.5999
  117MOL    H4216514   1.448   2.997   4.346 -1.1362  0.2442 -3.1188
  117MOL    H4316515   1.279   3.025   4.302 -1.8443 -2.0547  1.6339
  117MOL    C4416516   1.435   2.788   4.444  0.3559  0.4997 -0.2295
  117MOL    C4516517   1.405   2.645   4.466  0.0335  0.0616  0.4835
  117MOL    O4616518   1.389   2.571   4.346 -0.7683  0.3109 -0.1888
  117MOL    H4716519   1.506   2.801   4.362 -0.1135  3.4893 -0.2052
  117MOL    H4816520   1.471   2.830   4.538  0.0741 -1.8742  0.9821
  117MOL    H4916521   1.306   2.633   4.510 -0.2820 -0.8157 -0.4374
  117MOL    H5016522   1.480   2.601   4.530 -1.1983 -1.6761  0.7574
  117MOL    C5116523   1.355   2.433   4.371  0.1823 -0.4767 -0.3721
  117MOL    C5216524   1.204   2.410   4.367  0.1153 -0.2627  0.5282
  117MOL    O5316525   1.143   2.478   4.472  0.5208 -0.1182  0.3019
  117MOL    H5416526   1.415   2.374   4.302  2.3293 -0.5573  1.5165
  117MOL    H5516527   1.390   2.405   4.471  2.1774  2.3818 -0.2258
  117MOL    H5616528   1.182   2.304   4.353 -0.9631  0.0192  0.1113
  117MOL    H5716529   1.159   2.453   4.278 -0.6301  1.0493  1.5273
  117MOL    C5816530   1.149   2.406   4.596  0.0233  0.6007  0.2712
  117MOL    C5916531   1.013   2.330   4.617  0.5023  0.2268 -0.1171
  117MOL    O6016532   1.016   2.221   4.528 -0.4331 -0.3692 -0.8493
  117MOL    H6116533   1.240   2.350   4.614 -1.2668 -1.2485  1.1998
  117MOL    H6216534   1.140   2.470   4.684  0.9850  1.4851 -0.2642
  117MOL    H6316535   0.916   2.379   4.608 -0.1208 -0.8966  0.4272
  117MOL    H6416536   1.011   2.287   4.717 -1.0163 -2.4889 -1.2755
  117MOL    C6516537   0.935   2.105   4.560 -0.2570  0.1517  0.3080
  117MOL    C6616538   0.973   1.982   4.475 -0.2251  0.2502  0.1527
  117MOL    O6716539   1.072   1.895   4.543 -0.2125  0.2104 -0.5558
  117MOL    H6816540   0.953   2.077   4.664 -0.6162 -0.7753  0.1246
  117MOL    H6916541   0.830   2.135   4.550 -0.2363 -0.2891 -1.3291
  117MOL    H7016542   0.970   1.994   4.367 -1.2990 -0.5960  0.0706
  117MOL    H7116543   0.887   1.917   4.493 -0.9448  0.9454 -0.7375
  117MOL    C7216544   1.090   1.770   4.487 -0.4019 -0.2309  0.6756
  117MOL    C7316545   1.223   1.715   4.537  0.0362  0.0077 -0.0327
  117MOL    O7416546   1.201   1.670   4.669 -0.1490  0.2267 -0.2711
  117MOL    H7516547   1.013   1.699   4.516 -1.5814 -0.0512 -1.9407
  117MOL    H7616548   1.094   1.777   4.379 -1.8428  0.8483  0.6827
  117MOL    H7716549   1.294   1.797   4.537 -0.6873  0.6665  2.0257
  117MOL    H7816550   1.253   1.626   4.481 -0.4280 -0.6572  0.7618
  117MOL    C7916551   1.328   1.624   4.730 -0.0649  0.1184 -0.3625
  117MOL    C8016552   1.295   1.573   4.871 -0.0398  0.9195  0.7834
  117MOL    O8116553   1.297   1.672   4.978  0.3605 -0.4232  0.1998
  117MOL    H8216554   1.346   1.526   4.687 -1.5084 -0.1993 -0.2842
  117MOL    H8316555   1.414   1.691   4.724  0.1136  0.0702  1.4405
  117MOL    H8416556   1.380   1.511   4.897  0.8662  1.4416 -0.8589
  117MOL    H8516557   1.212   1.502   4.871  1.4351 -0.9542 -2.8024
  117MOL    C8616558   1.168   1.703   5.034 -0.9399  0.2618  0.1865
  117MOL    C8716559   1.187   1.799   5.159  0.4753 -0.1350 -0.4908
  117MOL    O8816560   1.236   1.730   5.276  0.7654 -0.3439  0.0220
  117MOL    H8916561   1.108   1.751   4.957  1.3574  0.7954 -1.3344
  117MOL    H9016562   1.111   1.615   5.063  0.8344 -0.3626  1.9289
  117MOL    H9116563   1.091   1.842   5.186  1.3992  1.1845  0.7326
  117MOL    H9216564   1.264   1.868   5.126  0.4482  1.4894  2.7078
  117MOL    C9316565   1.294   1.810   5.370 -0.3262  0.2395 -0.0272
  117MOL    C9416566   1.216   1.942   5.411 -0.6389 -0.3094  0.0339
  117MOL    O9516567   1.088   1.904   5.452  0.0728  0.5624 -0.9043
  117MOL    H9616568   1.317   1.736   5.448 -1.5462  0.7513  0.8421
  117MOL    H9716569   1.391   1.836   5.327 -0.3665  0.5878  0.0926
  117MOL    H9816570   1.225   2.023   5.338  0.2661 -0.6499 -0.2352
  117MOL    H9916571   1.266   1.973   5.503  1.8132 -1.2962 -0.9227
  117MOL   C10016572   1.017   1.999   5.530  0.4055 -0.1740 -0.4860
  117MOL   C10116573   0.976   2.129   5.460 -0.5211 -0.4736  0.1535
  117MOL   O10216574   1.090   2.212   5.453 -0.2293  1.5731  0.5823
  117MOL   H10316575   0.923   1.956   5.564 -0.1660  0.1048 -1.7084
  117MOL   H10416576   1.077   2.019   5.619 -0.1992 -4.1661  0.9049
  117MOL   H10516577   0.896   2.182   5.512  0.2345  0.4162  0.4054
  117MOL   H10616578   0.946   2.108   5.357 -0.6910 -1.6254  0.4261
  117MOL   C10716579   1.065   2.345   5.402 -0.3560  0.9205 -0.1963
  117MOL   C10816580   1.187   2.403   5.346 -0.4721 -0.6353  0.5157
  117MOL   O10916581   1.291   2.391   5.442 -0.4328  0.7834  0.2220
  117MOL   H11016582   0.994   2.345   5.319 -0.3766  1.4583 -0.1817
  117MOL   H11116583   1.022   2.410   5.478 -0.5387 -1.3243  1.6789
  117MOL   H11216584   1.169   2.495   5.291 -3.2125 -1.7856 -0.6232
  117MOL   H11316585   1.221   2.337   5.266 -0.1523 -0.7473  0.7419
  117MOL   C11416586   1.309   2.502   5.530 -0.4025  0.7260  0.0555
  117MOL   C11516587   1.409   2.469   5.634  0.5516  0.0080  0.3939
  117MOL   O11616588   1.507   2.396   5.557  0.2039 -0.6759  0.1680
  117MOL   H11716589   1.331   2.597   5.480 -2.4046 -0.6606 -3.6329
  117MOL   H11816590   1.216   2.521   5.584  0.1215  1.8696  0.5873
  117MOL   H11916591   1.359   2.410   5.711 -0.8315  0.8829  0.1884
  117MOL   H12016592   1.450   2.553   5.690 -0.9487  0.7241  0.4430
  117MOL   C12116593   1.627   2.374   5.634 -0.2442 -0.5060 -0.3478
  117MOL   C12216594   1.707   2.264   5.560 -0.4290 -0.5170 -0.2833
  117MOL   O12316595   1.643   2.138   5.595 -0.1022  0.2293  0.0204
  117MOL   H12416596   1.677   2.471   5.636  0.2123 -0.7389 -0.5048
  117MOL   H12516597   1.611   2.350   5.739  3.0005  0.4280  0.4124
  117MOL   H12616598   1.806   2.253   5.606  0.3942 -2.2904 -2.3625
  117MOL   H12716599   1.723   2.285   5.454 -0.4569 -1.5744 -0.5039
  117MOL   C12816600   1.549   2.108   5.497  0.0800  0.6142 -0.0941
  117MOL   C12916601   1.612   2.033   5.374 -0.1290 -0.1670  0.4712
  117MOL   O13016602   1.717   2.108   5.312 -0.4211  0.0750  0.1338
  117MOL   H13116603   1.489   2.032   5.547 -1.2055 -0.0174 -2.5051
  117MOL   H13216604   1.472   2.178   5.464 -1.9098 -1.7593 -0.6971
  117MOL   H13316605   1.532   1.993   5.312  0.6802 -2.4587  0.8592
  117MOL   H13416606   1.649   1.942   5.421 -1.3676 -1.1760 -0.4773
  117MOL   C13516607   1.781   2.036   5.200 -0.3197  0.2521 -0.2316
  117MOL   C13616608   1.912   2.098   5.173 -0.2792  0.6710  0.1264
  117MOL   O13716609   1.890   2.210   5.075  0.5384  0.1858  0.2997
  117MOL   H13816610   1.808   1.936   5.235 -1.1408 -0.0312 -0.4008
  117MOL   H13916611   1.721   2.023   5.110 -0.1238  0.2600 -0.3638
  117MOL   H14016612   1.976   2.024   5.125 -0.4847 -1.0567  2.4560
  117MOL   H14116613   1.964   2.128   5.264  0.8722 -0.5140 -0.1259
  117MOL   H14216614   1.830   2.273   5.111  1.3654  1.3876 -0.3845
  118MOL     C116615   6.872   7.340   1.901  0.5668  0.5470  0.6030
  118MOL     C216616   6.878   7.330   1.748 -0.3769 -0.1516  0.2830
  118MOL     O316617   6.988   7.249   1.701 -0.1966  0.0591  0.1221
  118MOL     H416618   6.772   7.362   1.939 -0.1702  0.3422 -1.1458
  118MOL     H516619   6.945   7.412   1.936  1.3749  1.1190 -2.1485
  118MOL     H616620   6.892   7.428   1.701 -1.5156 -1.0092 -1.9126
  118MOL     H716621   6.794   7.270   1.713  0.9267 -1.9740  0.1882
  118MOL     H816622   6.905   7.245   1.942  0.8550  0.2420 -0.3414
  118MOL     C916623   7.115   7.297   1.738 -0.3302 -0.5804  1.0207
  118MOL    C1016624   7.211   7.188   1.693  0.1764  0.1885 -0.1824
  118MOL    O1116625   7.330   7.207   1.766  0.3004  0.1248 -0.5379
  118MOL    H1216626   7.139   7.393   1.691 -0.1612 -0.3545  1.5548
  118MOL    H1316627   7.126   7.325   1.843 -1.8603 -1.0295  1.3095
  118MOL    H1416628   7.231   7.187   1.586  0.2676 -0.3461 -0.1598
  118MOL    H1516629   7.176   7.087   1.714  1.2318 -0.3141 -0.8021
  118MOL    C1616630   7.439   7.124   1.728 -0.7102  0.4695 -0.3090
  118MOL    C1716631   7.577   7.209   1.740  0.4898  0.4118  0.1639
  118MOL    O1816632   7.613   7.216   1.877  0.2318  0.4614 -0.6541
  118MOL    H1916633   7.442   7.035   1.791 -1.0666  0.7518  0.1146
  118MOL    H2016634   7.424   7.091   1.625 -0.8742 -1.5698  0.3434
  118MOL    H2116635   7.575   7.311   1.703  0.5753  0.2438 -0.2982
  118MOL    H2216636   7.662   7.154   1.700 -1.2062 -1.7583 -0.4983
  118MOL    C2316637   7.741   7.277   1.903  0.4510 -0.6538  0.5232
  118MOL    C2416638   7.724   7.426   1.907  0.0343  0.9583 -0.0672
  118MOL    O2516639   7.750   7.477   1.777  0.3168  0.1245 -0.0402
  118MOL    H2616640   7.756   7.243   2.005  0.8013 -3.5120 -0.4349
  118MOL    H2716641   0.050   7.246   1.836 -1.7576 -1.8871 -1.6194
  118MOL    H2816642   0.022   7.475   1.976  0.4912  0.4630 -0.1615
  118MOL    H2916643   7.621   7.442   1.936 -0.1742 -0.4442  0.0156
  118MOL    C3016644   0.011   7.616   1.782  0.5230 -0.4577 -0.1307
  118MOL    C3116645   0.165   7.640   1.809 -0.5063 -0.0180  0.0957
  118MOL    O3216646   0.184   7.643   1.949 -0.4883 -0.9261  0.4657
  118MOL    H3316647   7.746   7.645   1.683 -1.5219 -1.9404  0.1399
  118MOL    H3416648   7.726   7.672   1.856  0.2067  1.0084 -1.4487
  118MOL    H3516649   0.212   7.724   1.757  0.7477 -2.0609 -2.1814
  118MOL    H3616650   0.227   7.563   1.762 -0.0062  0.1393  0.4935
  118MOL    C3716651   0.145   7.764   2.007 -0.4317  0.2282 -0.2290
  118MOL    C3816652   0.092   7.729   2.151 -0.7318 -0.3678  0.3585
  118MOL    O3916653   0.210   7.715   2.237 -0.0915  0.3993 -0.1777
  118MOL    H4016654   0.234   0.056   2.013 -0.3916  0.4787 -2.9760
  118MOL    H4116655   0.067   0.046   1.952 -1.0205  1.5837  1.8632
  118MOL    H4216656   0.047   7.631   2.168  0.7267 -0.7823  1.9890
  118MOL    H4316657   0.020   0.034   2.184 -1.1090 -0.6974  0.2986
  118MOL    C4416658   0.193   7.686   2.377 -0.0908  0.4664 -0.7262
  118MOL    C4516659   0.328   7.706   2.438 -0.6035 -0.3557  1.0990
  118MOL    O4616660   0.337   0.077   2.443 -0.9864  0.0670  0.1232
  118MOL    H4716661   0.117   7.738   2.436 -0.3406 -0.4399 -0.2318
  118MOL    H4816662   0.173   7.579   2.387  2.1001  0.0740 -0.3776
  118MOL    H4916663   0.398   7.659   2.369 -1.5752  2.8084 -2.1582
  118MOL    H5016664   0.332   7.661   2.537  0.6033 -2.7499 -0.0013
  118MOL    C5116665   0.459   0.110   2.512  0.0718  0.3368  0.4297
  118MOL    C5216666   0.461   0.253   2.565  0.2106  0.0438  0.0765
  118MOL    O5316667   0.454   0.339   2.456  0.2921 -0.5922 -0.3557
  118MOL    H5416668   0.473   0.043   2.596  0.6611  1.8625  1.5656
  118MOL    H5516669   0.543   0.090   2.446  1.3256 -0.6602  2.3038
  118MOL    H5616670   0.552   0.276   2.622  1.9681 -0.8309 -2.3186
  118MOL    H5716671   0.376   0.275   2.630 -0.1866 -1.2434 -0.0024
  118MOL    C5816672   0.472   0.480   2.476  0.6731  0.4189  0.4863
  118MOL    C5916673   0.620   0.519   2.451 -0.0951 -0.1865  0.4909
  118MOL    O6016674   0.690   0.517   2.572 -0.5393 -0.1811 -0.2970
  118MOL    H6116675   0.405   0.520   2.400 -0.0864 -1.9742 -0.1441
  118MOL    H6216676   0.429   0.514   2.570  0.7914 -0.6920  0.9347
  118MOL    H6316677   0.622   0.624   2.421 -1.8404 -0.2829 -0.0233
  118MOL    H6416678   0.669   0.463   2.372 -0.1503  1.2976 -0.6014
  118MOL    C6516679   0.671   0.625   2.660 -0.2447  0.2649 -0.7507
  118MOL    C6616680   0.729   0.598   2.798  0.2948  0.6710 -0.1039
  118MOL    O6716681   0.651   0.507   2.872  0.1597  0.1617  0.0549
  118MOL    H6816682   0.717   0.716   2.620 -1.6950  0.9630 -0.8677
  118MOL    H6916683   0.569   0.659   2.673  0.2323  0.4373  3.0758
  118MOL    H7016684   0.735   0.698   2.839 -0.5357  0.7566 -0.1961
  118MOL    H7116685   0.830   0.555   2.796  0.7861  1.8432 -0.6164
  118MOL    C7216686   0.706   0.484   3.005 -0.2284  0.4199 -0.0372
  118MOL    C7316687   0.621   0.380   3.078  0.2232  0.1114  0.8652
  118MOL    O7416688   0.491   0.427   3.116  0.0330  0.0699  0.2471
  118MOL    H7516689   0.808   0.450   2.993  0.1073 -1.2372  6.0226
  118MOL    H7616690   0.706   0.583   3.050  0.7667  1.1178 -1.5218
  118MOL    H7716691   0.661   0.345   3.173 -3.2087 -2.5250  1.4416
  118MOL    H7816692   0.600   0.293   3.016 -2.5339  1.5218 -0.2531
  118MOL    C7916693   0.411   0.318   3.178 -0.9517  0.7110  0.6194
  118MOL    C8016694   0.261   0.367   3.198  0.3655  0.0023 -0.0615
  118MOL    O8116695   0.265   0.495   3.251 -0.0441 -0.3696  0.4035
  118MOL    H8216696   0.403   0.240   3.103  0.2353  0.0578  1.1634
  118MOL    H8316697   0.462   0.289   3.269  0.2457  0.5189 -0.0989
  118MOL    H8416698   0.196   0.299   3.254  1.5597  0.1227  1.5248
  118MOL    H8516699   0.215   0.371   3.100 -1.9441  0.3252  0.9850
  118MOL    C8616700   0.134   0.558   3.235 -0.2607  0.2279  0.5365
  118MOL    C8716701   0.120   0.664   3.349  0.2401  1.0031 -0.1444
  118MOL    O8816702   0.074   0.591   3.469 -0.2165  0.1305  0.0868
  118MOL    H8916703   0.123   0.607   3.138 -5.5399  0.9707  1.3668
  118MOL    H9016704   0.048   0.491   3.232  0.9087 -1.2358 -0.7492
  118MOL    H9116705   0.040   0.733   3.324 -1.0910  0.9382  3.5600
  118MOL    H9216706   0.212   0.719   3.367  1.6688 -1.4438  0.3085
  118MOL    C9316707   0.118   0.653   3.592  0.1876 -0.9632  0.9162
  118MOL    C9416708   0.267   0.647   3.629  0.2743  0.3584 -0.3519
  118MOL    O9516709   0.306   0.527   3.698 -0.4139  0.3611  0.2883
  118MOL    H9616710   0.076   0.753   3.579 -1.9217 -1.5983  2.4660
  118MOL    H9716711   0.066   0.614   3.680 -1.8956  0.3214  0.2965
  118MOL    H9816712   0.280   0.726   3.702  0.5854 -0.4353  0.4624
  118MOL    H9916713   0.339   0.669   3.550  2.1156  0.3479  1.2856
  118MOL   C10016714   0.289   0.415   3.620  0.0792 -0.2526 -0.1382
  118MOL   C10116715   0.370   0.301   3.684  0.1535 -0.6622  0.6907
  118MOL   O10216716   0.507   0.332   3.697  0.0231 -0.6593 -0.2680
  118MOL   H10316717   0.187   0.379   3.628 -0.0352  0.1539  0.2651
  118MOL   H10416718   0.332   0.431   3.521 -1.1750  1.2101 -0.4783
  118MOL   H10516719   0.355   0.211   3.625 -0.1594 -0.7208  0.8560
  118MOL   H10616720   0.336   0.274   3.785 -0.6360 -3.8343 -0.3632
  118MOL   C10716721   0.598   0.233   3.741 -0.2242  0.2691  0.8224
  118MOL   C10816722   0.634   0.136   3.623  0.2300 -0.5135 -0.2255
  118MOL   O10916723   0.687   0.207   3.514 -0.3662 -0.0990  0.4172
  118MOL   H11016724   0.687   0.289   3.772  0.6701 -0.6442 -0.0634
  118MOL   H11116725   0.551   0.174   3.819 -0.1429 -0.7348  0.1284
  118MOL   H11216726   0.556   0.064   3.600  0.7774 -0.7155 -1.5046
  118MOL   H11316727   0.710   0.063   3.655 -2.7621 -3.6551  0.0523
  118MOL   C11416728   0.732   0.140   3.398 -0.1916  0.3602 -0.3571
  118MOL   C11516729   0.836   0.029   3.425 -0.6846  0.0582  0.1018
  118MOL   O11616730   0.771   7.676   3.420  0.2316 -0.0688  0.5292
  118MOL   H11716731   0.649   0.077   3.365  1.1690 -1.3473 -0.5970
  118MOL   H11816732   0.759   0.205   3.315 -0.3870  2.8431  1.4577
  118MOL   H11916733   0.892   0.052   3.516 -1.7563  1.8606  0.3283
  118MOL   H12016734   0.916   0.038   3.352 -1.4687 -0.5332 -0.8462
  118MOL   C12116735   0.847   7.555   3.453 -0.2361 -0.4150 -0.4107
  118MOL   C12216736   0.949   7.518   3.347  0.2559 -0.5476 -0.1518
  118MOL   O12316737   1.075   7.567   3.385  0.4259  0.7245 -0.0827
  118MOL   H12416738   0.893   7.560   3.551  0.7788  3.0641 -0.9957
  118MOL   H12516739   0.790   7.463   3.459 -3.1422  1.1643 -2.3821
  118MOL   H12616740   0.922   7.569   3.255 -0.0634  0.4600  0.4944
  118MOL   H12716741   0.950   7.409   3.340  1.2076 -0.3556 -4.1879
  118MOL   C12816742   1.174   7.512   3.301 -0.1322 -0.0327  0.0767
  118MOL   C12916743   1.310   7.565   3.325  0.0730  0.0645  0.3161
  118MOL   O13016744   1.346   7.689   3.256  0.6325  0.0140 -0.4084
  118MOL   H13116745   1.192   7.405   3.306  0.4597  0.0891  0.5411
  118MOL   H13216746   1.153   7.535   3.196 -1.0826 -1.3821 -0.0480
  118MOL   H13316747   1.391   7.497   3.298 -0.8593 -0.6369 -0.7468
  118MOL   H13416748   1.324   7.582   3.432  0.0157 -0.9749  0.4937
  118MOL   C13516749   1.458   7.761   3.314  0.1059  0.1526 -0.3001
  118MOL   C13616750   1.436   0.031   3.454  0.2113  0.2744  0.0190
  118MOL   O13716751   1.516   7.728   3.538 -0.4456 -0.0999  0.1473
  118MOL   H13816752   1.551   7.706   3.304 -1.0015 -1.9250  0.3451
  118MOL   H13916753   1.463   0.080   3.253  0.0724 -0.5362 -1.3396
  118MOL   H14016754   1.334   0.022   3.491 -1.3129  1.7322 -3.5565
  118MOL   H14116755   1.458   0.137   3.454 -0.1481  0.3502  0.3602
  118MOL   H14216756   1.574   0.019   3.578  1.5401 -1.7387 -0.1045
  119MOL     C116757   4.208   5.806   0.746 -0.5082  0.1686 -0.4097
  119MOL     C216758   4.114   5.697   0.694 -0.9408 -0.3654  0.3334
  119MOL     O316759   4.145   5.649   0.566 -0.7748  0.5541  0.1387
  119MOL     H416760   4.194   5.895   0.686 -0.6469  0.7462  0.4721
  119MOL     H516761   4.313   5.777   0.751 -0.5942  0.1334  1.5832
  119MOL     H616762   4.011   5.732   0.698 -0.3142  2.3104 -3.5173
  119MOL     H716763   4.128   5.613   0.763 -1.1061 -0.1404  0.6403
  119MOL     H816764   4.182   5.831   0.849  1.4883 -0.5353  0.2993
  119MOL     C916765   4.070   5.539   0.521  0.2405 -0.1656 -0.2114
  119MOL    C1016766   4.109   5.527   0.376 -0.5356 -0.0542 -0.1614
  119MOL    O1116767   4.030   5.616   0.297  0.3177  0.6370  0.7480
  119MOL    H1216768   4.100   5.445   0.569 -0.9145  0.3155  1.5002
  119MOL    H1316769   3.963   5.559   0.523  0.2646  0.1376 -1.5980
  119MOL    H1416770   4.092   5.423   0.349  2.8539 -1.5126  2.8096
  119MOL    H1516771   4.212   5.558   0.360  0.2932 -1.5367  2.1073
  119MOL    C1616772   4.088   5.635   0.168 -0.5565  0.0356  0.0789
  119MOL    C1716773   4.017   5.734   0.086 -0.5690 -0.2023  0.1743
  119MOL    O1816774   4.025   5.868   0.132 -0.3105  0.1948 -0.5147
  119MOL    H1916775   4.189   5.673   0.186  0.3204 -1.8838 -0.5394
  119MOL    H2016776   4.111   5.543   0.113  0.2127 -0.4153  1.1337
  119MOL    H2116777   3.915   5.695   0.089 -0.4534 -0.5358 -0.1606
  119MOL    H2216778   4.041   5.730   7.751  2.4432  0.0368  0.7930
  119MOL    C2316779   3.947   5.957   0.066  0.1790 -0.5875 -0.1476
  119MOL    C2416780   4.023   6.030   7.724  0.8231  0.0249  0.3779
  119MOL    O2516781   4.025   5.950   7.610  0.3170 -0.1607 -0.0772
  119MOL    H2616782   3.858   5.917   0.018 -0.9655 -0.6308  1.9596
  119MOL    H2716783   3.916   6.037   0.134 -1.2474 -1.6806  0.5217
  119MOL    H2816784   4.124   6.055   7.758  0.1891  1.0041  1.5687
  119MOL    H2916785   3.972   6.123   7.701  0.8938  0.4464  1.8523
  119MOL    C3016786   4.083   6.021   7.499  0.1800 -0.2293  0.4724
  119MOL    C3116787   3.982   6.115   7.423  0.7751 -0.1168 -0.5383
  119MOL    O3216788   3.996   6.243   7.483  0.8095 -0.5446  0.4276
  119MOL    H3316789   4.169   6.077   7.535 -2.3733  3.5197  0.9613
  119MOL    H3416790   4.123   5.950   7.426  0.0575  0.9112 -0.7090
  119MOL    H3516791   3.884   6.067   7.422 -0.6752  2.7379 -2.6659
  119MOL    H3616792   4.004   6.111   7.316  2.4466 -1.7476 -0.1774
  119MOL    C3716793   3.894   6.341   7.459  0.5973  1.0068 -0.4994
  119MOL    C3816794   3.946   6.479   7.514  0.2846 -0.2393  0.3927
  119MOL    O3916795   4.031   6.550   7.416 -0.1428  0.2690  1.0467
  119MOL    H4016796   3.860   6.342   7.355 -0.6567  0.8594 -0.0946
  119MOL    H4116797   3.815   6.297   7.519  2.4502  0.2802  1.4426
  119MOL    H4216798   4.010   6.479   7.602  1.6882  0.5133 -0.5946
  119MOL    H4316799   3.859   6.540   7.539 -1.1839 -2.3762  0.6166
  119MOL    C4416800   4.035   6.689   7.452  0.1645 -0.3050 -0.4065
  119MOL    C4516801   4.106   6.771   7.343  0.1854 -0.3826  0.2794
  119MOL    O4616802   4.194   6.871   7.392  0.3950  0.2671  0.3064
  119MOL    H4716803   3.938   6.738   7.465  0.3380 -0.4114  1.5146
  119MOL    H4816804   4.092   6.710   7.542  0.0330 -0.8767 -0.1897
  119MOL    H4916805   4.032   6.805   7.270  0.7890 -1.0557 -0.6615
  119MOL    H5016806   4.160   6.695   7.286  1.5474  1.4759 -0.9651
  119MOL    C5116807   4.264   6.945   7.296 -0.1066 -0.1012 -0.2409
  119MOL    C5216808   4.361   7.037   7.363  0.1957  0.5064 -0.2112
  119MOL    O5316809   4.416   7.134   7.270 -0.0497 -0.7672  0.5863
  119MOL    H5416810   4.313   6.878   7.225  2.5756 -0.6012  1.9935
  119MOL    H5516811   4.195   7.007   7.238  0.4917 -0.6541 -1.5628
  119MOL    H5616812   4.449   6.979   7.389 -1.1554 -0.4069  2.5943
  119MOL    H5716813   4.313   7.095   7.443  0.8744  3.0762 -1.6251
  119MOL    C5816814   4.483   7.250   7.330 -0.0948  0.5195  0.1235
  119MOL    C5916815   4.395   7.377   7.302 -0.2558  0.5913 -0.4335
  119MOL    O6016816   4.421   7.439   7.178 -0.6560 -0.3000 -0.7439
  119MOL    H6116817   4.486   7.242   7.439  1.4559  1.6926  0.1973
  119MOL    H6216818   4.584   7.267   7.292 -1.5011  2.9141 -2.7094
  119MOL    H6316819   4.407   7.443   7.389 -1.2961  0.9589 -0.5634
  119MOL    H6416820   4.294   7.338   7.311  0.7461 -2.5896 -2.0845
  119MOL    C6516821   4.343   7.557   7.156 -0.2454 -0.5905 -0.1336
  119MOL    C6616822   4.391   7.634   7.029 -0.0041 -0.0062 -0.3392
  119MOL    O6716823   4.498   7.729   7.064  0.0625  0.1259 -0.7093
  119MOL    H6816824   4.243   7.516   7.139  0.4118 -1.3720 -2.2827
  119MOL    H6916825   4.343   7.634   7.233  0.7146 -1.3978  0.6977
  119MOL    H7016826   4.304   7.688   6.991 -0.7540  0.3431  1.7955
  119MOL    H7116827   4.417   7.567   6.947  3.9349  0.0792  0.7499
  119MOL    C7216828   4.579   7.755   6.946  0.0015 -0.0768  0.0699
  119MOL    C7316829   4.665   0.110   6.986 -0.2934 -1.0302  0.4990
  119MOL    O7416830   4.582   0.226   6.972  0.0625  0.0670  0.0253
  119MOL    H7516831   4.638   7.666   6.929 -0.8295 -1.1752  2.7682
  119MOL    H7616832   4.518   0.009   6.859 -0.2873 -3.5306 -0.7888
  119MOL    H7716833   4.741   0.111   6.908 -1.6967  1.1928 -0.8938
  119MOL    H7816834   4.710   0.099   7.084 -0.0474 -0.5833  0.4359
  119MOL    C7916835   4.651   0.347   6.967 -0.2017 -0.8858 -0.7143
  119MOL    C8016836   4.599   0.446   7.072 -0.2616 -0.5297 -0.6017
  119MOL    O8116837   4.639   0.410   7.201  0.1990 -0.5988 -0.3795
  119MOL    H8216838   4.760   0.341   6.963  0.0250 -0.5259  3.1572
  119MOL    H8316839   4.619   0.393   6.874 -1.8354  1.5020  0.9962
  119MOL    H8416840   4.491   0.455   7.063 -0.3288 -1.6796 -1.1029
  119MOL    H8516841   4.635   0.546   7.052  1.4124 -0.9179  0.3871
  119MOL    C8616842   4.581   0.479   7.309  0.1276  0.0561 -0.2845
  119MOL    C8716843   4.622   0.396   7.432  0.3294  0.1351  0.0349
  119MOL    O8816844   4.536   0.289   7.442 -0.7133 -0.5977  0.2501
  119MOL    H8916845   4.613   0.583   7.306 -0.7563  0.3762  1.0976
  119MOL    H9016846   4.473   0.471   7.301 -0.1347  0.8578  2.1148
  119MOL    H9116847   4.616   0.464   7.517 -0.1237 -0.9941  0.9196
  119MOL    H9216848   4.722   0.355   7.424 -0.0132 -0.2523 -3.0106
  119MOL    C9316849   4.535   0.178   7.350  0.2282 -0.0719  0.2082
  119MOL    C9416850   4.494   0.044   7.423  0.3041  0.0537  0.0918
  119MOL    O9516851   4.353   0.035   7.428  0.3639 -0.0069 -0.0056
  119MOL    H9616852   4.454   0.207   7.284  0.1884 -1.2370 -0.2691
  119MOL    H9716853   4.629   0.158   7.299  0.5895  1.5718  0.1985
  119MOL    H9816854   4.542   0.030   7.520 -1.4934 -0.7301  0.8771
  119MOL    H9916855   4.523   7.730   7.362 -0.0975  0.3492 -0.5172
  119MOL   C10016856   4.301   7.722   7.538  0.3729 -0.1547 -0.3761
  119MOL   C10116857   4.163   7.666   7.503 -0.4835  0.0824 -0.6786
  119MOL   O10216858   4.166   7.543   7.433 -0.4452 -0.2685 -0.3007
  119MOL   H10316859   4.363   7.635   7.559  0.3644  0.6208  3.2517
  119MOL   H10416860   4.290   0.013   7.627  0.7756 -0.9326  0.2181
  119MOL   H10516861   4.108   7.731   7.435  0.3873 -0.5029 -1.9918
  119MOL   H10616862   4.097   7.652   7.588 -2.7607  0.8581 -2.2602
  119MOL   C10716863   4.039   7.473   7.423  0.2638  0.8738 -0.2670
  119MOL   C10816864   3.927   7.556   7.353 -0.0527 -0.3595 -0.6395
  119MOL   O10916865   3.866   7.671   7.420  0.2835  0.4617 -0.1262
  119MOL   H11016866   4.052   7.382   7.363 -1.5900 -0.3984  1.1922
  119MOL   H11116867   4.007   7.444   7.523  1.0624  1.2024  0.0906
  119MOL   H11216868   3.842   7.489   7.339 -1.0600  0.6692  0.4018
  119MOL   H11316869   3.967   7.584   7.256 -0.1274 -0.6982 -0.7686
  119MOL   C11416870   3.775   7.748   7.347 -0.0623 -0.6024  0.4765
  119MOL   C11516871   3.668   0.021   7.443  1.5905  0.4577 -0.0725
  119MOL   O11616872   3.581   7.680   7.488 -0.0734  0.5059 -0.6121
  119MOL   H11716873   3.842   0.052   7.305 -0.7263 -0.2624  0.0132
  119MOL   H11816874   3.736   7.698   7.258 -0.7801  1.0671 -0.1631
  119MOL   H11916875   3.595   0.090   7.400 -0.0908 -0.9333  0.4937
  119MOL   H12016876   3.721   0.059   7.531  3.1563 -1.8525  0.0303
  119MOL   C12116877   3.489   7.716   7.597 -0.1754 -0.2452  0.3234
  119MOL   C12216878   3.406   7.593   7.644  0.1933  0.3078  0.5284
  119MOL   O12316879   3.477   7.520   7.740 -0.2765 -0.7906  0.2389
  119MOL   H12416880   3.554   7.754   7.677 -0.8682 -1.2730  1.3868
  119MOL   H12516881   3.421   0.024   7.568 -1.7283 -1.7871 -0.2919
  119MOL   H12616882   3.392   7.523   7.563  0.6006  0.9209 -0.0775
  119MOL   H12716883   3.309   7.623   7.684 -0.6243 -0.2972 -0.9828
  119MOL   C12816884   3.609   7.478   7.701 -0.8421  0.6697  0.7996
  119MOL   C12916885   3.686   7.385   0.025  0.2238 -0.4628 -0.5003
  119MOL   O13016886   3.739   7.447   0.137  0.4389 -0.1622 -0.2787
  119MOL   H13116887   3.594   7.429   7.605 -2.2668  1.9484  0.3568
  119MOL   H13216888   3.674   7.564   7.682 -1.1547  0.4051 -1.6690
  119MOL   H13316889   3.762   7.338   7.734 -1.3031 -0.1892 -2.6499
  119MOL   H13416890   3.634   7.291   0.047 -0.5546 -0.0968 -0.7509
  119MOL   C13516891   3.646   7.448   0.244 -0.5135 -0.9399  0.0516
  119MOL   C13616892   3.705   7.544   0.351 -0.1920 -0.7822 -0.3707
  119MOL   O13716893   3.843   7.504   0.356 -0.2119  0.2304 -0.0509
  119MOL   H13816894   3.544   7.475   0.220  0.0086  1.6141  0.6366
  119MOL   H13916895   3.635   7.348   0.288 -1.7480 -1.1977 -0.8229
  119MOL   H14016896   3.660   7.521   0.448  0.9552  1.4700  0.7407
  119MOL   H14116897   3.706   7.651   0.330 -1.0551 -0.4947  0.9755
  119MOL   H14216898   3.864   7.505   0.264  0.7122  0.0590  0.1580
  120MOL     C116899   1.751   4.085   5.380 -0.2938 -0.0942 -0.7181
  120MOL     C216900   1.766   4.003   5.511 -0.3204  0.3018 -0.2120
  120MOL     O316901   1.891   3.934   5.515  0.5292 -0.4655 -1.0073
  120MOL     H416902   1.824   4.165   5.368  0.6110 -0.9740 -1.2088
  120MOL     H516903   1.651   4.129   5.378  0.2839  1.3791  0.8807
  120MOL     H616904   1.678   3.940   5.518 -1.4657  1.9942  1.0093
  120MOL     H716905   1.742   4.067   5.597 -1.6569 -2.4416  1.5107
  120MOL     H816906   1.755   4.018   5.294  0.9029  1.0238 -1.5506
  120MOL     C916907   1.926   3.869   5.640  0.1540  0.1231 -0.2528
  120MOL    C1016908   2.066   3.810   5.634  0.3614 -0.3399 -0.4631
  120MOL    O1116909   2.160   3.918   5.656 -0.2789 -0.4180 -0.3701
  120MOL    H1216910   1.932   3.937   5.725  0.2559 -0.2129  0.0101
  120MOL    H1316911   1.852   3.795   5.671 -0.1483  0.5779  0.1034
  120MOL    H1416912   2.085   3.766   5.536 -0.0627  1.9697 -1.6185
  120MOL    H1516913   2.074   3.735   5.713 -1.3663  0.4660  0.5117
  120MOL    C1616914   2.272   3.909   5.576  0.3333  0.3818  0.8067
  120MOL    C1716915   2.375   4.012   5.626 -0.4129 -0.2319  0.3268
  120MOL    O1816916   2.474   3.958   5.718  0.1712  0.4863  0.1942
  120MOL    H1916917   2.296   3.803   5.584 -0.0156  0.1318 -1.1995
  120MOL    H2016918   2.245   3.928   5.472 -0.3310  0.0347  0.9132
  120MOL    H2116919   2.325   4.096   5.675  0.5254  0.4935  0.0718
  120MOL    H2216920   2.431   4.058   5.544  0.8239 -0.3140  1.1037
  120MOL    C2316921   2.552   4.065   5.783  0.4571 -0.2564 -0.1480
  120MOL    C2416922   2.692   4.019   5.834 -0.5380  0.0578  0.0270
  120MOL    O2516923   2.773   4.013   5.717 -0.7432  0.4333  0.1630
  120MOL    H2616924   2.561   4.152   5.719  1.8738 -0.3216 -0.0501
  120MOL    H2716925   2.500   4.088   5.876  0.7467 -1.1185  0.2344
  120MOL    H2816926   2.685   3.922   5.883  1.3679 -0.0914  0.0334
  120MOL    H2916927   2.736   4.095   5.898 -0.3519  0.5474 -0.6773
  120MOL    C3016928   2.886   3.939   5.757  0.1967  0.2112  0.5155
  120MOL    C3116929   2.993   3.926   5.653  0.8562  0.5163 -0.0459
  120MOL    O3216930   2.946   3.844   5.558 -0.4388 -0.0368 -0.5019
  120MOL    H3316931   2.921   4.001   5.840  0.6769  4.8924 -2.9907
  120MOL    H3416932   2.870   3.838   5.795 -0.3115 -0.6721 -1.9690
  120MOL    H3516933   3.084   3.889   5.699 -0.5521  0.9125  3.2054
  120MOL    H3616934   3.027   4.021   5.611  2.3652  0.9608  2.1157
  120MOL    C3716935   3.045   3.760   5.504 -0.3245 -0.5106 -0.6360
  120MOL    C3816936   3.144   3.839   5.407  0.1719  0.2421 -0.2080
  120MOL    O3916937   3.259   3.877   5.483  0.3940  0.0405 -0.5485
  120MOL    H4016938   3.114   3.717   5.576 -0.2113  0.2117 -0.3111
  120MOL    H4116939   3.003   3.677   5.447 -1.3302 -0.7537  0.4508
  120MOL    H4216940   3.091   3.926   5.369  1.2482  0.3675 -1.4634
  120MOL    H4316941   3.166   3.790   5.312  1.7395  0.5239 -0.0084
  120MOL    C4416942   3.355   3.948   5.404 -0.2948 -0.1153 -0.0811
  120MOL    C4516943   3.449   3.850   5.328  0.3357  0.3862  0.2414
  120MOL    O4616944   3.519   3.758   5.417  0.0717 -0.1665  0.1634
  120MOL    H4716945   3.318   4.014   5.326  2.5348 -0.3220 -1.6523
  120MOL    H4816946   3.409   4.013   5.473 -1.0329  1.2065 -0.7290
  120MOL    H4916947   3.525   3.904   5.272 -0.2122  0.5504 -0.3567
  120MOL    H5016948   3.389   3.787   5.262  0.3442  0.1089  0.4947
  120MOL    C5116949   3.610   3.669   5.359  0.1659 -0.5354  0.0858
  120MOL    C5216950   3.685   3.591   5.466  0.5102  0.1792 -0.3069
  120MOL    O5316951   3.807   3.661   5.504  0.1757  0.5463  0.1221
  120MOL    H5416952   3.545   3.607   5.297  2.7187 -0.7010 -2.5070
  120MOL    H5516953   3.680   3.720   5.294  0.8857 -2.4531 -0.6857
  120MOL    H5616954   3.699   3.493   5.421  0.7291  0.2993 -0.4950
  120MOL    H5716955   3.615   3.573   5.548  0.0868 -0.7324 -0.8618
  120MOL    C5816956   3.882   3.571   5.592  0.7888 -0.2796  0.2164
  120MOL    C5916957   4.023   3.626   5.635  0.0519  0.0083 -0.1272
  120MOL    O6016958   4.122   3.601   5.533  0.1319  0.8818 -0.3202
  120MOL    H6116959   3.819   3.570   5.680  1.3209  1.8849  0.6587
  120MOL    H6216960   3.890   3.470   5.551 -2.0294  0.1115 -1.4364
  120MOL    H6316961   4.045   3.569   5.725 -1.5193  1.5300  1.2626
  120MOL    H6416962   4.014   3.729   5.672 -1.9094 -0.0796 -0.3076
  120MOL    C6516963   4.258   3.561   5.581  0.5866  0.5869 -0.5798
  120MOL    C6616964   4.343   3.527   5.460  0.0820 -0.3630  0.2708
  120MOL    O6716965   4.461   3.453   5.494  0.5741 -0.6392  0.0673
  120MOL    H6816966   4.309   3.644   5.629  0.2954  0.0367  0.6940
  120MOL    H6916967   4.254   3.483   5.657  1.6302 -0.5553 -1.6727
  120MOL    H7016968   4.384   3.612   5.406 -2.1652  0.2671 -0.4745
  120MOL    H7116969   4.291   3.468   5.385 -0.4353 -0.2731  0.5576
  120MOL    C7216970   4.567   3.542   5.534 -0.5312 -0.2722  0.8659
  120MOL    C7316971   4.702   3.471   5.543  0.5439  0.7554 -0.2292
  120MOL    O7416972   4.689   3.368   5.644  0.0162 -0.5442 -0.0714
  120MOL    H7516973   4.583   3.614   5.453 -0.1840 -1.4353 -0.1140
  120MOL    H7616974   4.550   3.599   5.625  0.3951 -0.3232  1.0747
  120MOL    H7716975   4.784   3.541   5.557  0.6044  0.8045 -0.8171
  120MOL    H7816976   4.725   3.423   5.448 -3.1316 -0.1819 -0.7581
  120MOL    C7916977   4.787   3.270   5.652 -0.2441 -0.1346 -0.5688
  120MOL    C8016978   4.754   3.188   5.783  0.4669 -0.0777 -0.3321
  120MOL    O8116979   4.862   3.114   5.839  0.7591  0.4619  0.0685
  120MOL    H8216980   4.785   3.205   5.565  0.3561 -2.2100  0.9176
  120MOL    H8316981   4.891   3.301   5.665  0.4869 -1.4696 -2.9831
  120MOL    H8416982   4.665   3.127   5.767  1.0438 -0.5617 -1.7976
  120MOL    H8516983   4.728   3.267   5.853 -1.4635  0.7667 -1.9389
  120MOL    C8616984   4.843   3.075   5.978 -0.2345  0.0093  0.8489
  120MOL    C8716985   4.953   2.980   6.015  0.2097 -0.3035 -0.6591
  120MOL    O8816986   5.072   3.002   5.943  0.1625 -0.0067  0.3721
  120MOL    H8916987   4.826   3.161   6.042  1.6323  1.0458  0.0226
  120MOL    H9016988   4.747   3.027   5.995 -1.1249  1.7398  0.8628
  120MOL    H9116989   4.924   2.876   6.005  1.8504 -0.6545 -2.0640
  120MOL    H9216990   4.975   3.002   6.120  0.4988 -1.3821 -0.4869
  120MOL    C9316991   5.191   2.934   5.990  0.5340  0.1692  0.0707
  120MOL    C9416992   5.214   2.797   5.920  0.4281 -0.3018 -0.5059
  120MOL    O9516993   5.128   2.701   5.988 -0.2922  0.4534 -0.0117
  120MOL    H9616994   5.273   3.005   5.979 -1.2086  2.3972  1.0588
  120MOL    H9716995   5.173   2.912   6.095 -3.5843  0.5582 -0.4845
  120MOL    H9816996   5.317   2.764   5.929  0.0449 -1.2930  0.2450
  120MOL    H9916997   5.198   2.806   5.812 -2.6339 -0.5840 -0.1058
  120MOL   C10016998   5.128   2.584   5.905  0.3171 -0.1258  0.0477
  120MOL   C10116999   5.041   2.471   5.976 -0.5381  0.0021  0.6310
  120MOL   O10217000   5.109   2.348   5.989  0.4505 -0.3120  0.6923
  120MOL   H10317001   5.091   2.610   5.806  0.7555  0.1487 -0.0446
  120MOL   H10417002   5.228   2.540   5.906  0.1519 -0.4916  1.5347
  120MOL   H10517003   4.943   2.455   5.931 -0.7664  2.7816  0.0364
  120MOL   H10617004   5.009   2.509   6.073  1.2191  1.3140  0.7152
  120MOL   C10717005   5.049   2.262   6.091  0.1944  0.0801 -0.3034
  120MOL   C10817006   4.920   2.206   6.033 -0.5901 -0.2907  0.7006
  120MOL   O10917007   4.953   2.112   5.936 -0.1471 -0.2157  0.5243
  120MOL   H11017008   5.122   2.182   6.102 -0.8541 -1.3218 -2.9852
  120MOL   H11117009   5.039   2.300   6.193  1.0408 -0.6124  0.0461
  120MOL   H11217010   4.850   2.277   5.989 -0.5025 -0.2525  0.6250
  120MOL   H11317011   4.870   2.149   6.111  1.3272 -3.2912 -0.1886
  120MOL   C11417012   4.848   2.052   5.872  0.2511 -0.3126  0.2514
  120MOL   C11517013   4.896   1.975   5.749 -0.8071 -0.0781 -1.0655
  120MOL   O11617014   4.792   1.901   5.701  0.3161  0.5573  0.4598
  120MOL   H11717015   4.789   1.992   5.942  0.0157  0.8253  1.0364
  120MOL   H11817016   4.780   2.122   5.826  1.1004 -0.1709 -0.8161
  120MOL   H11917017   4.983   1.914   5.773 -1.2038 -0.7516 -1.3333
  120MOL   H12017018   4.931   2.041   5.670  0.4548 -0.7697 -1.1040
  120MOL   C12117019   4.773   1.776   5.746  0.2131  0.2134 -0.3123
  120MOL   C12217020   4.648   1.716   5.683 -0.0534  0.0686 -0.0222
  120MOL   O12317021   4.658   1.701   5.540 -0.4066 -0.3199  0.6437
  120MOL   H12417022   4.858   1.707   5.746  1.1250  1.2940  1.6458
  120MOL   H12517023   4.758   1.787   5.853  0.6628  1.5367 -0.3773
  120MOL   H12617024   4.561   1.766   5.726  0.1310  0.4622 -0.1063
  120MOL   H12717025   4.637   1.617   5.728  1.4119 -0.4146 -0.6871
  120MOL   C12817026   4.537   1.670   5.477 -0.0409  0.2279  0.3689
  120MOL   C12917027   4.513   1.522   5.473  0.0436  0.3422 -0.1248
  120MOL   O13017028   4.599   1.462   5.376  0.0821  0.7390 -0.0589
  120MOL   H13117029   4.460   1.711   5.543 -2.7449 -0.1287 -2.4480
  120MOL   H13217030   4.532   1.712   5.376 -0.8639  1.9226  1.0882
  120MOL   H13317031   4.408   1.499   5.461  0.5258 -1.9096 -0.2144
  120MOL   H13417032   4.541   1.477   5.568  0.9011  0.8014 -0.1477
  120MOL   C13517033   4.527   1.432   5.261  0.2246 -0.6221 -0.5081
  120MOL   C13617034   4.602   1.363   5.151  0.1255  0.3208 -0.2219
  120MOL   O13717035   4.612   1.432   5.024 -0.3749  0.0326 -0.0286
  120MOL   H13817036   4.435   1.375   5.278 -0.6776  1.3568  1.4383
  120MOL   H13917037   4.489   1.528   5.228  0.6239 -0.7427 -1.3321
  120MOL   H14017038   4.553   1.269   5.123 -1.3789  1.0249 -0.0392
  120MOL   H14117039   4.696   1.339   5.200  0.5126 -0.6931 -1.4191
  120MOL   H14217040   4.655   1.515   5.038 -1.4461  0.5654  0.1368
  121MOL     C117041   7.744   2.848   3.683  0.0314 -0.0075  0.3619
  121MOL     C217042   7.632   2.934   3.638 -0.6848  0.2715 -0.2210
  121MOL     O317043   7.674   3.053   3.576 -0.2980 -0.5003  0.4069
  121MOL     H417044   7.711   2.765   3.745  0.1144 -1.2528 -1.2231
  121MOL     H517045   0.047   2.915   3.727 -1.3659  0.2969  2.3185
  121MOL     H617046   7.551   2.948   3.710 -1.0875  1.7474 -0.9364
  121MOL     H717047   7.585   2.883   3.555 -1.6551  0.8067 -0.0093
  121MOL     H817048   0.031   2.811   3.598  3.7166  3.2760  1.2843
  121MOL     C917049   7.579   3.124   3.503 -0.9340 -0.3991  0.0446
  121MOL    C1017050   7.642   3.241   3.426  0.2007  0.7074  0.7939
  121MOL    O1117051   7.720   3.180   3.320  0.5461  0.8488  0.0536
  121MOL    H1217052   7.516   3.070   3.432 -0.7494  0.8952 -1.1187
  121MOL    H1317053   7.515   3.160   3.584 -2.3561 -1.2555 -0.6912
  121MOL    H1417054   7.707   3.297   3.493  0.3780  2.0845 -0.5012
  121MOL    H1517055   7.555   3.288   3.380 -2.2251 -2.6131  1.7979
  121MOL    C1617056   0.023   3.271   3.248  0.6483 -0.0343 -0.1869
  121MOL    C1717057   0.099   3.207   3.132  0.2859  0.3468 -0.3781
  121MOL    O1817058   0.006   3.158   3.040  0.0900  0.7271 -0.2538
  121MOL    H1917059   7.737   3.356   3.210  2.1273 -0.0691 -2.5752
  121MOL    H2017060   0.093   3.310   3.321 -0.8371  1.6483  0.3733
  121MOL    H2117061   0.152   3.119   3.167  0.4003  0.3339 -0.5810
  121MOL    H2217062   0.167   3.279   3.084 -1.2253  2.8303  1.0859
  121MOL    C2317063   7.713   3.251   2.955  1.1753 -0.1582  0.2484
  121MOL    C2417064   7.589   3.197   2.885 -0.7508 -0.3593  0.2687
  121MOL    O2517065   7.472   3.189   2.968  0.0574  0.2867 -0.1429
  121MOL    H2617066   7.688   3.345   3.005 -1.3779  0.0922 -1.4262
  121MOL    H2717067   0.011   3.280   2.876  0.4940 -0.0992 -0.3306
  121MOL    H2817068   7.609   3.101   2.838  3.6618  0.8785 -0.5747
  121MOL    H2917069   7.561   3.264   2.804 -0.4506 -1.9216 -1.1607
  121MOL    C3017070   7.483   3.105   3.080 -0.9120 -0.5132 -0.3036
  121MOL    C3117071   7.342   3.098   3.136  0.3220 -0.5567  0.1506
  121MOL    O3217072   7.259   3.040   3.044  0.0529 -0.6023  0.1920
  121MOL    H3317073   7.530   3.013   3.045 -1.2816 -0.5650 -0.6692
  121MOL    H3417074   7.551   3.133   3.161 -2.0486  0.4481  0.3369
  121MOL    H3517075   7.312   3.201   3.156  0.5254 -0.5587  0.4669
  121MOL    H3617076   7.346   3.048   3.233 -0.5262 -0.5921  0.1768
  121MOL    C3717077   7.129   3.092   3.043  0.4143 -0.1217  0.3270
  121MOL    C3817078   7.026   2.982   3.084  0.3806  0.2065  0.5171
  121MOL    O3917079   7.046   2.960   3.226  0.1041 -0.7294  0.3257
  121MOL    H4017080   7.105   3.171   3.114  0.0034 -0.9598  1.1482
  121MOL    H4117081   7.111   3.127   2.942  0.6583 -3.2032 -0.8226
  121MOL    H4217082   7.043   2.891   3.028 -1.3865  0.7493 -0.9284
  121MOL    H4317083   6.927   3.015   3.052  0.4911  0.5385  0.5100
  121MOL    C4417084   6.965   2.855   3.278  0.0115  0.1124 -0.4374
  121MOL    C4517085   7.014   2.784   3.409  0.1038  0.0815 -0.0147
  121MOL    O4617086   7.127   2.706   3.399 -0.0959 -0.4470 -0.7296
  121MOL    H4717087   6.864   2.896   3.290 -0.6428 -2.0756  1.9472
  121MOL    H4817088   6.960   2.774   3.205 -2.5127 -0.5231  0.3890
  121MOL    H4917089   6.930   2.733   3.456 -0.7314  1.0313 -0.4379
  121MOL    H5017090   7.035   2.865   3.479  1.7439  0.5236 -0.9795
  121MOL    C5117091   7.244   2.769   3.346 -0.1327 -0.1237 -0.4892
  121MOL    C5217092   7.367   2.679   3.378 -0.2672  0.0315  0.0594
  121MOL    O5317093   7.390   2.651   3.522  0.0986  0.4030 -0.0671
  121MOL    H5417094   7.231   2.792   3.240 -3.4665 -2.0332 -0.5528
  121MOL    H5517095   7.245   2.868   3.391 -2.1541 -0.3183  0.0152
  121MOL    H5617096   7.446   2.742   3.337 -1.4228 -0.6616 -3.4110
  121MOL    H5717097   7.378   2.591   3.314 -1.1097  0.7517 -1.0973
  121MOL    C5817098   7.502   2.567   3.542  0.6704 -0.4909  0.2880
  121MOL    C5917099   7.495   2.494   3.678 -0.1562  0.7432  0.5108
  121MOL    O6017100   7.415   2.376   3.672  0.2005  0.2276 -0.8928
  121MOL    H6117101   7.501   2.492   3.463 -1.1880  0.8875 -1.0499
  121MOL    H6217102   7.587   2.634   3.532  0.5991 -0.3379  0.6999
  121MOL    H6317103   7.445   2.563   3.747 -0.5537  0.8189  0.1473
  121MOL    H6417104   7.595   2.481   3.721 -1.1864 -0.9476  2.5164
  121MOL    C6517105   7.407   2.300   3.794 -0.3521 -0.3105 -0.2163
  121MOL    C6617106   7.345   2.153   3.772 -0.6568  0.2284 -0.1562
  121MOL    O6717107   7.458   2.084   3.723 -0.6614  0.3493  0.1305
  121MOL    H6817108   7.506   2.287   3.839 -0.3832  1.0357  0.2513
  121MOL    H6917109   7.343   2.352   3.864  0.4914  1.8332 -0.9819
  121MOL    H7017110   7.266   2.157   3.697 -1.0646 -1.4433  0.1590
  121MOL    H7117111   7.308   2.128   3.871 -0.6173 -0.6978 -0.3708
  121MOL    C7217112   7.419   1.959   3.669  0.3807  0.0406  0.3171
  121MOL    C7317113   7.394   1.967   3.516 -0.2421  0.4023  0.1985
  121MOL    O7417114   7.342   1.838   3.478  0.5772  0.4699  0.0754
  121MOL    H7517115   7.502   1.892   3.693  0.8065  0.3291 -0.3472
  121MOL    H7617116   7.333   1.916   3.719  0.0956 -0.3529 -0.5065
  121MOL    H7717117   7.486   1.991   3.464  0.4606 -1.7692  0.3959
  121MOL    H7817118   7.321   2.048   3.503  0.6339  1.4625  1.8027
  121MOL    C7917119   7.292   1.831   3.355  0.0703  0.6559 -0.6615
  121MOL    C8017120   7.251   1.697   3.295 -0.5613  0.5293  0.3224
  121MOL    O8117121   7.368   1.632   3.256 -0.1363  0.1531  0.4746
  121MOL    H8217122   7.209   1.902   3.350 -0.2936  0.4202  1.6231
  121MOL    H8317123   7.369   1.877   3.293  1.4589 -0.6252  0.0977
  121MOL    H8417124   7.184   1.709   3.210  1.1819  1.5481 -0.9330
  121MOL    H8517125   7.194   1.645   3.372 -0.1780 -0.5167 -0.0865
  121MOL    C8617126   7.352   1.520   3.164 -0.1627 -0.2059 -0.6222
  121MOL    C8717127   7.355   1.386   3.244 -0.7886 -0.0378 -0.1631
  121MOL    O8817128   7.230   1.343   3.297  0.2865 -0.0727 -0.1143
  121MOL    H8917129   7.269   1.521   3.094 -0.9496 -0.3012  0.2955
  121MOL    H9017130   7.441   1.518   3.101 -0.1391 -0.6329 -0.5762
  121MOL    H9117131   7.429   1.399   3.323 -0.9154  1.9723 -0.3461
  121MOL    H9217132   7.388   1.304   3.180  1.6593 -0.2347  1.2647
  121MOL    C9317133   7.232   1.235   3.388 -0.5088  0.0339  0.3381
  121MOL    C9417134   7.091   1.195   3.445  0.3856  0.0817 -0.3436
  121MOL    O9517135   7.052   1.272   3.567 -0.5342 -0.2908 -0.0262
  121MOL    H9617136   7.285   1.151   3.343 -0.1098  0.4741 -0.0094
  121MOL    H9717137   7.301   1.262   3.468 -0.0555 -1.6678  0.5448
  121MOL    H9817138   7.090   1.093   3.485 -1.8873  0.3332  0.2965
  121MOL    H9917139   7.007   1.189   3.377  0.0173 -0.1637  0.1305
  121MOL   C10017140   6.967   1.387   3.533 -0.8670  0.1775  0.7059
  121MOL   C10117141   6.824   1.333   3.494 -0.1777 -0.0483 -0.2956
  121MOL   O10217142   6.747   1.443   3.452 -0.5334 -0.2584 -0.1654
  121MOL   H10317143   6.956   1.458   3.614 -0.0048 -1.4804  2.3208
  121MOL   H10417144   7.023   1.439   3.455 -0.6025 -0.8363  0.2070
  121MOL   H10517145   6.776   1.296   3.585  0.8810  1.0207  0.7065
  121MOL   H10617146   6.815   1.256   3.417 -2.5053 -0.7790  0.6399
  121MOL   C10717147   6.619   1.409   3.389  0.3072  0.4041  0.8197
  121MOL   C10817148   6.500   1.513   3.399 -0.1332 -0.5672 -0.1660
  121MOL   O10917149   6.471   1.601   3.291  0.3111 -0.3927  0.2143
  121MOL   H11017150   6.641   1.409   3.282  0.2458 -1.7009  0.7905
  121MOL   H11117151   6.586   1.308   3.415  0.9648 -0.9710 -3.2528
  121MOL   H11217152   6.525   1.575   3.485 -0.9575 -0.8009  0.2493
  121MOL   H11317153   6.408   1.465   3.434  0.5393 -0.7680  1.3668
  121MOL   C11417154   6.439   1.544   3.162  0.1566  0.0489  0.1105
  121MOL   C11517155   6.369   1.646   3.072  0.8464  0.7188  0.1811
  121MOL   O11617156   6.314   1.585   2.955  0.5031 -0.4500  0.9377
  121MOL   H11717157   6.529   1.508   3.113  0.7030  1.0213  0.3714
  121MOL   H11817158   6.373   1.460   3.184  0.0656  0.5093  1.6985
  121MOL   H11917159   6.431   1.735   3.055  0.7081  0.4264 -2.0440
  121MOL   H12017160   6.293   1.679   3.143  0.0115 -0.2311 -0.2585
  121MOL   C12117161   6.257   1.677   2.865 -0.4931  0.6646 -0.4480
  121MOL   C12217162   6.107   1.667   2.868  0.4155  1.2626 -0.1530
  121MOL   O12317163   6.049   1.753   2.965 -0.2308  0.0730 -0.0247
  121MOL   H12417164   6.299   1.777   2.867 -0.8035  0.8213 -1.5931
  121MOL   H12517165   6.269   1.639   2.764  0.4189  1.9186 -0.8137
  121MOL   H12617166   6.085   1.561   2.873 -2.7803  1.8330 -0.9759
  121MOL   H12717167   6.069   1.695   2.769 -1.4657  1.1454  0.5181
  121MOL   C12817168   5.926   1.708   3.023  0.3051  0.1595  0.5831
  121MOL   C12917169   5.813   1.696   2.918 -0.1982  0.5033  0.3412
  121MOL   O13017170   5.822   1.584   2.841 -0.0586  0.0387 -0.6216
  121MOL   H13117171   5.944   1.609   3.066 -0.0024 -1.0897 -2.0098
  121MOL   H13217172   5.896   1.784   3.094  1.2221 -0.0988  1.2505
  121MOL   H13317173   5.808   1.784   2.853  2.0789  1.1228  0.9515
  121MOL   H13417174   5.718   1.688   2.971 -1.8490  1.1115 -2.4119
  121MOL   C13517175   5.718   1.569   2.749 -0.3012 -0.2731  0.7203
  121MOL   C13617176   5.756   1.437   2.678 -0.4434  0.2314 -0.2222
  121MOL   O13717177   5.675   1.400   2.576 -0.4781  0.1093  0.2230
  121MOL   H13817178   5.620   1.557   2.795 -1.3529  1.3209 -1.0287
  121MOL   H13917179   5.720   1.649   2.674 -1.3419 -0.1976  0.7674
  121MOL   H14017180   5.769   1.355   2.748  0.3900 -0.3457 -1.0332
  121MOL   H14117181   5.853   1.453   2.631 -0.6454  2.8019  0.1554
  121MOL   H14217182   5.687   1.467   2.510  0.9162  0.0741  0.4324
  122MOL     C117183   1.195   3.016   2.347 -0.3094 -0.3457  0.5539
  122MOL     C217184   1.301   3.106   2.406 -0.3191 -0.0542  0.0184
  122MOL     O317185   1.231   3.221   2.452  0.3307  0.2327 -0.2727
  122MOL     H417186   1.158   3.059   2.254 -0.3642  0.8216  1.1144
  122MOL     H517187   1.112   2.992   2.414 -3.5623  2.8666 -2.1186
  122MOL     H617188   1.372   3.126   2.326  0.4190 -2.2720  0.0883
  122MOL     H717189   1.356   3.054   2.485 -1.6151 -1.8561 -0.2369
  122MOL     H817190   1.243   2.924   2.313  0.8970  0.3149  0.4610
  122MOL     C917191   1.315   3.304   2.535 -0.5320  0.6854 -0.3033
  122MOL    C1017192   1.249   3.438   2.553  0.3088  0.2150  0.2614
  122MOL    O1117193   1.232   3.464   2.689  0.5870 -0.0371 -0.3662
  122MOL    H1217194   1.312   3.241   2.624  0.7494 -0.6590 -1.1881
  122MOL    H1317195   1.420   3.319   2.509 -0.7215  0.5543 -1.1485
  122MOL    H1417196   1.154   3.451   2.502 -0.4799  2.8333  2.2413
  122MOL    H1517197   1.324   3.504   2.508  0.9503  0.9885  2.3714
  122MOL    C1617198   1.216   3.598   2.720  0.2219 -0.3425  0.3888
  122MOL    C1717199   1.218   3.623   2.873  0.2929 -0.0967  0.4523
  122MOL    O1817200   1.083   3.624   2.929 -0.6908 -0.0641 -0.3066
  122MOL    H1917201   1.292   3.657   2.670  1.2849 -0.6822  1.5741
  122MOL    H2017202   1.120   3.626   2.677  0.8322  0.3604 -0.5237
  122MOL    H2117203   1.258   3.723   2.890  0.3001  0.1078 -0.7493
  122MOL    H2217204   1.283   3.554   2.927 -1.2296 -0.4459  1.9029
  122MOL    C2317205   1.088   3.649   3.065  0.2942 -0.1508 -0.4412
  122MOL    C2417206   0.956   3.650   3.138 -0.1850  0.2988 -0.3706
  122MOL    O2517207   0.892   3.520   3.115  0.2524 -0.1946  0.1182
  122MOL    H2617208   1.160   3.587   3.117 -0.3948 -0.7172 -0.1527
  122MOL    H2717209   1.131   3.749   3.072 -2.0908  1.2318 -4.1598
  122MOL    H2817210   0.881   3.721   3.103 -0.3294  0.3364  0.0137
  122MOL    H2917211   0.951   3.655   3.247 -0.2534 -0.7148 -0.3148
  122MOL    C3017212   0.766   3.505   3.179  0.0894 -0.2665  0.8245
  122MOL    C3117213   0.697   3.376   3.115 -0.0025  0.2574  0.0915
  122MOL    O3217214   0.557   3.393   3.099  0.2848 -0.3183 -0.1116
  122MOL    H3317215   0.771   3.497   3.288  0.1323 -0.4322  0.8112
  122MOL    H3417216   0.700   3.588   3.153  0.8405  0.2257  0.4973
  122MOL    H3517217   0.715   3.290   3.180  2.7670  1.3669  0.8355
  122MOL    H3617218   0.736   3.353   3.016  0.4834 -3.4740  1.0824
  122MOL    C3717219   0.482   3.297   3.018  0.1745 -0.0623 -0.0692
  122MOL    C3817220   0.478   3.314   2.862  0.3693 -0.3694  0.1841
  122MOL    O3917221   0.355   3.279   2.799  0.8131 -0.6132 -0.2902
  122MOL    H4017222   0.527   3.200   3.037  0.1254 -0.1753 -0.5114
  122MOL    H4117223   0.381   3.287   3.059  0.8896 -2.5761  1.2086
  122MOL    H4217224   0.564   3.264   2.816  0.3762 -0.6514  0.5014
  122MOL    H4317225   0.494   3.419   2.837 -0.2838 -0.6159 -1.3006
  122MOL    C4417226   0.358   3.307   2.661 -0.1668  0.2029 -0.4027
  122MOL    C4517227   0.214   3.286   2.613 -0.5801  0.6741  0.2948
  122MOL    O4617228   0.121   3.388   2.631 -0.1796  0.5572  0.3538
  122MOL    H4717229   0.392   3.408   2.637  0.7998  0.0753  0.3915
  122MOL    H4817230   0.430   3.246   2.608  0.9937  1.4866 -0.3279
  122MOL    H4917231   0.173   3.197   2.661 -0.5805  0.7013  0.3454
  122MOL    H5017232   0.223   3.270   2.506  2.0868 -0.7577  0.6983
  122MOL    C5117233   0.016   3.408   2.534  0.1188  0.1225 -0.7001
  122MOL    C5217234   7.714   3.536   2.570  0.0635 -0.1352  0.3590
  122MOL    O5317235   7.628   3.504   2.675  0.1804  0.6675 -0.1085
  122MOL    H5417236   0.064   3.405   2.436 -0.8617 -2.6397 -1.1447
  122MOL    H5517237   7.724   3.320   2.521  1.3244 -0.8625 -0.0535
  122MOL    H5617238   7.661   3.572   2.482  2.4038 -1.6434 -1.7556
  122MOL    H5717239   0.019   3.611   2.593  0.4845  0.1212 -1.7224
  122MOL    C5817240   7.573   3.628   2.725  0.0118 -0.3969  0.5250
  122MOL    C5917241   7.490   3.601   2.851 -0.3306 -0.0343 -0.2644
  122MOL    O6017242   7.361   3.548   2.818  0.4037 -0.2299  0.1516
  122MOL    H6117243   7.658   3.687   2.759  0.1458 -0.1475 -0.2223
  122MOL    H6217244   7.527   3.679   2.640 -0.2029  0.8441  1.3729
  122MOL    H6317245   7.485   3.687   2.918 -0.1594 -2.3684  2.9037
  122MOL    H6417246   7.548   3.524   2.904  0.6843 -0.2165 -1.6127
  122MOL    C6517247   7.302   3.501   2.941  0.2978  0.5748  0.8735
  122MOL    C6617248   7.154   3.524   2.940 -0.0027  0.0172 -0.2605
  122MOL    O6717249   7.093   3.422   2.860 -0.3198  0.2767  0.4288
  122MOL    H6817250   7.320   3.394   2.952  1.0428  0.3549 -2.1386
  122MOL    H6917251   7.340   3.557   3.027  2.4533  2.2868 -1.1342
  122MOL    H7017252   7.126   3.619   2.895 -0.2325  0.2302  0.3273
  122MOL    H7117253   7.123   3.514   3.045  1.7625  0.6252  0.3363
  122MOL    C7217254   6.953   3.413   2.885  0.0675 -0.2851  0.5815
  122MOL    C7317255   6.909   3.293   2.801  0.1305 -0.3733 -0.7503
  122MOL    O7417256   6.809   3.228   2.880 -0.0021  0.3505  0.1689
  122MOL    H7517257   6.921   3.399   2.988 -1.9002  1.3128  0.2223
  122MOL    H7617258   6.901   3.501   2.847 -1.7267 -1.0193  1.3003
  122MOL    H7717259   6.984   3.214   2.793  0.9790  0.3422  0.0140
  122MOL    H7817260   6.887   3.321   2.698 -0.5494  1.9043 -0.0112
  122MOL    C7917261   6.742   3.118   2.825  0.0574 -0.1351  0.3119
  122MOL    C8017262   6.647   3.057   2.930  0.3206  0.0791 -0.1868
  122MOL    O8117263   6.538   2.985   2.860  0.1898  0.4700  0.0577
  122MOL    H8217264   6.695   3.159   2.736  1.0179  2.4769  0.9507
  122MOL    H8317265   6.809   3.047   2.776  1.2330  0.1070  1.5365
  122MOL    H8417266   6.606   3.136   2.992  1.5982 -0.0413  0.8431
  122MOL    H8517267   6.708   2.994   2.995 -0.5319 -0.1685  0.3645
  122MOL    C8617268   6.453   2.906   2.951 -0.1388  0.2053 -0.3814
  122MOL    C8717269   6.495   2.760   2.952  0.2219  0.2710  0.1100
  122MOL    O8817270   6.634   2.748   2.969  0.1935 -0.7377  0.2297
  122MOL    H8917271   6.450   2.950   3.051  0.1481  0.5998 -0.5431
  122MOL    H9017272   6.356   2.916   2.902  0.6643  2.1272 -1.6224
  122MOL    H9117273   6.479   2.710   2.856 -1.8982  0.7178  0.2073
  122MOL    H9217274   6.439   2.716   3.034  0.1830 -0.3971 -0.2739
  122MOL    C9317275   6.680   2.610   2.985 -0.2821  0.2409 -0.1764
  122MOL    C9417276   6.838   2.612   2.961  0.0359 -0.3474  0.3146
  122MOL    O9517277   6.876   2.610   2.832 -0.0731  0.1718 -0.1718
  122MOL    H9617278   6.656   2.560   3.078  0.9453 -1.2359 -0.6229
  122MOL    H9717279   6.624   2.553   2.911  0.9953 -0.0372 -0.9380
  122MOL    H9817280   6.880   2.516   2.991  0.2998  0.4013  2.4410
  122MOL    H9917281   6.885   2.689   3.024 -0.5001 -1.1611  1.7315
  122MOL   C10017282   6.867   2.730   2.762 -0.3433 -0.7647  0.7263
  122MOL   C10117283   6.954   2.742   2.633  0.2200  0.1256 -0.1020
  122MOL   O10217284   6.943   2.880   2.597  0.4940  0.3168 -0.5345
  122MOL   H10317285   6.761   2.745   2.742 -0.2576 -0.0157  0.7855
  122MOL   H10417286   6.891   2.813   2.829 -1.5020  1.3536 -1.3710
  122MOL   H10517287   6.910   2.673   2.560 -1.6178  1.1758 -0.0107
  122MOL   H10617288   7.053   2.710   2.666 -0.3986 -0.3372  1.3431
  122MOL   C10717289   7.006   2.901   2.467  0.0545  0.1125  0.1541
  122MOL   C10817290   6.963   3.026   2.404  0.1385  0.4748  0.1792
  122MOL   O10917291   6.840   3.024   2.327 -0.3724 -0.2289  0.3466
  122MOL   H11017292   7.113   2.891   2.479 -0.0795  1.1322  2.4377
  122MOL   H11117293   6.969   2.820   2.403 -0.8566  1.9586 -1.7254
  122MOL   H11217294   7.047   3.057   2.342  0.4917  1.6204  1.1918
  122MOL   H11317295   6.963   3.105   2.480 -1.5613 -0.2964  1.0066
  122MOL   C11417296   6.729   3.037   2.418 -0.2724  0.0532  0.2055
  122MOL   C11517297   6.601   3.010   2.342  0.4027 -0.3355 -0.6889
  122MOL   O11617298   6.562   3.132   2.276  0.6261  0.2102  0.5565
  122MOL   H11717299   6.731   2.964   2.499 -0.6932  0.7366  0.8443
  122MOL   H11817300   6.736   3.139   2.457 -1.0303 -0.1856  0.9854
  122MOL   H11917301   6.516   2.994   2.407  1.0487 -0.4816  0.1271
  122MOL   H12017302   6.595   2.927   2.272 -0.4424  0.6968 -1.8655
  122MOL   C12117303   6.445   3.134   2.202  0.8444  0.1420  0.2111
  122MOL   C12217304   6.306   3.140   2.275  0.1368 -0.8311  0.0704
  122MOL   O12317305   6.272   3.011   2.336  0.8207  0.3420  0.5716
  122MOL   H12417306   6.453   3.224   2.141 -1.0197 -0.1211 -0.4592
  122MOL   H12517307   6.445   3.051   2.131 -0.2085 -0.1735  0.5848
  122MOL   H12617308   6.239   3.163   2.193  1.0968 -0.8821 -0.7443
  122MOL   H12717309   6.296   3.226   2.341  2.0538 -1.8375  1.7345
  122MOL   C12817310   6.233   3.027   2.467 -0.8046 -0.1018 -0.4943
  122MOL   C12917311   6.175   2.902   2.533  0.2669  0.2242  0.5131
  122MOL   O13017312   6.158   2.918   2.671  0.4279  0.2003  0.4276
  122MOL   H13117313   6.320   3.051   2.527 -1.4489  0.3088  0.2868
  122MOL   H13217314   6.168   3.114   2.476  2.9531  2.8496 -0.6457
  122MOL   H13317315   6.242   2.817   2.526 -2.1484 -1.6502 -0.3706
  122MOL   H13417316   6.083   2.876   2.480  0.4658 -0.6943  0.6118
  122MOL   C13517317   6.102   2.807   2.736  0.3165 -0.4110  0.1427
  122MOL   C13617318   6.075   2.864   2.882  0.7839  0.1515  0.3382
  122MOL   O13717319   5.952   2.946   2.889  0.1894 -0.2980 -0.1964
  122MOL   H13817320   6.009   2.778   2.688  1.5126 -1.7351 -1.4621
  122MOL   H13917321   6.166   2.718   2.730 -1.3637 -1.7236  1.1249
  122MOL   H14017322   6.161   2.915   2.925  1.6678 -0.5871 -0.5268
  122MOL   H14117323   6.055   2.775   2.943 -0.7195 -0.0064 -0.3636
  122MOL   H14217324   5.977   3.028   2.852 -0.6147 -0.9557 -2.2838
  123MOL     C117325   4.488   5.287   4.117  0.5342  0.2617 -0.3993
  123MOL     C217326   4.467   5.338   4.257  0.4724 -0.3091  0.3886
  123MOL     O317327   4.584   5.400   4.320 -0.0613 -0.5638  0.3532
  123MOL     H417328   4.404   5.236   4.069 -0.5942 -0.8023  2.6426
  123MOL     H517329   4.566   5.211   4.118 -0.1897 -0.5814 -2.9702
  123MOL     H617330   4.430   5.260   4.323  1.0754 -0.4108  0.6027
  123MOL     H717331   4.386   5.411   4.254 -0.0901 -0.9771 -3.7570
  123MOL     H817332   4.527   5.373   4.061  1.8602 -0.5162 -0.6867
  123MOL     C917333   4.554   5.451   4.449 -0.3440 -0.1377  0.3454
  123MOL    C1017334   4.552   5.341   4.552  0.3856 -0.2983 -0.2963
  123MOL    O1117335   4.676   5.283   4.569 -0.4470  0.3287  0.6493
  123MOL    H1217336   4.630   5.528   4.464  0.3212 -0.3252 -1.7615
  123MOL    H1317337   4.458   5.499   4.429  0.3115  0.2156 -2.1873
  123MOL    H1417338   4.466   5.274   4.546  0.6251 -0.7892  1.4203
  123MOL    H1517339   4.539   5.391   4.648 -0.5884  1.3706 -1.2707
  123MOL    C1617340   4.683   5.187   4.675  1.0854  0.7516 -0.4010
  123MOL    C1717341   4.821   5.192   4.738 -0.3494 -0.1974  0.5184
  123MOL    O1817342   4.927   5.132   4.667  0.3493  0.4586  0.1517
  123MOL    H1917343   4.604   5.212   4.745 -1.2699 -0.5528 -2.5232
  123MOL    H2017344   4.662   5.086   4.641 -0.8347  1.6060 -1.8159
  123MOL    H2117345   4.819   5.149   4.838  0.4704  1.8886  1.4546
  123MOL    H2217346   4.848   5.297   4.753 -1.4199  0.0548  0.7121
  123MOL    C2317347   4.905   4.996   4.629  0.5428 -0.1109  0.0069
  123MOL    C2417348   5.028   4.931   4.560  0.1196 -0.6764 -0.7324
  123MOL    O2517349   5.126   4.884   4.654 -0.7307  0.4206  0.0510
  123MOL    H2617350   4.880   4.950   4.725  1.0399 -1.8405 -0.6762
  123MOL    H2717351   4.821   4.997   4.560 -0.7125 -2.1799  1.4384
  123MOL    H2817352   5.076   4.993   4.485  0.0356  1.1532  0.6934
  123MOL    H2917353   4.986   4.842   4.514  0.0873 -1.6555  1.1370
  123MOL    C3017354   5.247   4.851   4.592  0.7548 -0.0823  0.0249
  123MOL    C3117355   5.340   4.803   4.701  0.0544 -0.2175 -0.7024
  123MOL    O3217356   5.329   4.663   4.728  0.0863  0.1855 -0.0771
  123MOL    H3317357   5.228   4.768   4.525 -0.1619 -0.7716  1.1168
  123MOL    H3417358   5.287   4.938   4.539  3.2080  0.0303  1.9351
  123MOL    H3517359   5.327   4.860   4.793 -0.9238 -0.0663 -0.9254
  123MOL    H3617360   5.444   4.807   4.668  0.9151 -0.5491  1.8109
  123MOL    C3717361   5.216   4.633   4.814 -0.7553  0.1992  0.1825
  123MOL    C3817362   5.241   4.505   4.876  0.5413  1.1878  0.3870
  123MOL    O3917363   5.299   4.541   4.997  0.2415  0.1797 -0.2882
  123MOL    H4017364   5.178   4.709   4.882  0.1502  1.2883 -0.5023
  123MOL    H4117365   5.137   4.611   4.742 -1.6452 -0.0466  1.2270
  123MOL    H4217366   5.305   4.447   4.809  1.4172  1.6482  0.8190
  123MOL    H4317367   5.146   4.457   4.899  2.0679 -1.7860  0.7528
  123MOL    C4417368   5.332   4.426   5.072  0.0493  0.2934  0.3905
  123MOL    C4517369   5.376   4.470   5.208 -0.8276 -0.0817  0.0032
  123MOL    O4617370   5.484   4.394   5.255 -0.1630 -0.3370 -0.4267
  123MOL    H4717371   5.268   4.338   5.075 -0.4630  0.5441 -2.2713
  123MOL    H4817372   5.425   4.383   5.034  0.5335 -0.1981  2.0613
  123MOL    H4917373   5.284   4.467   5.266 -0.6940 -3.2822  0.1473
  123MOL    H5017374   5.409   4.574   5.205 -1.2067  0.0881  1.2329
  123MOL    C5117375   5.512   4.424   5.388 -0.6950 -0.7671 -1.1576
  123MOL    C5217376   5.615   4.330   5.466 -0.6643 -0.4084 -0.0268
  123MOL    O5317377   5.544   4.230   5.525 -0.6170  0.0687 -0.7850
  123MOL    H5417378   5.546   4.527   5.391  0.3202 -1.0886 -1.4881
  123MOL    H5517379   5.422   4.431   5.449  1.2885  0.8796  1.7237
  123MOL    H5617380   5.670   4.386   5.542 -0.5734  0.2330 -0.5629
  123MOL    H5717381   5.698   4.286   5.410  0.8772  2.1079  0.2082
  123MOL    C5817382   5.618   4.134   5.612 -0.7562 -0.4445  0.0651
  123MOL    C5917383   5.633   3.994   5.543  0.7025  0.3406 -0.5482
  123MOL    O6017384   5.736   3.999   5.446  0.1154 -0.2872 -0.1955
  123MOL    H6117385   5.715   4.180   5.630 -0.1518 -0.8598 -2.0920
  123MOL    H6217386   5.577   4.141   5.713  0.5425 -0.7921  0.6308
  123MOL    H6317387   5.535   3.954   5.515  0.9510 -1.0367  0.5001
  123MOL    H6417388   5.664   3.927   5.623  1.3629  0.2875 -0.8423
  123MOL    C6517389   5.783   3.874   5.411  0.1636  0.2681 -0.2713
  123MOL    C6617390   5.902   3.882   5.309 -0.7421 -0.1254 -0.8918
  123MOL    O6717391   6.028   3.910   5.374 -0.2547 -0.0110  0.3243
  123MOL    H6817392   5.824   3.822   5.498  3.2745  1.6748 -0.7921
  123MOL    H6917393   5.698   3.821   5.369  0.0724  1.2848 -1.3886
  123MOL    H7017394   5.893   3.966   5.241 -1.1962 -0.1946 -0.9238
  123MOL    H7117395   5.909   3.794   5.244 -2.4972 -0.5252 -0.5848
  123MOL    C7217396   6.142   3.859   5.315 -0.1403 -0.1379  0.4788
  123MOL    C7317397   6.250   3.856   5.420  0.1627  0.6509  0.0940
  123MOL    O7417398   6.204   3.782   5.539 -0.2217 -0.3196 -0.5498
  123MOL    H7517399   6.130   3.753   5.290  0.7885  0.1205 -1.1171
  123MOL    H7617400   6.159   3.915   5.223  1.3511 -1.2604  0.0414
  123MOL    H7717401   6.279   3.958   5.447  0.1425  0.1616  2.0288
  123MOL    H7817402   6.333   3.804   5.373 -0.0061  0.5123 -0.0518
  123MOL    C7917403   6.314   3.782   5.635  0.0502 -0.3261 -0.9348
  123MOL    C8017404   6.297   3.701   5.771 -0.6936 -0.3600  0.1193
  123MOL    O8117405   6.384   3.590   5.752  0.3881  0.1507 -0.0931
  123MOL    H8217406   6.392   3.735   5.574  0.0137 -0.4738 -0.8678
  123MOL    H8317407   6.340   3.886   5.655  1.9334 -0.6257 -1.7131
  123MOL    H8417408   6.193   3.668   5.780 -1.3983  1.6102 -0.4834
  123MOL    H8517409   6.322   3.759   5.859 -0.9209 -0.9917  0.6073
  123MOL    C8617410   6.359   3.490   5.850 -0.4068 -0.3331 -0.3679
  123MOL    C8717411   6.450   3.370   5.822 -0.0061 -0.1759  0.1206
  123MOL    O8817412   6.403   3.283   5.713 -0.0683  0.2495 -0.0520
  123MOL    H8917413   6.393   3.534   5.943 -0.9224  0.0435 -0.3499
  123MOL    H9017414   6.253   3.466   5.865 -0.4466 -0.4731 -0.8706
  123MOL    H9117415   6.467   3.310   5.911  2.9920  1.9704  1.1149
  123MOL    H9217416   6.546   3.412   5.789 -1.0059  0.9079 -1.4872
  123MOL    C9317417   6.408   3.338   5.582 -0.1845 -0.4370  0.2066
  123MOL    C9417418   6.347   3.231   5.501  0.1061 -0.7456 -0.0081
  123MOL    O9517419   6.445   3.142   5.457  0.4286  0.0709 -0.0472
  123MOL    H9617420   6.350   3.428   5.567 -0.6813 -0.9703 -1.1415
  123MOL    H9717421   6.510   3.359   5.550  0.8464  0.4402  3.7791
  123MOL    H9817422   6.325   3.296   5.417  1.0760  1.0040  1.0856
  123MOL    H9917423   6.252   3.197   5.543 -1.5770  2.8047 -0.7545
  123MOL   C10017424   6.397   3.024   5.383 -0.4240 -0.3582 -0.2562
  123MOL   C10117425   6.330   3.045   5.251 -0.2894 -0.5924 -0.2252
  123MOL   O10217426   6.411   3.097   5.146 -0.0798  0.5436  0.1529
  123MOL   H10317427   6.481   2.956   5.368 -0.9118 -0.9180 -0.4853
  123MOL   H10417428   6.333   2.961   5.445 -0.8562 -0.3209 -0.6560
  123MOL   H10517429   6.240   3.106   5.263  1.0142  1.5290 -0.9054
  123MOL   H10617430   6.287   2.952   5.215  0.5800 -1.5556  1.1759
  123MOL   C10717431   6.426   3.241   5.140 -0.2516  0.1266  0.3099
  123MOL   C10817432   6.489   3.264   5.008  0.1089 -0.5637  0.0389
  123MOL   O10917433   6.415   3.223   4.893  0.1647 -0.0283 -0.5203
  123MOL   H11017434   6.326   3.284   5.138  0.6627  2.2672 -2.4231
  123MOL   H11117435   6.481   3.292   5.219  0.1466 -0.3020  0.3108
  123MOL   H11217436   6.582   3.207   4.997  0.0944 -0.4146 -0.9097
  123MOL   H11317437   6.527   3.365   4.990  0.3167 -1.2487 -3.7557
  123MOL   C11417438   6.467   3.274   4.773 -0.2655  0.0755  0.0746
  123MOL   C11517439   6.592   3.198   4.719 -0.3170  0.3480  0.4180
  123MOL   O11617440   6.708   3.231   4.791  0.8073  0.3486 -0.1880
  123MOL   H11717441   6.383   3.254   4.707 -1.3897  1.6487  0.9882
  123MOL   H11817442   6.478   3.383   4.771  2.5485 -0.1669 -1.2293
  123MOL   H11917443   6.600   3.213   4.611 -1.4557  0.1162  0.2882
  123MOL   H12017444   6.573   3.093   4.740 -0.0421 -0.1170 -1.5714
  123MOL   C12117445   6.820   3.176   4.722 -0.4879 -0.5720  0.8588
  123MOL   C12217446   6.944   3.170   4.805 -0.5668 -0.7170 -0.4751
  123MOL   O12317447   7.001   3.294   4.817  0.1652 -0.1482  0.6430
  123MOL   H12417448   6.810   3.074   4.684  0.6168  0.6413 -2.8520
  123MOL   H12517449   6.845   3.237   4.636  1.8471 -1.9518  0.5250
  123MOL   H12617450   7.019   3.099   4.770  1.7651  1.6602 -0.4265
  123MOL   H12717451   6.911   3.134   4.903 -0.3967  0.0098 -0.1535
  123MOL   C12817452   7.104   3.303   4.916 -0.7937 -0.3782 -0.9064
  123MOL   C12917453   7.204   3.425   4.894 -0.2690 -0.2584  0.9595
  123MOL   O13017454   7.273   3.409   4.774  0.0585 -0.6468  0.0652
  123MOL   H13117455   7.054   3.322   5.011  2.2449  0.5694  0.5376
  123MOL   H13217456   7.151   3.205   4.923 -0.2334 -0.1606 -1.5458
  123MOL   H13317457   7.287   3.420   4.965  3.3869 -1.1831 -3.1528
  123MOL   H13417458   7.160   3.525   4.895 -0.1792 -0.2263  1.9578
  123MOL   C13517459   7.359   3.513   4.730 -0.1622 -0.2404 -0.5638
  123MOL   C13617460   7.368   3.512   4.571  0.3040 -0.1351 -0.1815
  123MOL   O13717461   7.447   3.620   4.542 -0.1192  0.2359 -0.3878
  123MOL   H13817462   7.327   3.613   4.758 -0.4347 -0.1553 -1.1860
  123MOL   H13917463   7.455   3.510   4.782 -0.0050  2.5410 -0.6191
  123MOL   H14017464   7.272   3.523   4.522  0.6402  1.4108 -0.5107
  123MOL   H14117465   7.424   3.422   4.543 -0.8986 -0.8756 -0.2555
  123MOL   H14217466   7.414   3.695   4.588  0.6991  0.3752 -0.0261
  124MOL     C117467   6.509   2.650   3.735  0.1097  0.1114 -0.2306
  124MOL     C217468   6.582   2.576   3.627 -0.3264  0.3127 -0.8242
  124MOL     O317469   6.594   2.666   3.515 -0.1571 -0.2068 -0.5021
  124MOL     H417470   6.407   2.662   3.700 -0.1041  0.0516  0.3809
  124MOL     H517471   6.549   2.748   3.762 -0.1655  1.2413 -3.6487
  124MOL     H617472   6.528   2.486   3.596  2.4050 -0.5179 -3.3359
  124MOL     H717473   6.676   2.535   3.662 -0.7664  0.6108  0.7589
  124MOL     H817474   6.500   2.590   3.825  1.3208  0.8528  0.4054
  124MOL     C917475   6.482   2.664   3.428  0.1927 -0.2319 -0.1522
  124MOL    C1017476   6.509   2.773   3.329 -0.4004  0.2242  1.0302
  124MOL    O1117477   6.589   2.886   3.373  0.5755  0.2548  0.0977
  124MOL    H1217478   6.472   2.565   3.383 -0.6054 -0.2158 -0.0195
  124MOL    H1317479   6.385   2.685   3.472 -0.7720  0.0990 -2.3475
  124MOL    H1417480   6.417   2.807   3.283 -1.7975 -0.0600  3.5612
  124MOL    H1517481   6.561   2.726   3.245 -0.4735  0.6005  0.7703
  124MOL    C1617482   6.520   2.982   3.458  0.4505 -0.2664 -0.5826
  124MOL    C1717483   6.626   3.078   3.511 -0.4521  0.1186 -0.1601
  124MOL    O1817484   6.648   3.192   3.437 -0.6224 -0.5422  0.4231
  124MOL    H1917485   6.448   3.047   3.409 -1.8532 -1.0576  1.6525
  124MOL    H2017486   6.469   2.940   3.544 -0.8851 -1.6040 -2.0050
  124MOL    H2117487   6.715   3.030   3.551  0.8027  2.4116 -0.1529
  124MOL    H2217488   6.569   3.100   3.601  1.5244 -2.9368  1.9483
  124MOL    C2317489   6.749   3.170   3.339 -0.0914 -0.0327  0.6194
  124MOL    C2417490   6.768   3.301   3.260 -0.0489  0.8748 -0.0597
  124MOL    O2517491   6.812   3.407   3.345 -0.1273 -0.0278  0.2649
  124MOL    H2617492   6.844   3.159   3.391  0.6236  2.8582  0.0127
  124MOL    H2717493   6.725   3.088   3.272 -0.3875  2.0188 -1.8941
  124MOL    H2817494   6.676   3.318   3.204  1.1985  0.2492 -2.3557
  124MOL    H2917495   6.841   3.279   3.182  0.6980  0.1438  0.8397
  124MOL    C3017496   6.799   3.527   3.280 -0.6925 -0.3012 -0.4405
  124MOL    C3117497   6.708   3.628   3.356  0.0469  0.6485 -0.6465
  124MOL    O3217498   6.768   3.652   3.485  0.5675  0.1936 -0.4439
  124MOL    H3317499   6.897   3.572   3.266 -0.9687 -0.0828 -1.6893
  124MOL    H3417500   6.771   3.519   3.175 -0.8670  0.7352 -0.4803
  124MOL    H3517501   6.604   3.597   3.358  0.6188 -1.3910 -0.7596
  124MOL    H3617502   6.722   3.723   3.305  3.1474  0.5087 -0.1708
  124MOL    C3717503   6.669   3.677   3.585 -0.0019 -0.0647 -0.6037
  124MOL    C3817504   6.739   3.652   3.724 -0.4305  0.4877 -0.9561
  124MOL    O3917505   6.684   3.535   3.790 -0.2442 -0.1511  0.5191
  124MOL    H4017506   6.634   3.781   3.583  0.4405  0.0728 -2.9852
  124MOL    H4117507   6.583   3.610   3.576  1.1636 -1.8683  1.2835
  124MOL    H4217508   6.712   3.733   3.792  0.5461 -0.6266  0.7992
  124MOL    H4317509   6.845   3.636   3.705 -0.5459 -1.9795  0.1926
  124MOL    C4417510   6.696   3.407   3.733 -0.7550  0.1778  0.9253
  124MOL    C4517511   6.643   3.306   3.833 -0.1121 -0.5872  0.1749
  124MOL    O4617512   6.500   3.301   3.820 -0.0382  0.0206  0.2909
  124MOL    H4717513   6.642   3.400   3.639 -0.4894  0.6741  0.7301
  124MOL    H4817514   6.800   3.396   3.699 -0.7313 -0.0386  1.0680
  124MOL    H4917515   6.677   3.322   3.935  1.4348  0.8434 -0.5362
  124MOL    H5017516   6.684   3.207   3.813 -0.1041 -0.9945  2.0975
  124MOL    C5117517   6.433   3.224   3.925  0.6178  0.6506 -0.2227
  124MOL    C5217518   6.455   3.066   3.913 -0.6602 -0.6830 -1.0191
  124MOL    O5317519   6.411   3.028   3.787 -0.0889  0.0672 -0.9097
  124MOL    H5417520   6.464   3.263   4.022 -3.1635  0.6151  1.0969
  124MOL    H5517521   6.325   3.235   3.922  0.3692 -1.3113  0.4261
  124MOL    H5617522   6.391   3.021   3.990  0.4859  0.9607  0.9564
  124MOL    H5717523   6.556   3.031   3.931  0.0298  1.7252 -0.0038
  124MOL    C5817524   6.274   3.033   3.755 -0.6445 -0.2024  0.0372
  124MOL    C5917525   6.225   2.900   3.701 -0.1874  0.1093  0.1584
  124MOL    O6017526   6.115   2.837   3.762  0.2278 -0.3820 -0.0560
  124MOL    H6117527   6.206   3.087   3.821  2.3091  2.7354  0.8786
  124MOL    H6217528   6.257   3.103   3.674  1.6485 -0.3688 -0.6368
  124MOL    H6317529   6.312   2.834   3.701  1.5889  2.3636  1.1073
  124MOL    H6417530   6.207   2.901   3.594 -2.3789 -0.7583  0.4886
  124MOL    C6517531   5.994   2.896   3.723  0.3840  0.4692 -0.4299
  124MOL    C6617532   5.892   2.893   3.842  0.1569  0.4445 -0.3733
  124MOL    O6717533   5.905   3.006   3.932 -0.0028 -0.3457 -0.2823
  124MOL    H6817534   6.000   3.001   3.696 -0.1913  0.7729  0.5736
  124MOL    H6917535   5.963   2.835   3.639  0.9479  0.2729 -0.4968
  124MOL    H7017536   5.896   2.797   3.892  0.7320  0.8557  0.3870
  124MOL    H7117537   5.791   2.911   3.805 -0.7176 -0.3195  1.5881
  124MOL    C7217538   5.994   2.971   4.036 -0.6531  0.0182  0.1128
  124MOL    C7317539   6.007   3.092   4.126 -0.8869  0.2565 -0.4273
  124MOL    O7417540   6.076   3.190   4.054  0.5675  0.3282  0.0851
  124MOL    H7517541   5.949   2.890   4.093  0.8473 -2.8048 -2.5382
  124MOL    H7617542   6.089   2.948   3.987  0.3319  3.6861  0.1811
  124MOL    H7717543   6.065   3.059   4.213 -1.1554  1.7705  0.3306
  124MOL    H7817544   5.907   3.116   4.160 -0.1890  1.1581  1.0496
  124MOL    C7917545   6.074   3.320   4.110  0.0328 -0.6820 -0.5173
  124MOL    C8017546   6.175   3.326   4.221  0.2241 -0.4139  0.6682
  124MOL    O8117547   6.144   3.235   4.321  0.3090 -0.2958  0.1517
  124MOL    H8217548   6.097   3.399   4.039  0.7576 -1.7207 -1.4509
  124MOL    H8317549   5.972   3.343   4.141  0.7802  1.4273  0.4924
  124MOL    H8417550   6.180   3.424   4.268  0.5233  0.5050 -1.2492
  124MOL    H8517551   6.275   3.300   4.186  1.0679  4.0936 -0.5723
  124MOL    C8617552   6.235   3.217   4.434  0.2859 -0.7608  0.1452
  124MOL    C8717553   6.344   3.133   4.378  0.3324 -0.3086  0.0946
  124MOL    O8817554   6.454   3.205   4.340 -0.3067 -0.8930  0.0515
  124MOL    H8917555   6.279   3.304   4.483  2.2128 -1.4478 -0.3136
  124MOL    H9017556   6.173   3.152   4.496 -0.4182  0.0269  0.2759
  124MOL    H9117557   6.315   3.059   4.304  3.0472 -1.3471  0.0140
  124MOL    H9217558   6.385   3.081   4.465 -1.3596  0.6086  1.4725
  124MOL    C9317559   6.563   3.126   4.302  0.3264 -1.2691  0.4886
  124MOL    C9417560   6.691   3.214   4.308 -0.4494 -0.0196  0.7160
  124MOL    O9517561   6.814   3.148   4.247  0.2128  0.4893 -0.2624
  124MOL    H9617562   6.576   3.049   4.378 -3.3336 -1.9929  0.4811
  124MOL    H9717563   6.552   3.071   4.209  2.4690 -1.2317  0.1877
  124MOL    H9817564   6.721   3.247   4.408  1.4207  0.4940 -0.0068
  124MOL    H9917565   6.671   3.303   4.248 -0.4238  0.7338  1.7935
  124MOL   C10017566   6.928   3.231   4.248 -0.0342 -0.6425 -0.2557
  124MOL   C10117567   7.031   3.167   4.161  0.0907  0.0391 -0.2718
  124MOL   O10217568   6.980   3.202   4.032  0.0394  0.0987  0.1947
  124MOL   H10317569   6.908   3.334   4.219 -0.9883 -0.3765  1.2509
  124MOL   H10417570   6.969   3.235   4.349 -2.1617  0.4481  0.6139
  124MOL   H10517571   7.045   3.058   4.164 -3.2896 -0.5457 -2.7060
  124MOL   H10617572   7.130   3.212   4.166  0.7988 -1.6332  1.3146
  124MOL   C10717573   7.090   3.204   3.929  0.5525  0.0200  0.0067
  124MOL   C10817574   7.016   3.209   3.793  0.0775  0.1848 -0.5559
  124MOL   O10917575   7.118   3.173   3.698  0.9158  0.1663  0.2230
  124MOL   H11017576   7.150   3.293   3.945  0.3924  0.0303  0.5733
  124MOL   H11117577   7.153   3.117   3.946  1.4234  1.0485  2.2472
  124MOL   H11217578   6.986   3.313   3.786  0.4568  0.4482  1.5502
  124MOL   H11317579   6.931   3.142   3.784  0.6896 -0.3709 -2.5795
  124MOL   C11417580   7.056   3.174   3.569 -0.5851  0.0954  0.3898
  124MOL   C11517581   7.168   3.151   3.465 -0.2598 -0.3433 -0.0893
  124MOL   O11617582   7.247   3.266   3.422 -0.0262  0.0596  0.3171
  124MOL   H11717583   6.993   3.087   3.549  0.2790 -0.6210  0.7632
  124MOL   H11817584   6.994   3.262   3.553 -0.6644  0.1394  0.8970
  124MOL   H11917585   7.115   3.113   3.378 -0.4577 -0.3524  0.0325
  124MOL   H12017586   7.237   3.072   3.492  0.5884 -0.0991 -1.5141
  124MOL   C12117587   7.186   3.395   3.396 -0.3472  0.2687  0.1200
  124MOL   C12217588   7.280   3.473   3.319 -0.4205 -0.3681  0.4561
  124MOL   O12317589   7.368   3.547   3.401 -0.1211 -0.2900 -0.9274
  124MOL   H12417590   7.102   3.368   3.332 -1.6291 -1.4665  2.4516
  124MOL   H12517591   7.150   3.446   3.485 -3.8462 -2.4967  0.4104
  124MOL   H12617592   7.226   3.535   3.247  0.1087 -2.7437 -2.1019
  124MOL   H12717593   7.334   3.401   3.257  0.2753  1.9643 -1.7488
  124MOL   C12817594   7.419   3.658   3.323 -0.3559 -0.7508  0.0486
  124MOL   C12917595   7.512   3.734   3.409  0.3158 -0.0403 -0.1424
  124MOL   O13017596   7.594   3.835   3.333  0.1175  0.4739 -0.4850
  124MOL   H13117597   7.457   3.634   3.224 -0.4694  0.7190 -0.3737
  124MOL   H13217598   7.333   3.721   3.300 -0.2302 -0.8729 -0.7773
  124MOL   H13317599   7.580   3.674   3.469 -0.2303 -0.6469 -0.1316
  124MOL   H13417600   7.452   3.782   3.486  0.3072 -2.0817  1.1379
  124MOL   C13517601   7.711   3.776   3.272 -0.7026 -0.1032  0.1009
  124MOL   C13617602   7.751   3.861   3.156 -0.2656  0.1354 -0.2778
  124MOL   O13717603   7.671   3.838   3.038  1.0245  0.1023  0.7209
  124MOL   H13817604   0.014   3.766   3.351  0.2209  0.8841 -0.6221
  124MOL   H13917605   7.688   3.672   3.247  1.7309 -0.5387 -0.4252
  124MOL   H14017606   0.084   3.836   3.135  0.8470  2.2752  2.3589
  124MOL   H14117607   7.753   3.964   3.191 -0.3670 -0.0785  0.3752
  124MOL   H14217608   7.703   3.903   2.977  0.7680 -0.7420 -0.3076
  125MOL     C117609   6.456   4.417   2.001 -0.0373 -0.0916 -0.2471
  125MOL     C217610   6.600   4.443   2.020 -0.4661 -0.4822  0.2295
  125MOL     O317611   6.678   4.327   2.032  0.0379  0.1232  0.0698
  125MOL     H417612   6.416   4.360   2.085 -0.9162 -0.5927 -1.0117
  125MOL     H517613   6.441   4.370   1.905 -2.2470  0.5692 -0.2496
  125MOL     H617614   6.620   4.502   2.110  5.1334 -1.1723 -0.3500
  125MOL     H717615   6.635   4.493   1.929  0.0101  0.9091  1.1608
  125MOL     H817616   6.400   4.511   1.997  0.8752  0.5943  1.9198
  125MOL     C917617   6.817   4.355   2.047  0.3321  0.4655  0.2599
  125MOL    C1017618   6.863   4.392   2.194 -0.4219 -0.2315 -0.0246
  125MOL    O1117619   6.851   4.534   2.215  0.8073 -0.3368 -0.1269
  125MOL    H1217620   6.873   4.266   2.021  0.9911  1.2508 -1.0741
  125MOL    H1317621   6.850   4.432   1.978  0.6640 -1.5240 -1.8302
  125MOL    H1417622   6.970   4.373   2.198 -0.4726 -0.9760 -1.5474
  125MOL    H1517623   6.816   4.326   2.267 -1.3985  0.0794 -0.3549
  125MOL    C1617624   6.880   4.559   2.350 -0.6083  0.1788 -0.7764
  125MOL    C1717625   6.921   4.711   2.368  0.0973  0.3348 -0.0770
  125MOL    O1817626   7.060   4.726   2.392 -0.2132  0.1981  0.6464
  125MOL    H1917627   6.798   4.543   2.420  0.7503 -0.5037  0.7109
  125MOL    H2017628   6.962   4.497   2.387 -0.4110 -0.3155 -2.0426
  125MOL    H2117629   6.873   4.741   2.461 -0.2741  0.2523 -0.2421
  125MOL    H2217630   6.886   4.772   2.285  0.1715  0.0474 -0.3210
  125MOL    C2317631   7.137   4.710   2.276 -0.7466  0.2211 -0.5055
  125MOL    C2417632   7.280   4.759   2.286  0.3649 -0.0441  0.3768
  125MOL    O2517633   7.297   4.893   2.238  0.1714 -0.3706 -0.2385
  125MOL    H2617634   7.141   4.607   2.242 -1.1291  0.3597 -0.9828
  125MOL    H2717635   7.085   4.753   2.190  0.2918  1.8400 -0.3488
  125MOL    H2817636   7.339   4.692   2.224 -0.0293  0.4931 -0.6022
  125MOL    H2917637   7.317   4.746   2.387  1.0296  0.4828  0.2075
  125MOL    C3017638   7.233   4.993   2.322 -0.3905 -0.0551  0.3816
  125MOL    C3117639   7.284   5.132   2.279 -0.1929  0.2194 -0.6017
  125MOL    O3217640   7.261   5.155   2.141  0.1325 -0.2235  0.3689
  125MOL    H3317641   7.124   4.998   2.323 -0.3394  1.2218  2.9859
  125MOL    H3417642   7.265   4.997   2.426  0.0406 -0.3300  0.2584
  125MOL    H3517643   7.392   5.131   2.290 -0.2643  1.7827  0.2837
  125MOL    H3617644   7.238   5.198   2.352 -1.2015  0.6869 -1.6458
  125MOL    C3717645   7.333   5.272   2.103  0.1335  0.0338 -0.1333
  125MOL    C3817646   7.322   5.303   1.947 -0.4511  0.2943 -0.5445
  125MOL    O3917647   7.415   5.237   1.858  0.0986 -0.0257  0.7730
  125MOL    H4017648   7.282   5.350   2.160 -0.4579 -0.9018  0.6221
  125MOL    H4117649   7.437   5.281   2.133 -0.3545  0.8515  1.3626
  125MOL    H4217650   7.338   5.410   1.933  0.2726  0.3867  0.9295
  125MOL    H4317651   7.226   5.276   1.903  0.9087 -2.4106 -2.0078
  125MOL    C4417652   7.411   5.273   1.720  0.7549  1.2541  0.4607
  125MOL    C4517653   7.274   5.234   1.656 -0.6835 -0.2988 -0.1036
  125MOL    O4617654   7.174   5.329   1.669  0.7305 -0.7011 -0.0585
  125MOL    H4717655   7.427   5.380   1.711 -1.7499  1.7132  1.0898
  125MOL    H4817656   7.489   5.227   1.660  0.9073  0.2198  1.4113
  125MOL    H4917657   7.244   5.143   1.708  0.4450 -0.6302  0.0037
  125MOL    H5017658   7.282   5.210   1.550  0.9403  1.1266 -0.3183
  125MOL    C5117659   7.038   5.278   1.662  0.2298 -0.2933 -0.0130
  125MOL    C5217660   6.937   5.383   1.694 -0.0935  0.4250 -0.1933
  125MOL    O5317661   6.942   5.488   1.598 -0.3214  0.3010  0.4939
  125MOL    H5417662   7.032   5.231   1.564  4.2269 -0.6723 -0.1545
  125MOL    H5517663   7.044   5.203   1.742 -0.6694 -1.7838 -1.3124
  125MOL    H5617664   6.968   5.434   1.785  2.3169  1.8297 -1.7555
  125MOL    H5717665   6.834   5.348   1.699 -0.0151 -0.0569 -1.6555
  125MOL    C5817666   6.853   5.588   1.621 -0.3294 -0.1533  0.2605
  125MOL    C5917667   6.893   5.697   1.530 -0.2363 -0.5460 -0.8541
  125MOL    O6017668   6.850   5.687   1.396 -0.1415 -0.5382  0.2386
  125MOL    H6117669   6.750   5.553   1.607 -0.5044  0.8235 -1.0047
  125MOL    H6217670   6.870   5.633   1.719  3.6275 -1.4828  0.2531
  125MOL    H6317671   7.000   5.720   1.529 -0.0500 -1.3900 -1.2595
  125MOL    H6417672   6.851   5.793   1.558 -1.6771 -1.2251 -0.6200
  125MOL    C6517673   6.914   5.592   1.318 -0.1737  0.0427 -0.6252
  125MOL    C6617674   6.868   5.587   1.173  0.0385  0.7940 -0.0280
  125MOL    O6717675   6.942   5.679   1.099  0.2207 -0.3962 -0.2412
  125MOL    H6817676   7.022   5.602   1.329 -0.3972  2.6162 -0.5031
  125MOL    H6917677   6.898   5.493   1.362 -2.9658  0.1336 -1.3942
  125MOL    H7017678   6.760   5.582   1.162 -0.1648 -0.0819  2.0386
  125MOL    H7117679   6.906   5.492   1.137  1.1103  1.6117 -1.1243
  125MOL    C7217680   6.910   5.659   0.959  0.1168 -0.2775 -0.2457
  125MOL    C7317681   6.921   5.797   0.888 -0.3741 -0.3432  0.4594
  125MOL    O7417682   7.060   5.817   0.866 -0.1345  0.1543  0.2883
  125MOL    H7517683   6.966   5.579   0.911  0.1660 -0.9408  0.8953
  125MOL    H7617684   6.804   5.633   0.950 -0.5114  1.1101  2.4843
  125MOL    H7717685   6.873   5.877   0.945 -1.0147 -0.6641  0.3855
  125MOL    H7817686   6.868   5.791   0.793  0.4405  0.7030 -0.0607
  125MOL    C7917687   7.079   5.939   0.786  0.4904 -0.2793  0.4783
  125MOL    C8017688   7.177   5.913   0.680 -0.4636 -0.3001  0.0098
  125MOL    O8117689   7.113   5.892   0.557 -0.1391  0.7651  0.3428
  125MOL    H8217690   6.989   5.989   0.751  1.2906  1.4999  0.9214
  125MOL    H8317691   7.113   6.015   0.856 -0.5620 -0.9683  1.7703
  125MOL    H8417692   7.256   5.844   0.709 -0.5024  0.2545  1.4949
  125MOL    H8517693   7.231   6.007   0.668  0.5380 -0.6387  1.7975
  125MOL    C8617694   7.060   5.762   0.532  0.0774 -0.4673  0.0530
  125MOL    C8717695   7.043   5.750   0.378  0.3248 -0.7161 -0.3496
  125MOL    O8817696   6.921   5.799   0.327 -0.0609  0.0460  0.1410
  125MOL    H8917697   7.128   5.680   0.555 -0.8681 -0.7779  1.7565
  125MOL    H9017698   6.961   5.751   0.576 -0.3008  2.0886 -0.0415
  125MOL    H9117699   7.027   5.645   0.355  0.9466 -0.5776 -1.4394
  125MOL    H9217700   7.134   5.787   0.331 -0.9324  0.0818 -2.2676
  125MOL    C9317701   6.901   5.770   0.187 -0.0373 -0.5199 -0.1669
  125MOL    C9417702   6.777   5.845   0.155 -0.0731  0.5491 -0.0485
  125MOL    O9517703   6.673   5.788   0.237 -0.3693 -0.4696 -0.5486
  125MOL    H9617704   6.979   5.805   0.119 -0.9735  0.7750 -0.5799
  125MOL    H9717705   6.900   5.661   0.182  1.1546 -0.4854 -1.5938
  125MOL    H9817706   6.757   5.849   0.048  1.6919  1.9338 -0.3526
  125MOL    H9917707   6.794   5.949   0.182 -2.2761  1.2203 -1.1349
  125MOL   C10017708   6.559   5.875   0.239  0.1860  0.5430  0.2450
  125MOL   C10117709   6.485   5.915   0.107  0.0786 -0.2121  0.2647
  125MOL   O10217710   6.447   5.800   0.038 -0.1019  0.1178  0.4406
  125MOL   H10317711   6.492   5.827   0.310  1.2597 -1.0540  0.1996
  125MOL   H10417712   6.591   5.965   0.291 -0.6531  0.6520  0.5791
  125MOL   H10517713   6.551   5.968   0.039 -0.2331 -0.9303 -0.6011
  125MOL   H10617714   6.407   5.987   0.131  0.0914  0.1645 -0.8365
  125MOL   C10717715   6.396   5.825   7.680 -0.6172  0.4329 -0.0085
  125MOL   C10817716   6.501   5.800   7.575 -0.1460  0.3946 -0.1995
  125MOL   O10917717   6.598   5.903   7.585 -0.4045  0.0495  0.0348
  125MOL   H11017718   6.314   5.755   7.665  0.1377 -0.6820  0.9759
  125MOL   H11117719   6.367   5.930   7.671  1.3233  1.2598  2.6966
  125MOL   H11217720   6.477   5.792   7.469  0.4828  0.4163 -0.3497
  125MOL   H11317721   6.546   5.703   7.600 -2.3106 -0.5225  0.2732
  125MOL   C11417722   6.724   5.868   7.515  0.7705  0.4475  0.4288
  125MOL   C11517723   6.824   5.977   7.504 -0.3786 -0.0259  0.3976
  125MOL   O11617724   6.872   6.008   7.635  0.0334  0.0437  0.3654
  125MOL   H11717725   6.773   5.788   7.570 -1.8755 -1.4561  0.1264
  125MOL   H11817726   6.700   5.822   7.419  1.7922 -0.8648  0.7971
  125MOL   H11917727   6.769   6.060   7.459 -0.9147 -0.3651  0.4209
  125MOL   H12017728   6.901   5.942   7.435 -1.3824 -2.0071  0.2281
  125MOL   C12117729   6.948   6.120   7.641 -0.5597  0.5811 -0.3169
  125MOL   C12217730   7.015   6.128   0.012 -0.3391 -0.6461  0.0727
  125MOL   O12317731   7.115   6.028   0.012 -0.2936 -0.4203 -0.0887
  125MOL   H12417732   7.025   6.114   7.563  0.2321  0.0878  0.4973
  125MOL   H12517733   6.891   6.209   7.615  1.3969  1.8988 -0.1967
  125MOL   H12617734   6.938   6.117   0.088  0.2215  2.3303  1.1204
  125MOL   H12717735   7.053   6.227   0.037  0.9059 -1.5925  2.0479
  125MOL   C12817736   7.215   6.036   0.117  0.8862 -0.0848 -0.1613
  125MOL   C12917737   7.306   6.150   0.081 -0.9210 -0.9026 -0.1350
  125MOL   O13017738   7.258   6.268   0.137  0.1510 -0.8797  0.2694
  125MOL   H13117739   7.164   6.044   0.213  1.4728  0.6544  0.0890
  125MOL   H13217740   7.269   5.942   0.106 -0.9757 -1.1023 -0.8990
  125MOL   H13317741   7.321   6.166   7.745 -0.3524  2.0803  0.3551
  125MOL   H13417742   7.407   6.135   0.121 -1.2048 -1.3057  0.4370
  125MOL   C13517743   7.344   6.381   0.135  0.4400 -0.0463 -0.5178
  125MOL   C13617744   7.344   6.445   7.768  0.0065 -0.6851  0.2405
  125MOL   O13717745   7.464   6.406   7.712 -0.0218 -0.4738  0.4238
  125MOL   H13817746   7.301   6.440   0.216  1.1195 -1.1948  0.6816
  125MOL   H13917747   7.446   6.352   0.159  0.8187  1.7344  0.0549
  125MOL   H14017748   7.335   6.554   0.003 -1.4385 -0.8035  0.2039
  125MOL   H14117749   7.260   6.399   7.716 -0.3400  0.0377  0.1537
  125MOL   H14217750   7.532   6.453   7.758  0.4686  1.2522 -1.9826
  126MOL     C117751   4.508   0.708   2.163 -0.2419 -0.1699  0.3057
  126MOL     C217752   4.655   0.661   2.165  0.0097 -0.1477  0.4395
  126MOL     O317753   4.689   0.661   2.027 -0.4233 -0.0862 -0.0385
  126MOL     H417754   4.468   0.715   2.264 -0.7765  0.2651  0.0607
  126MOL     H517755   4.456   0.643   2.092  1.6227 -1.7552  0.3422
  126MOL     H617756   4.675   0.566   2.215 -0.1300  0.2088  1.1930
  126MOL     H717757   4.729   0.731   2.205 -0.1125 -0.1011  0.5869
  126MOL     H817758   4.491   0.807   2.122  1.9978 -0.3930 -1.2940
  126MOL     C917759   4.830   0.620   2.015  0.6071 -0.2818 -0.3570
  126MOL    C1017760   4.861   0.582   1.874  0.1901 -0.5286  0.7430
  126MOL    O1117761   4.883   0.700   1.790 -0.5363  0.7541 -0.5525
  126MOL    H1217762   4.895   0.702   2.045  0.0808 -0.0949  0.2797
  126MOL    H1317763   4.829   0.530   2.076 -2.4660  0.4758  0.8031
  126MOL    H1417764   4.772   0.535   1.833  1.2560 -2.7085  0.8378
  126MOL    H1517765   4.938   0.504   1.876  1.6309  0.8828  1.7452
  126MOL    C1617766   4.869   0.674   1.653  0.1742 -0.4026 -0.9680
  126MOL    C1717767   4.901   0.808   1.574  0.0146 -0.1287  0.0789
  126MOL    O1817768   4.966   0.767   1.449 -0.4984 -0.5206  0.2399
  126MOL    H1917769   4.942   0.599   1.625  1.5026  0.4606  0.1234
  126MOL    H2017770   4.771   0.634   1.625  0.6026 -1.3883 -1.0656
  126MOL    H2117771   4.973   0.870   1.627 -0.5117 -0.6794  1.4572
  126MOL    H2217772   4.820   0.873   1.541  0.2641 -0.2805 -0.8561
  126MOL    C2317773   5.044   0.861   1.377  0.1858 -0.0312  0.1307
  126MOL    C2417774   5.122   0.800   1.254 -0.3188 -0.6884 -0.0232
  126MOL    O2517775   5.019   0.758   1.165  0.4191  1.1450  0.1070
  126MOL    H2617776   4.970   0.930   1.336  0.5381  0.7119  0.7335
  126MOL    H2717777   5.116   0.918   1.435  0.1049  0.6505 -0.4208
  126MOL    H2817778   5.183   0.717   1.290  0.5318 -1.1817 -2.5551
  126MOL    H2917779   5.181   0.877   1.204 -0.0749 -0.0500  1.2065
  126MOL    C3017780   5.075   0.675   1.057  0.2528  0.8033 -0.3068
  126MOL    C3117781   4.978   0.599   0.967  0.1511  0.2335 -0.5472
  126MOL    O3217782   4.931   0.485   1.031  0.1301 -0.6980 -0.0167
  126MOL    H3317783   5.132   0.746   0.997  0.7196  3.0623  2.6377
  126MOL    H3417784   5.143   0.601   1.100  1.3142  2.2181  0.4885
  126MOL    H3517785   5.033   0.571   0.877 -0.5748 -1.1366 -0.5942
  126MOL    H3617786   4.896   0.667   0.944  0.0248  0.4589  0.5529
  126MOL    C3717787   4.832   0.423   0.954  0.4730 -0.2289 -0.5144
  126MOL    C3817788   4.779   0.307   1.038  0.1247  0.8050  0.5714
  126MOL    O3917789   4.850   0.189   1.010  0.1799  0.3809  0.6842
  126MOL    H4017790   4.749   0.493   0.951 -0.0646 -0.7907  0.7130
  126MOL    H4117791   4.856   0.382   0.855 -0.2918 -0.9771 -0.3957
  126MOL    H4217792   4.674   0.300   1.007  0.6901 -1.3635 -0.9312
  126MOL    H4317793   4.783   0.330   1.145  1.5869  0.5150  0.5791
  126MOL    C4417794   4.800   0.065   1.062  0.3141  0.0749 -0.1634
  126MOL    C4517795   4.719   7.764   0.957 -0.0262 -0.1872 -0.1080
  126MOL    O4617796   4.799   7.747   0.835  0.2638  0.2664 -0.2832
  126MOL    H4717797   4.887   0.004   1.085 -0.1269 -0.5893 -0.2747
  126MOL    H4817798   4.758   0.081   1.161 -0.5352  0.3447 -0.5615
  126MOL    H4917799   4.639   0.063   0.933 -0.7708 -0.6895  0.9148
  126MOL    H5017800   4.673   7.675   0.999 -0.6037  0.0073 -0.3329
  126MOL    C5117801   4.714   7.732   0.720 -0.3320 -0.0306  0.7384
  126MOL    C5217802   4.807   7.719   0.594  0.1845 -0.8261  0.3703
  126MOL    O5317803   4.723   7.714   0.476  0.0803  0.0396 -0.0065
  126MOL    H5417804   4.651   7.643   0.718 -1.1993  0.5964  0.0977
  126MOL    H5517805   4.652   0.050   0.720  1.3744  1.2261 -1.8367
  126MOL    H5617806   4.864   7.627   0.603  0.9521 -0.8412 -3.9004
  126MOL    H5717807   4.874   0.035   0.594  0.1577 -0.8036 -0.9239
  126MOL    C5817808   4.790   7.767   0.366 -0.6052  0.0728  0.3463
  126MOL    C5917809   4.697   7.727   0.248  0.3459  0.2105  0.0871
  126MOL    O6017810   4.617   0.067   0.213 -0.2497  0.1895  0.9122
  126MOL    H6117811   4.815   0.098   0.394  0.1297  0.1877 -0.7101
  126MOL    H6217812   4.887   7.724   0.343 -1.2650 -1.3323  0.1427
  126MOL    H6317813   4.620   7.655   0.278  1.8253 -1.9675 -1.1441
  126MOL    H6417814   4.749   7.691   0.159 -0.9816 -0.3501 -0.4771
  126MOL    C6517815   4.690   0.166   0.142  0.1208 -0.4284  0.4488
  126MOL    C6617816   4.598   0.278   0.088 -0.0117  0.2977  0.5810
  126MOL    O6717817   4.554   0.372   0.185 -0.0861 -0.1868 -0.3793
  126MOL    H6817818   4.778   0.209   0.191  0.3732 -3.3488  2.6950
  126MOL    H6917819   4.738   0.120   0.056 -0.2637 -1.1291  0.6063
  126MOL    H7017820   4.513   0.238   0.032  0.4595  3.0119 -2.1971
  126MOL    H7117821   4.652   0.332   0.010 -1.2419 -0.2197 -0.6583
  126MOL    C7217822   4.638   0.491   0.201 -0.2999 -0.3075 -0.0611
  126MOL    C7317823   4.563   0.614   0.245  0.3559 -0.0823  0.0205
  126MOL    O7417824   4.664   0.715   0.253 -0.5734  0.1878  0.5424
  126MOL    H7517825   4.712   0.467   0.278  0.4568 -0.3411 -0.7925
  126MOL    H7617826   4.700   0.514   0.115  0.6560  1.5622  1.0847
  126MOL    H7717827   4.528   0.602   0.348  2.6851  1.0773  0.9661
  126MOL    H7817828   4.478   0.629   0.178 -1.0023 -1.9584  1.2578
  126MOL    C7917829   4.610   0.848   0.249  0.1989 -0.2195 -0.2878
  126MOL    C8017830   4.730   0.942   0.233 -0.4906 -0.0821  0.3225
  126MOL    O8117831   4.783   0.973   0.364 -0.3558 -0.3869 -0.0874
  126MOL    H8217832   4.530   0.855   0.175 -0.2052 -1.3995  0.0200
  126MOL    H8317833   4.566   0.861   0.347 -0.1050 -2.4844 -0.0941
  126MOL    H8417834   4.695   1.039   0.196 -0.3880 -0.6439 -1.3117
  126MOL    H8517835   4.809   0.903   0.169  0.2580  0.5742  0.8438
  126MOL    C8617836   4.885   1.071   0.366 -0.1420 -0.2682  0.2981
  126MOL    C8717837   4.827   1.207   0.401 -0.1280  0.2923 -0.1527
  126MOL    O8817838   4.831   1.235   0.548  0.2242  0.3342 -0.2306
  126MOL    H8917839   4.959   1.040   0.440 -1.1387 -1.3255  0.8714
  126MOL    H9017840   4.934   1.090   0.271 -0.8363 -0.3468 -0.0796
  126MOL    H9117841   4.721   1.202   0.378 -0.4337  1.0655  1.0136
  126MOL    H9217842   4.870   1.294   0.353 -0.9377  0.6808 -0.1818
  126MOL    C9317843   4.779   1.359   0.588  0.1861  0.3154  0.0914
  126MOL    C9417844   4.768   1.377   0.738  0.3735  0.0917  0.2048
  126MOL    O9517845   4.636   1.341   0.786  0.5248 -0.5401  0.2297
  126MOL    H9617846   4.850   1.435   0.556  1.0635  0.2047  1.7095
  126MOL    H9717847   4.679   1.372   0.546  1.0046  1.0150 -1.6862
  126MOL    H9817848   4.785   1.482   0.760 -0.0208  0.1713  0.1209
  126MOL    H9917849   4.836   1.308   0.789  2.1980 -0.6606 -3.1263
  126MOL   C10017850   4.624   1.332   0.924 -0.8068 -0.1948 -0.0952
  126MOL   C10117851   4.648   1.472   1.002 -0.4088 -0.5932 -0.1166
  126MOL   O10217852   4.783   1.475   1.046 -0.3813 -0.0846  0.2093
  126MOL   H10317853   4.523   1.305   0.954 -0.3813 -0.1540  1.3799
  126MOL   H10417854   4.689   1.251   0.954 -0.4361  0.4042  0.7368
  126MOL   H10517855   4.584   1.470   1.090 -0.5035 -0.4957 -0.1822
  126MOL   H10617856   4.629   1.552   0.930 -0.2538 -0.5138 -0.0703
  126MOL   C10717857   4.815   1.602   1.101 -0.4846 -0.6927 -0.4742
  126MOL   C10817858   4.961   1.595   1.139  0.2854 -0.1465 -0.6345
  126MOL   O10917859   4.981   1.537   1.267 -0.0601  0.0518  0.0545
  126MOL   H11017860   4.799   1.675   1.021  2.4638  0.2448 -0.2502
  126MOL   H11117861   4.753   1.647   1.179 -0.7849 -0.5608 -0.7883
  126MOL   H11217862   4.987   1.700   1.149 -0.5291 -0.1263  1.7006
  126MOL   H11317863   5.021   1.547   1.062  0.8602  1.4502 -1.1889
  126MOL   C11417864   4.938   1.609   1.379 -0.0131  0.1229 -0.5027
  126MOL   C11517865   4.809   1.559   1.443 -0.5130 -0.8065 -0.1281
  126MOL   O11617866   4.702   1.655   1.419  0.0857 -0.5387 -0.1978
  126MOL   H11717867   5.017   1.594   1.453 -1.2332  2.0347  1.2679
  126MOL   H11817868   4.931   1.717   1.367 -1.5121  0.1685  0.5740
  126MOL   H11917869   4.826   1.555   1.550  0.7798 -2.3456 -0.3675
  126MOL   H12017870   4.782   1.455   1.424 -2.6502 -0.6378  1.8269
  126MOL   C12117871   4.573   1.619   1.477 -0.2986 -0.0769  0.3311
  126MOL   C12217872   4.475   1.730   1.437 -0.7486 -0.0245  0.6389
  126MOL   O12317873   4.482   1.828   1.538  0.2712  0.8481  0.5282
  126MOL   H12417874   4.553   1.526   1.424  3.7126  0.3257 -2.0981
  126MOL   H12517875   4.572   1.595   1.584  0.5736  2.4354  0.9292
  126MOL   H12617876   4.375   1.689   1.431 -1.8637  2.9719 -3.1870
  126MOL   H12717877   4.494   1.781   1.342  0.5691 -0.0233  0.8868
  126MOL   C12817878   4.353   1.848   1.597 -0.3576  0.0296  0.3231
  126MOL   C12917879   4.367   1.977   1.690  0.0399  0.0667 -0.0934
  126MOL   O13017880   4.364   2.097   1.622  0.4774  0.2841  0.6379
  126MOL   H13117881   4.270   1.875   1.530  1.2321  0.2876 -1.5801
  126MOL   H13217882   4.333   1.758   1.655 -1.6752 -0.4161 -0.7838
  126MOL   H13317883   4.461   1.977   1.746 -0.5998  0.0687  0.9937
  126MOL   H13417884   4.283   1.971   1.759  0.4956 -2.4770  0.2877
  126MOL   C13517885   4.474   2.125   1.531 -0.0409  0.3009 -0.0199
  126MOL   C13617886   4.576   2.183   1.616 -0.4804 -0.4394 -0.1314
  126MOL   O13717887   4.676   2.095   1.668  0.6638 -0.0819 -0.2163
  126MOL   H13817888   4.501   2.047   1.459 -0.3769  0.7008 -0.5831
  126MOL   H13917889   4.455   2.197   1.451 -1.8738 -1.3290 -1.1068
  126MOL   H14017890   4.540   2.271   1.670  0.0999 -0.5986  0.5197
  126MOL   H14117891   4.640   2.237   1.546  1.3672 -2.0708  0.2604
  126MOL   H14217892   4.659   2.012   1.627 -0.0957 -0.5413  1.0201
  127MOL     C117893   1.128   4.431   6.546 -0.2546 -0.7652  0.2251
  127MOL     C217894   1.114   4.562   6.472  0.0001 -0.5101 -0.7787
  127MOL     O317895   0.979   4.600   6.453 -0.0361  0.4855  0.3765
  127MOL     H417896   1.089   4.352   6.482  1.3012 -1.5394  0.2041
  127MOL     H517897   1.071   4.422   6.639  0.4848  0.1792  0.7754
  127MOL     H617898   1.167   4.560   6.377 -0.5991  0.4845 -1.1447
  127MOL     H717899   1.158   4.646   6.525  0.1356 -0.0861 -1.5586
  127MOL     H817900   1.232   4.419   6.576  0.4508  2.6094 -0.6744
  127MOL     C917901   0.959   4.713   6.373 -0.0100  0.2737  0.2836
  127MOL    C1017902   0.810   4.753   6.374 -0.0294 -0.5806 -0.8075
  127MOL    O1117903   0.801   4.834   6.256  0.2776  0.3375  0.4729
  127MOL    H1217904   1.004   4.796   6.429 -1.8671  2.1354 -0.8825
  127MOL    H1317905   0.997   4.693   6.273  0.1584  0.2429  0.3538
  127MOL    H1417906   0.776   4.804   6.464 -0.9826 -1.2047 -0.7997
  127MOL    H1517907   0.753   4.661   6.357  0.0946 -1.2327  2.1063
  127MOL    C1617908   0.672   4.854   6.206 -0.3124  0.3401 -0.3211
  127MOL    C1717909   0.672   4.882   6.054  0.4701 -0.3880  0.7770
  127MOL    O1817910   0.710   4.764   5.986  0.4612  0.3314 -0.1837
  127MOL    H1917911   0.601   4.773   6.219 -0.6733  0.5639 -0.8862
  127MOL    H2017912   0.625   4.935   6.263 -0.3899  0.5268 -0.6524
  127MOL    H2117913   0.747   4.957   6.031  0.9009 -1.3700 -1.0988
  127MOL    H2217914   0.570   4.905   6.022  0.3081 -1.3827  0.5539
  127MOL    C2317915   0.844   4.748   5.962  1.1192  0.1362  0.4863
  127MOL    C2417916   0.862   4.609   5.891  0.3247 -0.2556  0.0854
  127MOL    O2517917   0.909   4.502   5.983  0.6136 -0.2506  0.4411
  127MOL    H2617918   0.881   4.830   5.901 -1.4904  0.9562 -0.0490
  127MOL    H2717919   0.911   4.759   6.048  2.2912 -1.4307 -0.2172
  127MOL    H2817920   0.945   4.609   5.821 -0.3291  1.9241 -0.7527
  127MOL    H2917921   0.771   4.582   5.837 -0.5580  0.3520  1.2473
  127MOL    C3017922   0.814   4.465   6.081  0.1338 -0.4910 -0.4230
  127MOL    C3117923   0.863   4.365   6.181  0.4418  0.1811 -0.0825
  127MOL    O3217924   0.838   4.233   6.131  0.5278  0.7636 -0.2007
  127MOL    H3317925   0.784   4.561   6.123  0.9225 -0.2747 -0.3410
  127MOL    H3417926   0.728   4.417   6.035 -1.6323 -0.1165  2.3964
  127MOL    H3517927   0.812   4.393   6.273 -0.1721 -0.6155 -0.1758
  127MOL    H3617928   0.971   4.377   6.182  0.3724  0.7440  0.7739
  127MOL    C3717929   0.836   4.142   6.241 -0.3097 -0.6389 -0.1413
  127MOL    C3817930   0.813   3.996   6.186 -0.0347 -0.5420 -0.1181
  127MOL    O3917931   0.672   3.979   6.166 -0.5440 -0.2717 -0.0969
  127MOL    H4017932   0.936   4.153   6.283 -0.2835  1.3300 -0.6576
  127MOL    H4117933   0.765   4.174   6.318  0.7419  2.9901 -0.5534
  127MOL    H4217934   0.865   3.924   6.249 -0.1409 -1.2856 -0.8709
  127MOL    H4317935   0.874   3.977   6.098 -0.7371  0.3085 -0.7997
  127MOL    C4417936   0.651   3.859   6.101  0.5429  0.3156 -0.3056
  127MOL    C4517937   0.506   3.812   6.111  0.5389 -0.4912  0.2988
  127MOL    O4617938   0.417   3.875   6.022  0.5488  0.1606  0.1218
  127MOL    H4717939   0.679   3.862   5.995 -0.6296 -1.0246 -0.6554
  127MOL    H4817940   0.719   3.783   6.139 -1.0927 -2.4280 -2.7309
  127MOL    H4917941   0.466   3.813   6.213  1.0462 -0.8094  0.5068
  127MOL    H5017942   0.502   3.704   6.093 -2.5760 -0.6561  1.6130
  127MOL    C5117943   0.384   4.009   6.065  0.7254  0.0524  1.0820
  127MOL    C5217944   0.275   4.056   5.969 -0.1759 -0.0151 -0.1326
  127MOL    O5317945   0.145   4.010   6.013 -0.5386 -0.2115  0.4286
  127MOL    H5417946   0.359   4.025   6.169  1.7446  3.4079  0.8571
  127MOL    H5517947   0.469   4.075   6.048  0.4036 -0.1802 -1.7984
  127MOL    H5617948   0.290   4.020   5.867  4.8165  1.7084 -0.1420
  127MOL    H5717949   0.276   4.165   5.969 -0.2694 -0.0149  0.1533
  127MOL    C5817950   0.028   4.052   5.952 -0.2261 -0.2231  0.0224
  127MOL    C5917951   7.671   4.023   6.039  0.3344 -0.0472 -0.3832
  127MOL    O6017952   7.617   3.891   6.027  0.7140  0.4226  0.3748
  127MOL    H6117953   0.024   4.160   5.939  0.2592 -0.2611 -0.4543
  127MOL    H6217954   0.018   4.006   5.853 -0.6618 -1.4983  0.6477
  127MOL    H6317955   7.593   4.092   6.006  0.6086  0.5555  0.2246
  127MOL    H6417956   7.690   4.039   6.145  1.9270 -2.0762 -0.3198
  127MOL    C6517957   7.483   3.874   6.085  0.0720  0.0634  0.0220
  127MOL    C6617958   7.480   3.884   6.240 -0.4132 -0.5445 -0.5746
  127MOL    O6717959   7.558   3.769   6.286 -0.4705  0.0497  0.5583
  127MOL    H6817960   7.412   3.945   6.042 -1.4028  0.9989  3.7708
  127MOL    H6917961   7.446   3.778   6.050  1.8686 -1.0449  1.1027
  127MOL    H7017962   7.381   3.867   6.282 -1.1510  0.5848 -1.8069
  127MOL    H7117963   7.521   3.980   6.274  1.4817 -1.4181 -0.3172
  127MOL    C7217964   7.584   3.785   6.423 -0.0170 -0.2112 -0.5515
  127MOL    C7317965   7.465   3.782   6.512  0.3541 -0.3001 -0.1030
  127MOL    O7417966   7.521   3.758   6.638 -0.1324  0.0608 -0.2795
  127MOL    H7517967   7.644   3.698   6.449 -1.0608 -0.6997  0.2665
  127MOL    H7617968   7.634   3.879   6.448  1.4210 -1.2371  0.4899
  127MOL    H7717969   7.388   3.712   6.480 -0.1976 -0.4215  1.4373
  127MOL    H7817970   7.424   3.882   6.523  1.3383  0.3050 -1.8391
  127MOL    C7917971   7.420   3.724   6.736  0.5749 -0.4738 -0.2971
  127MOL    C8017972   7.468   3.769   6.878 -0.5180 -0.9123 -0.2315
  127MOL    O8117973   7.494   3.650   6.951 -0.1109 -0.1041  0.1577
  127MOL    H8217974   7.330   3.778   6.705  0.0315  0.5284  2.8424
  127MOL    H8317975   7.393   3.619   6.728 -3.0626  0.5596 -3.1441
  127MOL    H8417976   7.389   3.816   6.936  1.7214  0.9002  1.4789
  127MOL    H8517977   7.552   3.839   6.874 -1.7478  0.7818  2.0764
  127MOL    C8617978   7.572   3.676   7.068  0.3157 -0.3059  0.3619
  127MOL    C8717979   7.619   3.534   7.122 -0.3404  0.2350  0.5008
  127MOL    O8817980   7.520   3.475   7.201 -0.2235  0.8415  0.2663
  127MOL    H8917981   7.655   3.739   7.038 -0.8168  0.8201 -0.4869
  127MOL    H9017982   7.519   3.739   7.140  1.3084 -0.4038  1.1905
  127MOL    H9117983   7.713   3.546   7.176  0.1336 -1.5233  0.1176
  127MOL    H9217984   7.640   3.484   7.028 -2.0476 -0.2717  0.3610
  127MOL    C9317985   7.563   3.344   7.249  0.0742  0.7142  0.0580
  127MOL    C9417986   7.470   3.300   7.365 -0.3946 -0.6136  0.4206
  127MOL    O9517987   7.338   3.271   7.323 -0.4487  0.0714  0.0432
  127MOL    H9617988   7.556   3.267   7.172 -0.9779  0.9343 -0.0678
  127MOL    H9717989   7.668   3.357   7.274 -0.1308  0.4249  1.0925
  127MOL    H9817990   7.460   3.380   7.438 -2.0918  0.5836 -1.0517
  127MOL    H9917991   7.505   3.210   7.416 -1.5912 -1.4671 -0.2398
  127MOL   C10017992   7.303   3.173   7.225 -0.1780  0.7147 -0.0298
  127MOL   C10117993   7.151   3.141   7.234 -0.0722  0.0931 -0.5591
  127MOL   O10217994   7.136   3.045   7.339  0.3239  0.0222  0.3578
  127MOL   H10317995   7.349   3.203   7.131 -0.6071  3.0596  0.4859
  127MOL   H10417996   7.357   3.081   7.249 -0.8980  0.0733 -0.8165
  127MOL   H10517997   7.125   3.100   7.136 -0.4076 -0.8592 -0.0872
  127MOL   H10617998   7.092   3.230   7.254  2.6165  2.1197 -1.3388
  127MOL   C10717999   7.118   3.111   7.465 -0.1473  0.4665  0.1352
  127MOL   C10818000   7.060   3.010   7.567 -0.2776 -0.0108 -0.3786
  127MOL   O10918001   6.919   3.021   7.558 -0.3104  0.6075  0.6282
  127MOL   H11018002   7.215   3.148   7.498  0.5697 -0.2705 -1.0970
  127MOL   H11118003   7.051   3.197   7.460 -0.5460  0.2142  0.9464
  127MOL   H11218004   7.094   3.033   7.668 -3.7917  1.6750  0.4950
  127MOL   H11318005   7.085   2.904   7.556 -1.0969 -0.3360  0.7767
  127MOL   C11418006   6.847   2.926   7.635  1.2654 -0.4710 -0.1362
  127MOL   C11518007   6.705   2.977   7.643 -0.0258 -0.7806 -0.5761
  127MOL   O11618008   6.680   3.083   7.733 -0.1685  0.0408 -0.3458
  127MOL   H11718009   6.854   2.827   7.589  0.4358 -0.3374 -0.5533
  127MOL   H11818010   6.892   2.919   7.734  0.4679  0.5753  0.3063
  127MOL   H11918011   6.636   2.899   7.672 -1.7521 -0.4026 -3.4404
  127MOL   H12018012   6.666   3.001   7.544 -3.3170 -1.1134  0.5862
  127MOL   C12118013   6.542   3.105   7.767  0.1670 -0.1632 -0.0037
  127MOL   C12218014   6.527   3.231   0.078 -0.5942  0.3600  0.2130
  127MOL   O12318015   6.576   3.352   0.010 -0.5869 -0.7141 -0.4150
  127MOL   H12418016   6.485   3.110   7.674  0.8951 -0.5050 -0.4818
  127MOL   H12518017   6.503   3.015   0.043 -1.0446  0.9118  1.0682
  127MOL   H12618018   6.588   3.226   0.168  0.6745 -1.4901 -0.7033
  127MOL   H12718019   6.423   3.250   0.102 -0.8315  0.2726 -0.7199
  127MOL   C12818020   6.495   3.409   7.679  0.0313  0.1085  0.5511
  127MOL   C12918021   6.407   3.514   7.739  0.8837 -0.1179 -0.0978
  127MOL   O13018022   6.297   3.545   7.657  0.5728 -0.5450 -1.1309
  127MOL   H13118023   6.568   3.458   7.615  0.4724  0.1240  1.0662
  127MOL   H13218024   6.441   3.337   7.617 -1.1675 -0.4972  2.2426
  127MOL   H13318025   6.462   3.604   7.767  0.9904  0.4184 -1.9966
  127MOL   H13418026   6.360   3.496   0.065  1.1082  1.7429  0.3736
  127MOL   C13518027   6.293   3.673   7.609  0.3132  0.9143  0.1539
  127MOL   C13618028   6.169   3.672   7.515 -0.1838  0.7420 -0.2761
  127MOL   O13718029   6.134   3.801   7.485 -0.2642  0.0409 -0.0090
  127MOL   H13818030   6.263   3.747   7.683 -1.2329  1.1460 -0.6915
  127MOL   H13918031   6.385   3.710   7.565  1.3255  1.5532  2.6956
  127MOL   H14018032   6.085   3.626   7.566 -0.7103  1.6336 -0.3388
  127MOL   H14118033   6.174   3.608   7.427 -0.7426 -1.2372  1.1041
  127MOL   H14218034   6.050   3.818   7.525 -0.2579 -2.0225  0.9545
  128MOL     C118035   6.062   7.516   4.028  0.2839  0.0863  0.1154
  128MOL     C218036   6.125   7.385   3.992  0.6047  0.3651 -0.0776
  128MOL     O318037   6.253   7.402   4.047  0.1411  0.9170  0.0529
  128MOL     H418038   6.129   7.592   3.991 -1.4747  1.9920  0.7554
  128MOL     H518039   6.049   7.525   4.136  0.2382 -1.5837  0.2719
  128MOL     H618040   6.129   7.377   3.883  0.7819 -2.9063  0.1179
  128MOL     H718041   6.063   7.305   4.032 -0.1375  1.3501  0.7548
  128MOL     H818042   5.970   7.526   3.969 -0.1162 -1.4552  0.4454
  128MOL     C918043   6.339   7.285   4.028 -0.0244 -0.2972 -0.2457
  128MOL    C1018044   6.480   7.298   4.086  0.1968  0.8556  0.1383
  128MOL    O1118045   6.466   7.302   4.231 -0.3538 -0.4944  0.1243
  128MOL    H1218046   6.289   7.198   4.069 -1.1009  0.1880 -0.4949
  128MOL    H1318047   6.357   7.260   3.923 -1.6847 -0.0300 -0.6146
  128MOL    H1418048   6.529   7.389   4.051 -0.0501  1.2171  0.7144
  128MOL    H1518049   6.541   7.211   4.064 -0.0971  0.6098  0.3023
  128MOL    C1618050   6.586   7.289   4.297  0.7540 -0.1987 -0.1062
  128MOL    C1718051   6.570   7.264   4.450 -0.8220  0.3580 -0.4400
  128MOL    O1818052   6.530   7.131   4.474 -0.6641  0.0557  0.2505
  128MOL    H1918053   6.647   7.204   4.266  0.4264  0.3323 -2.2517
  128MOL    H2018054   6.639   7.383   4.284  1.0153 -0.3378 -0.0400
  128MOL    H2118055   6.506   7.339   4.495 -0.7363  0.9924 -1.3666
  128MOL    H2218056   6.665   7.292   4.495  0.7660 -0.7193 -2.9764
  128MOL    C2318057   6.465   7.133   4.594 -0.7939  1.0452 -0.5262
  128MOL    C2418058   6.462   6.992   4.646 -0.6220 -0.5360 -0.4706
  128MOL    O2518059   6.592   6.959   4.688  0.0477  0.9252 -0.3033
  128MOL    H2618060   6.506   7.197   4.672  1.5715  0.5930 -1.3624
  128MOL    H2718061   6.361   7.166   4.589 -0.9406  0.4869 -1.3012
  128MOL    H2818062   6.427   6.927   4.566 -0.7224 -0.8850 -0.1375
  128MOL    H2918063   6.404   6.995   4.737 -0.1790  1.5272 -0.2289
  128MOL    C3018064   6.590   6.825   4.754  0.5250 -0.8343 -0.1767
  128MOL    C3118065   6.605   6.716   4.649 -0.3871  0.2636 -0.4835
  128MOL    O3218066   6.498   6.705   4.557 -0.1825  0.5403 -0.5972
  128MOL    H3318067   6.671   6.813   4.826  1.2915  3.0033 -0.3075
  128MOL    H3418068   6.495   6.812   4.806  1.0282 -1.5893  0.5651
  128MOL    H3518069   6.612   6.627   4.711 -0.0615  1.5166  1.3336
  128MOL    H3618070   6.696   6.739   4.592 -1.8837  0.9703 -2.6377
  128MOL    C3718071   6.509   6.593   4.475  0.1500  0.1198  0.3166
  128MOL    C3818072   6.418   6.481   4.530  0.0012 -0.5869  0.3367
  128MOL    O3918073   6.485   6.425   4.645 -0.3553  0.4719  0.7777
  128MOL    H4018074   6.481   6.619   4.373  1.7642 -0.3251 -0.2703
  128MOL    H4118075   6.611   6.553   4.470  0.0911 -0.3041  2.3782
  128MOL    H4218076   6.402   6.414   4.446  0.9469 -0.9412  0.4333
  128MOL    H4318077   6.317   6.513   4.556 -0.5353 -1.2076 -0.9307
  128MOL    C4418078   6.429   6.308   4.698 -0.4791 -0.4769 -0.1621
  128MOL    C4518079   6.312   6.360   4.789 -0.3424 -0.2664 -0.2035
  128MOL    O4618080   6.341   6.365   4.926 -0.5352  0.2727 -0.2474
  128MOL    H4718081   6.387   6.234   4.629 -1.3703  0.0010 -0.1337
  128MOL    H4818082   6.505   6.262   4.760 -0.0902 -0.3412 -0.5323
  128MOL    H4918083   6.237   6.281   4.780  1.8865 -2.3966 -0.5162
  128MOL    H5018084   6.252   6.447   4.760 -2.4172 -1.6426 -0.1224
  128MOL    C5118085   6.418   6.479   4.965 -0.3284  0.1188 -0.1178
  128MOL    C5218086   6.412   6.498   5.112  0.3943 -0.0295  0.3526
  128MOL    O5318087   6.535   6.448   5.162 -0.4141  0.4093 -0.0542
  128MOL    H5418088   6.518   6.473   4.921 -0.1160  0.8022  0.2586
  128MOL    H5518089   6.377   6.565   4.912 -2.2858 -2.6976 -3.3739
  128MOL    H5618090   6.330   6.437   5.150  0.0297 -0.6525 -1.3704
  128MOL    H5718091   6.404   6.605   5.133 -1.1359  0.4518 -2.4347
  128MOL    C5818092   6.547   6.422   5.300 -0.9736 -0.6467  0.7029
  128MOL    C5918093   6.526   6.550   5.390 -0.4324  0.6903  0.1646
  128MOL    O6018094   6.385   6.566   5.404 -0.1209  0.4010  0.5508
  128MOL    H6118095   6.472   6.353   5.336 -0.1817 -3.7689 -3.2945
  128MOL    H6218096   6.643   6.382   5.333 -0.3156 -0.5459 -1.0159
  128MOL    H6318097   6.574   6.637   5.346  0.1930  0.2301 -0.0588
  128MOL    H6418098   6.570   6.538   5.489  1.3653 -0.8547 -0.8017
  128MOL    C6518099   6.365   6.671   5.495  1.2904 -0.4216  0.2154
  128MOL    C6618100   6.224   6.719   5.467  0.4101  0.3380  0.3889
  128MOL    O6718101   6.208   6.863   5.497 -0.3311  0.0907  0.2879
  128MOL    H6818102   6.363   6.648   5.602 -2.9365  2.0722  0.8152
  128MOL    H6918103   6.440   6.750   5.502  1.2835 -0.5891  2.9161
  128MOL    H7018104   6.155   6.674   5.539 -0.4998 -2.7252 -2.3110
  128MOL    H7118105   6.185   6.706   5.366  0.5350 -2.2212  0.6370
  128MOL    C7218106   6.078   6.901   5.463  0.0340  0.2261  0.2562
  128MOL    C7318107   6.057   7.048   5.482 -0.3680 -0.4307  0.2415
  128MOL    O7418108   6.156   7.123   5.408  0.0489 -0.2726 -0.4051
  128MOL    H7518109   6.069   6.899   5.354  2.6815 -1.4268  0.0214
  128MOL    H7618110   5.999   6.838   5.503 -1.6889  0.7896 -2.1709
  128MOL    H7718111   6.054   7.076   5.588 -0.0456 -1.3710  0.5049
  128MOL    H7818112   5.965   7.075   5.430 -1.0498  1.7235  2.4668
  128MOL    C7918113   6.125   7.261   5.394  0.4200 -0.2675 -0.2551
  128MOL    C8018114   6.251   7.342   5.403  0.0214  0.3862  0.3517
  128MOL    O8118115   6.310   7.341   5.531 -0.4052 -0.7992 -0.2351
  128MOL    H8218116   6.076   7.280   5.298 -1.7186 -0.2569  0.8013
  128MOL    H8318117   6.061   7.287   5.478  0.2665 -0.8673 -0.1869
  128MOL    H8418118   6.227   7.447   5.393 -1.7061  0.0271  0.6933
  128MOL    H8518119   6.335   7.310   5.341 -0.4812  0.9386 -0.6158
  128MOL    C8618120   6.393   7.449   5.566  0.4965 -0.7712  0.1272
  128MOL    C8718121   6.318   7.572   5.629 -1.0329  0.5893 -0.3682
  128MOL    O8818122   6.276   7.666   5.541  0.5490 -0.1407 -0.0892
  128MOL    H8918123   6.455   7.400   5.640  0.8654  0.4517  0.6402
  128MOL    H9018124   6.466   7.478   5.490  0.4076 -2.7941 -0.7672
  128MOL    H9118125   6.385   7.625   5.697 -1.2986 -0.0015  0.3708
  128MOL    H9218126   6.229   7.541   5.684  0.2766 -1.5305  0.6510
  128MOL    C9318127   6.224   0.013   5.599  0.2725  0.8862 -0.3655
  128MOL    C9418128   6.164   0.105   5.495 -0.4020  0.4463 -0.2239
  128MOL    O9518129   6.078   0.025   5.415 -0.2147 -0.0394 -0.0647
  128MOL    H9618130   6.160   7.764   5.685  1.4018  1.5611  0.6618
  128MOL    H9718131   6.300   0.063   5.659 -0.0220 -0.3772  1.1016
  128MOL    H9818132   6.241   0.159   5.441  0.9824  1.8860  3.1133
  128MOL    H9918133   6.101   0.176   5.549 -0.7124  1.1365 -1.4846
  128MOL   C10018134   6.089   0.048   5.276  0.7157 -0.0964  0.1447
  128MOL   C10118135   6.029   7.692   5.209  0.0453  0.0241  0.7357
  128MOL   O10218136   5.970   7.723   5.091  0.4058  0.3362 -0.0362
  128MOL   H10318137   6.057   0.139   5.226 -0.0658 -0.6498 -0.3595
  128MOL   H10418138   6.196   0.048   5.254  0.6214 -0.7433 -0.3440
  128MOL   H10518139   5.956   7.653   5.281 -0.2065  0.5224  0.7557
  128MOL   H10618140   6.109   7.619   5.196  0.8015  1.4778 -3.3234
  128MOL   C10718141   5.891   7.624   5.031 -0.4863  0.1038  0.7497
  128MOL   C10818142   5.841   7.679   4.901  0.4120  0.4157  0.3002
  128MOL   O10918143   5.947   7.703   4.817  0.6438  0.0374 -0.5342
  128MOL   H11018144   5.946   7.530   5.032  1.3260  1.1553  1.8096
  128MOL   H11118145   5.799   7.616   5.088 -2.0230  1.4473 -1.4971
  128MOL   H11218146   5.789   0.003   4.921  0.3537  0.9666 -2.2895
  128MOL   H11318147   5.775   7.603   4.859 -0.7354  0.5304  1.8435
  128MOL   C11418148   5.915   7.770   4.692 -0.2739  0.8367 -0.7983
  128MOL   C11518149   6.047   0.043   4.627 -0.0627 -0.1177 -0.2463
  128MOL   O11618150   6.093   7.734   4.520  0.0306  0.0272 -0.1290
  128MOL   H11718151   5.854   7.697   4.638 -1.8593  1.5727 -0.0555
  128MOL   H11818152   5.858   0.089   4.715 -1.3435 -0.3731  1.4317
  128MOL   H11918153   6.122   0.061   4.704  0.6829  2.0117 -1.4273
  128MOL   H12018154   6.030   0.138   4.576 -0.3129  0.0101  0.0768
  128MOL   C12118155   6.217   0.013   4.469 -0.1986 -0.0482  1.4117
  128MOL   C12218156   6.257   7.713   4.343 -0.5215 -0.1001  0.4089
  128MOL   O12318157   6.387   7.761   4.307 -0.2765  0.3418 -0.0118
  128MOL   H12418158   6.211   0.121   4.453 -2.4668 -0.5327 -1.2633
  128MOL   H12518159   6.293   0.000   4.547  0.2701 -0.7095  0.8547
  128MOL   H12618160   6.176   7.721   4.270 -2.6598 -1.1010  2.6206
  128MOL   H12718161   6.265   7.606   4.366 -0.6301 -0.5014 -1.3016
  128MOL   C12818162   6.446   7.669   4.218 -0.6172  0.1712 -0.5178
  128MOL   C12918163   6.585   7.717   4.175 -0.3601  0.0246  0.0700
  128MOL   O13018164   6.577   0.017   4.049 -0.1652 -0.9756 -0.3015
  128MOL   H13118165   6.454   7.571   4.267  0.5726  0.3766 -0.2754
  128MOL   H13218166   6.378   7.666   4.133  1.2213 -1.1496 -1.9966
  128MOL   H13318167   6.654   7.636   4.154  0.8201  0.9691  0.2784
  128MOL   H13418168   6.628   0.007   4.254  2.1277 -1.3099 -0.1853
  128MOL   C13518169   6.708   0.077   4.029 -0.6088 -0.4209  0.2884
  128MOL   C13618170   6.815   7.752   3.971  0.1955 -0.0241  0.9546
  128MOL   O13718171   6.907   7.718   4.073  0.7558  0.3634  0.1938
  128MOL   H13818172   6.694   0.158   3.958 -0.7292 -2.3601 -1.9380
  128MOL   H13918173   6.744   0.129   4.119  0.5382 -0.0474 -0.3734
  128MOL   H14018174   6.856   0.023   3.879 -3.4835  0.9464 -0.3245
  128MOL   H14118175   6.766   7.665   3.927  2.2987 -0.0441 -1.4613
  128MOL   H14218176   6.978   7.665   4.041 -0.0033  0.3879 -1.6454
  129MOL     C118177   5.625   1.672   6.647  0.6246  0.4272  0.7175
  129MOL     C218178   5.503   1.718   6.716 -0.1215  1.0857 -0.0406
  129MOL     O318179   5.542   1.783   6.835  0.4521  0.5332  0.0209
  129MOL     H418180   5.668   1.593   6.709 -1.3307  0.0727  1.6420
  129MOL     H518181   5.703   1.746   6.626  2.4282 -1.2859  1.1787
  129MOL     H618182   5.456   1.624   6.742 -0.8288  1.9166  1.7493
  129MOL     H718183   5.439   1.779   6.652  0.2268  1.0579 -0.4202
  129MOL     H818184   5.605   1.626   6.550  0.4567  2.6194 -0.3289
  129MOL     C918185   5.431   1.807   6.919 -0.6549  0.1470 -0.7600
  129MOL    C1018186   5.473   1.870   7.045 -0.2762 -0.4028  0.5304
  129MOL    O1118187   5.358   1.915   7.118  0.3651  0.0114 -0.4101
  129MOL    H1218188   5.362   1.869   6.861  0.7820 -0.5048 -3.2256
  129MOL    H1318189   5.376   1.716   6.943 -1.4641  0.9143  0.3399
  129MOL    H1418190   5.531   1.960   7.025  0.6152 -0.9562  0.6006
  129MOL    H1518191   5.533   1.810   7.114  2.0473  2.1550  0.8564
  129MOL    C1618192   5.291   1.820   7.206  0.6760  0.9159  0.6019
  129MOL    C1718193   5.155   1.856   7.256  0.1263  0.3295 -0.4328
  129MOL    O1818194   5.057   1.861   7.156  0.3584 -0.4295  0.6571
  129MOL    H1918195   5.283   1.724   7.153  2.0319  0.8625  0.4771
  129MOL    H2018196   5.348   1.789   7.294  0.8707 -2.6851 -0.6949
  129MOL    H2118197   5.168   1.955   7.299 -1.2841  0.6349 -0.7022
  129MOL    H2218198   5.130   1.792   7.341  1.3388  1.3004  0.6835
  129MOL    C2318199   4.926   1.879   7.211 -0.3808 -0.1859 -1.0826
  129MOL    C2418200   4.805   1.894   7.116 -0.7439 -0.3210 -0.6431
  129MOL    O2518201   4.775   1.764   7.060  0.0266  0.3887  0.7404
  129MOL    H2618202   4.902   1.790   7.270  1.5283 -1.3145 -1.9672
  129MOL    H2718203   4.920   1.967   7.275 -0.7964 -1.0223  0.0690
  129MOL    H2818204   4.824   1.970   7.039  0.7772 -1.2233 -1.1845
  129MOL    H2918205   4.716   1.936   7.163 -1.5860 -2.7133 -0.0373
  129MOL    C3018206   4.656   1.694   7.104  0.1783  0.1545 -0.4256
  129MOL    C3118207   4.677   1.639   7.243  0.1267  0.6401 -0.3356
  129MOL    O3218208   4.662   1.744   7.346  0.2527  0.0104  0.1526
  129MOL    H3318209   4.563   1.750   7.098 -1.5437 -2.4868  0.7193
  129MOL    H3418210   4.632   1.604   7.048 -0.7600 -0.1444  0.4418
  129MOL    H3518211   4.763   1.573   7.252  1.8214  2.9717  1.2171
  129MOL    H3618212   4.595   1.567   7.251  0.2448  0.6492  1.1235
  129MOL    C3718213   4.710   1.697   7.469 -0.2818  0.1571 -0.4498
  129MOL    C3818214   4.662   1.799   7.575  0.1908  0.2336 -0.2104
  129MOL    O3918215   4.758   1.905   7.588 -0.6509 -0.1104 -0.3952
  129MOL    H4018216   4.655   1.606   7.493 -1.9342  1.8461  2.4382
  129MOL    H4118217   4.817   1.682   7.484 -0.4951  0.1008  1.1392
  129MOL    H4218218   4.670   1.747   7.671  0.3869  1.0412  0.2185
  129MOL    H4318219   4.556   1.825   7.575 -0.4359 -2.0038 -3.5135
  129MOL    C4418220   4.713   2.012   7.500 -0.2687  0.0401  0.3921
  129MOL    C4518221   4.778   2.137   7.539  0.3764 -0.6368 -0.4584
  129MOL    O4618222   4.708   2.223   7.636 -0.3089  0.4750  0.1469
  129MOL    H4718223   4.754   1.995   7.400 -1.3813  1.0007 -0.2294
  129MOL    H4818224   4.606   2.029   7.492 -0.1833  0.9121  1.0673
  129MOL    H4918225   4.794   2.183   7.442  3.3002  0.5177  0.4922
  129MOL    H5018226   4.879   2.118   7.575  1.1588  0.4046 -2.0548
  129MOL    C5118227   4.783   2.323   7.690  0.4459 -1.0078  0.1409
  129MOL    C5218228   4.868   2.412   7.595 -0.4123 -0.2381  0.0299
  129MOL    O5318229   4.996   2.355   7.583 -0.3316  0.2662 -0.0545
  129MOL    H5418230   4.716   2.381   7.753  0.9978  0.4559 -0.5881
  129MOL    H5518231   4.857   2.271   7.750 -0.8580 -1.7948  1.0810
  129MOL    H5618232   4.874   2.512   7.638  2.0595  0.4399 -1.7684
  129MOL    H5718233   4.828   2.417   7.493 -1.0548 -2.2439  0.1606
  129MOL    C5818234   5.105   2.450   7.567 -0.0853  0.0769  0.0190
  129MOL    C5918235   5.207   2.385   7.473 -0.2713 -0.2233 -0.0333
  129MOL    O6018236   5.175   2.374   7.341  0.2327 -0.0257  0.2988
  129MOL    H6118237   5.068   2.539   7.516  0.5582  1.5402  2.0707
  129MOL    H6218238   5.160   2.475   7.657 -0.1843 -0.8726  0.3450
  129MOL    H6318239   5.248   2.292   7.511 -0.8103  0.4967  2.3925
  129MOL    H6418240   5.292   2.452   7.492  0.0718 -0.3080 -1.1659
  129MOL    C6518241   5.095   2.261   7.312  0.4218 -0.6034  1.0902
  129MOL    C6618242   4.996   2.285   7.203  0.5057  0.1987 -0.3120
  129MOL    O6718243   4.875   2.342   7.264  0.0099  0.5921  0.4177
  129MOL    H6818244   5.164   2.193   7.263 -1.7744 -1.0173 -1.5298
  129MOL    H6918245   5.059   2.210   7.402 -1.2268 -0.2770  0.6308
  129MOL    H7018246   4.980   2.184   7.167 -1.1037  0.6353 -0.9032
  129MOL    H7118247   5.037   2.346   7.122  0.9163 -0.1044 -0.3316
  129MOL    C7218248   4.771   2.351   7.164  0.1604 -0.0971  0.2713
  129MOL    C7318249   4.639   2.395   7.224  0.1629  0.0297  0.1938
  129MOL    O7418250   4.563   2.296   7.303 -0.6318  0.0094 -0.4428
  129MOL    H7518251   4.796   2.428   7.091 -1.6541 -0.8922 -1.2132
  129MOL    H7618252   4.761   2.257   7.110  2.0599 -0.8147  1.0920
  129MOL    H7718253   4.569   2.412   7.143  0.6689  0.8425 -0.0698
  129MOL    H7818254   4.655   2.494   7.266  0.1289 -0.3433  1.1093
  129MOL    C7918255   4.446   2.353   7.358  0.1510 -0.2062 -0.3023
  129MOL    C8018256   4.385   2.254   7.455  0.0110  0.2083 -0.2280
  129MOL    O8118257   4.297   2.305   7.557 -0.2945 -0.5948  0.2445
  129MOL    H8218258   4.484   2.440   7.411  1.3505 -1.5845  1.1565
  129MOL    H8318259   4.382   2.379   7.273  0.1723 -0.5331 -0.4200
  129MOL    H8418260   4.454   2.203   7.521 -0.0967  0.2282 -0.1002
  129MOL    H8518261   4.340   2.170   7.401  1.5671 -1.2769  0.7684
  129MOL    C8618262   4.172   2.346   7.507  0.5912  0.2138  0.0778
  129MOL    C8718263   4.100   2.399   7.625  0.6915  0.4829  0.4910
  129MOL    O8818264   4.033   2.302   7.700 -0.2128  0.0231 -0.0310
  129MOL    H8918265   4.194   2.428   7.438  1.5667  0.7210  0.9820
  129MOL    H9018266   4.108   2.277   7.452  0.8605  1.9151 -2.4545
  129MOL    H9118267   4.018   2.460   7.589 -0.4102 -1.1863  0.1140
  129MOL    H9218268   4.160   2.462   7.690 -1.2564  2.1917  0.6703
  129MOL    C9318269   4.115   2.231   0.020 -0.3016  0.1946 -0.1935
  129MOL    C9418270   4.022   2.164   0.118  0.5814  0.5529 -0.1831
  129MOL    O9518271   3.943   2.256   0.193  0.2871 -0.7507  0.8159
  129MOL    H9618272   4.182   2.166   7.735  0.7306  1.2822 -0.2453
  129MOL    H9718273   4.188   2.296   0.067 -0.7143  1.1334 -0.8357
  129MOL    H9818274   4.069   2.088   0.180  0.9153  1.1909  0.3536
  129MOL    H9918275   3.948   2.110   0.060  0.7107  0.0339  0.1318
  129MOL   C10018276   4.006   2.376   0.244 -0.1803  0.1792 -0.5705
  129MOL   C10118277   3.907   2.445   0.333 -0.0355 -0.1011  0.1777
  129MOL   O10218278   3.967   2.536   0.432 -1.0805  0.3089 -0.1570
  129MOL   H10318279   4.091   2.348   0.307  0.7924 -0.5474 -2.1815
  129MOL   H10418280   4.035   2.446   0.165  0.1356 -1.2051 -1.6939
  129MOL   H10518281   3.847   2.371   0.387  1.2438  0.6812  2.7523
  129MOL   H10618282   3.832   2.505   0.281  0.4845  2.2727  2.0798
  129MOL   C10718283   3.879   2.573   0.532 -0.2348  0.1045 -0.4212
  129MOL   C10818284   3.945   2.648   0.645  0.2032 -0.8397 -0.4808
  129MOL   O10918285   3.940   2.789   0.612 -0.0886  0.3001 -0.4190
  129MOL   H11018286   3.790   2.625   0.496 -1.5481 -0.8109  1.3675
  129MOL   H11118287   3.836   2.481   0.572  1.8019 -1.2373 -1.2429
  129MOL   H11218288   4.041   2.604   0.673 -0.7036 -2.2007  0.5066
  129MOL   H11318289   3.896   2.634   0.741 -0.3286 -0.4801 -0.7012
  129MOL   C11418290   4.020   2.838   0.501  0.1209  0.6541 -0.1499
  129MOL   C11518291   3.954   2.957   0.442 -0.0819  0.2994  0.3830
  129MOL   O11618292   4.012   3.061   0.520  0.8088  0.1495 -0.6839
  129MOL   H11718293   4.122   2.858   0.531  0.7601 -1.1889 -0.9664
  129MOL   H11818294   4.037   2.761   0.424 -0.1594  0.3094  0.1302
  129MOL   H11918295   3.847   2.942   0.457 -0.8967  0.7437 -4.2882
  129MOL   H12018296   3.968   2.967   0.335 -1.2669  1.2103  0.3043
  129MOL   C12118297   3.933   3.178   0.511  0.5042 -0.2083  0.1668
  129MOL   C12218298   3.996   3.289   0.584  0.2674  0.2594 -0.0045
  129MOL   O12318299   4.119   3.320   0.521 -0.5393  0.1417 -0.0592
  129MOL   H12418300   3.919   3.206   0.406 -0.5907 -3.2762 -0.5667
  129MOL   H12518301   3.830   3.163   0.545  1.4824 -1.9321  2.4931
  129MOL   H12618302   4.004   3.269   0.691 -3.1947 -0.8993  0.0865
  129MOL   H12718303   3.924   3.370   0.575  1.2172  1.0763 -0.3208
  129MOL   C12818304   4.231   3.269   0.598 -0.4224  0.0286  0.9146
  129MOL   C12918305   4.348   3.254   0.502  0.1279  0.1172 -0.1417
  129MOL   O13018306   4.418   3.381   0.494 -0.3985 -0.4633 -0.8530
  129MOL   H13118307   4.249   3.335   0.682 -0.1995  1.3927 -0.1816
  129MOL   H13218308   4.219   3.170   0.643  0.9585 -0.5116  0.1203
  129MOL   H13318309   4.311   3.220   0.406 -3.3336  0.2976  1.0544
  129MOL   H13418310   4.416   3.179   0.543 -1.2899 -0.2779  1.5498
  129MOL   C13518311   4.520   3.385   0.397  0.3295  0.3720  0.1678
  129MOL   C13618312   4.591   3.512   0.405  0.3638 -0.3180  0.1199
  129MOL   O13718313   4.672   3.515   0.516 -0.3075 -0.1448 -0.1448
  129MOL   H13818314   4.583   3.297   0.399 -0.7122 -0.3704  0.9646
  129MOL   H13918315   4.474   3.384   0.298 -1.1029  3.2574  0.7455
  129MOL   H14018316   4.530   3.602   0.404  0.5561 -0.2007 -1.2520
  129MOL   H14118317   4.645   3.529   0.312  0.2120  2.2063  0.4622
  129MOL   H14218318   4.622   3.543   0.591 -1.0634  0.5946 -0.8964
  130MOL     C118319   5.327   7.726   1.685 -0.0296  0.4518  0.4115
  130MOL     C218320   5.246   0.085   1.679 -0.3672  0.3704 -0.2795
  130MOL     O318321   5.224   0.135   1.812 -0.0714 -0.4167  0.2203
  130MOL     H418322   5.431   7.745   1.709 -0.2880  1.2974  0.8917
  130MOL     H518323   5.333   7.677   1.589 -0.8175  0.3720  0.3982
  130MOL     H618324   5.150   0.061   1.633 -0.3522  0.5739 -0.4175
  130MOL     H718325   5.298   0.155   1.613  0.8105 -1.8340 -1.7434
  130MOL     H818326   5.279   7.664   1.761 -0.7328 -0.0865 -0.4695
  130MOL     C918327   5.167   0.260   1.817 -0.2842 -0.7402 -0.7859
  130MOL    C1018328   5.163   0.310   1.960 -0.5263  0.0161 -0.7621
  130MOL    O1118329   5.042   0.278   2.029 -0.0697 -0.1025 -0.1967
  130MOL    H1218330   5.225   0.338   1.767 -0.9205  1.2596  1.5235
  130MOL    H1318331   5.066   0.255   1.775 -0.1256  1.0737 -1.4519
  130MOL    H1418332   5.189   0.416   1.960 -2.7819  0.6095 -1.6619
  130MOL    H1518333   5.242   0.256   2.011 -3.3694  0.0458  3.9072
  130MOL    C1618334   5.049   0.318   2.163  0.2525  0.1058 -0.3405
  130MOL    C1718335   4.919   0.269   2.234  0.0935 -0.9983  0.1353
  130MOL    O1818336   4.909   0.342   2.350 -0.6887  0.0612  0.3512
  130MOL    H1918337   5.138   0.281   2.214 -0.7741 -0.3291  1.1549
  130MOL    H2018338   5.065   0.426   2.168 -1.6058  0.4702 -1.8127
  130MOL    H2118339   4.906   0.161   2.241 -0.5217 -0.8620  1.2221
  130MOL    H2218340   4.832   0.295   2.173  0.0279 -0.9442  0.2525
  130MOL    C2318341   4.795   0.303   2.421  0.0163 -0.2963  1.0175
  130MOL    C2418342   4.772   0.413   2.530  0.0472 -0.0880 -0.1533
  130MOL    O2518343   4.766   0.532   2.448 -0.2885 -0.1748 -0.0691
  130MOL    H2618344   4.705   0.293   2.361 -0.3093  0.5350  1.3672
  130MOL    H2718345   4.813   0.215   2.483 -0.8607 -1.4388 -0.3253
  130MOL    H2818346   4.861   0.436   2.589  1.0966 -2.8367 -0.5671
  130MOL    H2918347   4.686   0.393   2.594  1.8112  0.4299  2.4430
  130MOL    C3018348   4.717   0.641   2.522 -0.5266 -0.5573 -0.1893
  130MOL    C3118349   4.562   0.647   2.530 -0.3194  0.2914 -0.0261
  130MOL    O3218350   4.501   0.770   2.568 -0.3921  0.4135  0.1237
  130MOL    H3318351   4.760   0.636   2.622 -0.1034  1.3953 -0.2597
  130MOL    H3418352   4.740   0.738   2.479 -2.2281  1.0040  2.2242
  130MOL    H3518353   4.526   0.578   2.606 -0.2533  2.3987  2.0007
  130MOL    H3618354   4.521   0.619   2.433  0.2437  1.1034 -0.5037
  130MOL    C3718355   4.535   0.821   2.696  0.3833  0.4665  0.1895
  130MOL    C3818356   4.482   0.966   2.722  0.8951 -0.1050 -0.4595
  130MOL    O3918357   4.547   1.055   2.631  0.0494 -0.2904 -0.0326
  130MOL    H4018358   4.494   0.752   2.771  1.7744  0.4854  0.9891
  130MOL    H4118359   4.643   0.832   2.708  0.5899 -0.1462 -1.1123
  130MOL    H4218360   4.505   1.002   2.822  0.1365 -0.4077 -0.1756
  130MOL    H4318361   4.374   0.972   2.707  0.9190  0.1513 -0.5307
  130MOL    C4418362   4.503   1.193   2.635 -0.1837  0.0318 -0.2190
  130MOL    C4518363   4.572   1.275   2.751 -0.0321 -0.1124  0.1703
  130MOL    O4618364   4.502   1.391   2.791  0.7420 -0.1597 -0.1697
  130MOL    H4718365   4.541   1.250   2.551 -1.1047  0.2874 -0.4704
  130MOL    H4818366   4.395   1.204   2.625 -0.1762 -0.3378 -0.6657
  130MOL    H4918367   4.674   1.293   2.720  0.1803  1.1587  1.5399
  130MOL    H5018368   4.593   1.216   2.841 -0.9909  1.1188  1.2268
  130MOL    C5118369   4.386   1.350   2.871  0.7500  0.6910 -0.2580
  130MOL    C5218370   4.328   1.478   2.933  0.2725 -0.2270 -0.6067
  130MOL    O5318371   4.425   1.538   3.019 -0.2557 -0.0322  0.4869
  130MOL    H5418372   4.304   1.312   2.810 -0.0950  1.2986  0.4717
  130MOL    H5518373   4.417   1.280   2.949  1.5155 -1.9841 -2.8362
  130MOL    H5618374   4.238   1.457   2.990  1.6952 -2.7855  0.7957
  130MOL    H5718375   4.298   1.553   2.860  0.3900  0.2098 -0.2041
  130MOL    C5818376   4.385   1.656   3.084 -0.0868 -0.0210 -0.3321
  130MOL    C5918377   4.408   1.657   3.238 -0.1637 -0.0252  0.4593
  130MOL    O6018378   4.291   1.654   3.312 -0.6110 -0.1219  0.4296
  130MOL    H6118379   4.442   1.737   3.039 -0.9524  0.0587 -1.3072
  130MOL    H6218380   4.280   1.683   3.069 -0.4502 -0.5058  1.2132
  130MOL    H6318381   4.450   1.757   3.244 -3.5403  1.5629 -1.3657
  130MOL    H6418382   4.490   1.598   3.278  0.8106  0.5017 -0.7485
  130MOL    C6518383   4.245   1.527   3.341 -0.5404 -0.2581 -0.3266
  130MOL    C6618384   4.127   1.532   3.434  0.0639  0.1304 -0.4933
  130MOL    O6718385   4.144   1.448   3.546  0.0558  0.0370  0.1991
  130MOL    H6818386   4.234   1.466   3.251 -2.4724  2.0125 -1.7177
  130MOL    H6918387   4.330   1.478   3.389 -0.6469 -1.3497 -1.2220
  130MOL    H7018388   4.028   1.513   3.390 -1.9553  0.8772  3.4782
  130MOL    H7118389   4.124   1.634   3.471 -0.8963 -1.2360  3.4648
  130MOL    C7218390   4.077   1.498   3.665 -0.1656  0.2318 -0.1645
  130MOL    C7318391   4.131   1.627   3.722  0.3429  0.3282  0.0108
  130MOL    O7418392   4.048   1.739   3.674  0.5298  0.2613 -0.2627
  130MOL    H7518393   3.971   1.495   3.640  0.1214 -0.6292 -1.3558
  130MOL    H7618394   4.099   1.428   3.746  0.2322  0.4768 -0.0606
  130MOL    H7718395   4.227   1.645   3.674  0.2574  1.5404  0.2670
  130MOL    H7818396   4.139   1.632   3.831  0.9728 -0.2722 -0.0082
  130MOL    C7918397   4.096   1.865   3.722 -0.0756  0.5935  0.5216
  130MOL    C8018398   4.020   1.985   3.657  0.0855 -0.3768 -0.5389
  130MOL    O8118399   4.090   2.107   3.680  0.6170  0.2408 -0.1864
  130MOL    H8218400   4.083   1.867   3.831  2.1993  0.4639  0.8154
  130MOL    H8318401   4.204   1.865   3.710 -0.1392 -4.0405 -1.1030
  130MOL    H8418402   3.915   1.974   3.682 -0.9471  1.0080 -3.9610
  130MOL    H8518403   4.010   1.974   3.549  0.2580  2.2223 -0.8662
  130MOL    C8618404   4.061   2.214   3.588  0.1388  0.0443 -0.2117
  130MOL    C8718405   3.945   2.303   3.645 -0.7856  0.4304  0.1896
  130MOL    O8818406   3.819   2.239   3.656  0.9399 -0.6622  0.1627
  130MOL    H8918407   4.148   2.279   3.593  0.8683 -0.9692  0.8100
  130MOL    H9018408   4.052   2.182   3.484 -0.7873 -0.3846 -0.0034
  130MOL    H9118409   3.933   2.397   3.592 -0.4602  0.2218 -0.2552
  130MOL    H9218410   3.970   2.329   3.748 -0.5426 -2.4634  0.9071
  130MOL    C9318411   3.768   2.198   3.534 -0.4409  0.9258  0.0272
  130MOL    C9418412   3.630   2.143   3.572  0.3751  0.8237  0.0521
  130MOL    O9518413   3.658   2.013   3.622  0.0399 -0.2346 -0.3000
  130MOL    H9618414   3.754   2.284   3.468 -5.5902  0.0846 -0.2062
  130MOL    H9718415   3.823   2.123   3.477 -0.3951 -0.6106  2.0588
  130MOL    H9818416   3.564   2.132   3.485  0.2099  0.5324  0.2116
  130MOL    H9918417   3.583   2.212   3.642 -0.5885 -1.5463  1.8160
  130MOL   C10018418   3.560   1.975   3.721 -0.3741 -0.5269  0.6970
  130MOL   C10118419   3.420   1.980   3.674 -0.1667 -0.0274  0.0286
  130MOL   O10218420   3.409   1.888   3.564 -0.0213  0.0024  0.2081
  130MOL   H10318421   3.575   1.868   3.728 -1.1410 -0.5465  2.4518
  130MOL   H10418422   3.585   2.032   3.811  0.0536 -0.0182  0.2636
  130MOL   H10518423   3.384   2.081   3.657  2.3186  0.8101 -0.3005
  130MOL   H10618424   3.346   1.938   3.743  0.5280  0.1608  0.8977
  130MOL   C10718425   3.281   1.896   3.503 -0.3987  0.0570  0.1844
  130MOL   C10818426   3.265   1.784   3.396 -0.3208 -0.0855  0.3195
  130MOL   O10918427   3.129   1.785   3.346 -0.0376 -0.1578  0.0302
  130MOL   H11018428   3.205   1.878   3.579 -2.3505  1.3267 -1.4062
  130MOL   H11118429   3.262   1.991   3.451 -1.3986 -1.6017 -2.5893
  130MOL   H11218430   3.282   1.683   3.435 -0.8596  0.6640  2.5540
  130MOL   H11318431   3.337   1.787   3.314 -1.3713 -1.3898 -0.6786
  130MOL   C11418432   3.114   1.818   3.209  0.6641  0.3764 -0.5931
  130MOL   C11518433   3.130   1.688   3.128  0.3705  1.0457  0.2401
  130MOL   O11618434   3.258   1.627   3.142  0.3640 -0.1809  0.1420
  130MOL   H11718435   3.017   1.861   3.184 -0.6208  0.4601  4.0811
  130MOL   H11818436   3.194   1.881   3.172 -0.9034  1.2464 -2.6212
  130MOL   H11918437   3.109   1.686   3.021 -1.5355  0.1282  0.6034
  130MOL   H12018438   3.049   1.621   3.157 -1.2992  1.5177 -3.0459
  130MOL   C12118439   3.258   1.488   3.114 -0.2372 -0.1445 -0.4688
  130MOL   C12218440   3.396   1.423   3.147  0.4871  0.6938 -0.0295
  130MOL   O12318441   3.497   1.449   3.049  0.4626 -0.3567 -0.1022
  130MOL   H12418442   3.182   1.449   3.180 -0.1494  2.1364  1.0154
  130MOL   H12518443   3.216   1.478   3.014  0.9422 -2.1084 -0.7997
  130MOL   H12618444   3.377   1.315   3.145 -2.6145  1.2274 -2.2749
  130MOL   H12718445   3.424   1.448   3.249  1.0279  0.8324 -0.2074
  130MOL   C12818446   3.574   1.571   3.075  0.4708  0.0024 -0.4776
  130MOL   C12918447   3.677   1.578   2.967 -1.0049 -0.7358 -0.1341
  130MOL   O13018448   3.783   1.658   3.005 -0.4898  0.7326 -0.6203
  130MOL   H13118449   3.513   1.661   3.070 -1.2646 -1.2077 -1.7463
  130MOL   H13218450   3.621   1.562   3.173 -0.4726 -2.1990 -0.1976
  130MOL   H13318451   3.633   1.614   2.873 -0.6308 -1.0315 -0.4225
  130MOL   H13418452   3.716   1.477   2.948 -0.3765  0.0414 -3.3311
  130MOL   C13518453   3.887   1.692   2.907 -1.4732 -0.1397  0.3173
  130MOL   C13618454   3.879   1.837   2.861  0.1902 -0.3188 -0.9545
  130MOL   O13718455   3.975   1.840   2.750 -0.7144 -0.5578 -0.1422
  130MOL   H13818456   3.976   1.676   2.969 -2.4135  1.8876  2.2449
  130MOL   H13918457   3.882   1.622   2.824  1.5509  0.1897 -0.1956
  130MOL   H14018458   3.910   1.909   2.937  0.6203 -1.2450 -0.2315
  130MOL   H14118459   3.780   1.868   2.827  0.2447  0.6523 -0.2386
  130MOL   H14218460   4.030   1.917   2.757  1.0204 -1.9516  2.1344
  131MOL     C118461   4.290   6.223   4.204  0.0295  0.0048  0.6716
  131MOL     C218462   4.334   6.337   4.115 -0.5409 -0.4797 -0.2164
  131MOL     O318463   4.308   6.461   4.179 -0.2049 -0.4958 -0.3467
  131MOL     H418464   4.356   6.197   4.287  0.3627 -1.8224 -0.1485
  131MOL     H518465   4.291   6.132   4.145 -0.1156  0.5442 -0.1691
  131MOL     H618466   4.286   6.326   4.018  2.9662 -1.2598 -1.9011
  131MOL     H718467   4.441   6.326   4.101 -0.3415  0.5150  0.4150
  131MOL     H818468   4.190   6.238   4.246 -0.2657 -1.0371  0.3636
  131MOL     C918469   4.341   6.566   4.094  0.1379  0.3519  0.8599
  131MOL    C1018470   4.274   6.692   4.148 -0.0146  0.1461 -0.3032
  131MOL    O1118471   4.380   6.751   4.213 -0.6127 -0.2077 -0.9596
  131MOL    H1218472   4.449   6.583   4.093 -0.0737  1.6538 -0.0823
  131MOL    H1318473   4.305   6.553   3.992 -3.7960 -1.5961  2.3887
  131MOL    H1418474   4.189   6.670   4.213  1.2396 -1.3050  0.8555
  131MOL    H1518475   4.235   6.755   4.068 -0.7766  2.9175  2.1546
  131MOL    C1618476   4.336   6.870   4.270  0.0565 -0.1391 -0.2436
  131MOL    C1718477   4.445   6.917   4.363  0.0465  0.8994  0.8684
  131MOL    O1818478   4.413   6.886   4.491  0.0384 -0.3458 -0.2611
  131MOL    H1918479   4.316   6.932   4.182 -2.5836  1.4834  1.4229
  131MOL    H2018480   4.240   6.847   4.317 -0.2383  2.1080  0.2835
  131MOL    H2118481   4.442   7.026   4.366  1.0612  0.9602  0.1784
  131MOL    H2218482   4.550   6.899   4.338 -0.0767  0.2235  0.8449
  131MOL    C2318483   4.503   6.926   4.587 -0.2106  0.4055 -0.5816
  131MOL    C2418484   4.431   6.982   4.711 -0.0660 -0.7054  0.1575
  131MOL    O2518485   4.406   7.122   4.702 -0.9136  0.8467  0.2193
  131MOL    H2618486   4.568   6.842   4.609  0.0830  0.2254 -2.1136
  131MOL    H2718487   4.567   7.004   4.546 -1.3402  0.7248 -1.7782
  131MOL    H2818488   4.493   6.964   4.798 -0.2414  0.5570  0.5483
  131MOL    H2918489   4.344   6.919   4.729 -1.0654 -0.0176 -2.0378
  131MOL    C3018490   4.368   7.180   4.827 -0.2783 -0.0525 -0.0187
  131MOL    C3118491   4.484   7.211   4.916 -0.3051  0.1980  0.8991
  131MOL    O3218492   4.501   7.091   4.981  0.1825 -0.2912 -0.2018
  131MOL    H3318493   4.323   7.274   4.795  0.4605  0.8011  1.4061
  131MOL    H3418494   4.292   7.119   4.874 -3.9105  4.2472  0.0297
  131MOL    H3518495   4.461   7.291   4.987 -2.4805  0.0129  0.4362
  131MOL    H3618496   4.570   7.251   4.861 -1.3461  0.0751 -0.8543
  131MOL    C3718497   4.571   7.094   5.109  0.2844 -0.9054  0.1222
  131MOL    C3818498   4.466   7.122   5.220  0.3861 -0.8334  0.4664
  131MOL    O3918499   4.394   7.003   5.257  0.3293  0.1943 -0.4476
  131MOL    H4018500   4.626   7.004   5.133 -2.7652 -3.3193 -1.6000
  131MOL    H4118501   4.647   7.172   5.113  0.7285 -1.3691  0.5930
  131MOL    H4218502   4.390   7.190   5.182  0.2953 -2.5825 -2.6032
  131MOL    H4318503   4.508   7.169   5.310 -1.0847  0.8184  0.3232
  131MOL    C4418504   4.481   6.910   5.320  0.2227 -0.8074 -0.5392
  131MOL    C4518505   4.393   6.814   5.401 -0.1085  0.2207  0.0064
  131MOL    O4618506   4.331   6.884   5.507  0.0327  0.3745 -0.1006
  131MOL    H4718507   4.543   6.866   5.242  0.7835  0.5842 -0.8967
  131MOL    H4818508   4.556   6.948   5.390  0.7695 -1.3414 -0.8329
  131MOL    H4918509   4.455   6.734   5.441  0.4682 -0.5931 -2.4576
  131MOL    H5018510   4.309   6.771   5.346 -1.2637  0.6689  1.3834
  131MOL    C5118511   4.224   6.811   5.572 -0.3206 -0.7431  0.1228
  131MOL    C5218512   4.166   6.900   5.683 -0.2549  0.0233  0.5565
  131MOL    O5318513   4.129   6.832   5.800 -0.8004 -0.2703  0.2645
  131MOL    H5418514   4.144   6.792   5.500  1.5309 -2.3294 -1.5771
  131MOL    H5518515   4.272   6.723   5.615 -0.7631 -0.2536  1.6378
  131MOL    H5618516   4.094   6.978   5.655  0.1326  1.1397  2.4870
  131MOL    H5718517   4.254   6.956   5.715 -1.5909  1.8836  1.1578
  131MOL    C5818518   4.118   6.909   5.915 -0.3779  0.0977  0.1056
  131MOL    C5918519   3.968   6.946   5.933 -0.0477  0.1478  0.6473
  131MOL    O6018520   3.947   7.046   6.033  0.5665 -0.3809  0.2843
  131MOL    H6118521   4.150   6.853   6.003  0.2669 -2.3605 -1.6493
  131MOL    H6218522   4.180   6.998   5.906 -0.4133  0.0398 -0.7767
  131MOL    H6318523   3.908   6.857   5.954  2.1122 -1.8276 -1.2243
  131MOL    H6418524   3.936   6.990   5.839  1.8564  1.2009  0.4608
  131MOL    C6518525   3.810   7.066   6.059  0.3334  0.1193  0.5842
  131MOL    C6618526   3.740   7.161   5.966  0.5412  0.6123  0.5263
  131MOL    O6718527   3.718   7.119   5.831  0.1565 -0.3721 -0.5434
  131MOL    H6818528   3.757   6.971   6.059 -0.0982  0.3608  0.3278
  131MOL    H6918529   3.795   7.108   6.158  0.4552  2.0238 -0.1958
  131MOL    H7018530   3.799   7.253   5.964  2.5349 -0.6281  0.0106
  131MOL    H7118531   3.641   7.174   6.009  0.0468  2.8295 -1.1873
  131MOL    C7218532   3.623   7.187   5.755  0.4417 -0.1370  0.4361
  131MOL    C7318533   3.625   7.127   5.612 -0.2237 -0.5186 -0.0558
  131MOL    O7418534   3.735   7.183   5.541 -0.0080 -0.3587 -0.7859
  131MOL    H7518535   3.524   7.173   5.798 -0.2895  0.6486 -0.9520
  131MOL    H7618536   3.664   7.287   5.751  2.6427 -1.0697 -1.7845
  131MOL    H7718537   3.538   7.163   5.557  1.9416 -0.7320 -3.7461
  131MOL    H7818538   3.632   7.019   5.618 -2.4421 -0.6655  0.3207
  131MOL    C7918539   3.748   7.117   5.419  0.5384 -0.7372 -0.2540
  131MOL    C8018540   3.874   7.025   5.421  0.2445  0.3634  0.2282
  131MOL    O8118541   3.916   7.003   5.289  0.1679  0.5134 -0.4486
  131MOL    H8218542   3.661   7.068   5.375 -1.1646 -0.1302  2.3460
  131MOL    H8318543   3.773   7.205   5.359 -0.7996 -0.2531 -0.1177
  131MOL    H8418544   3.851   6.925   5.456  0.1276 -0.7207 -2.7985
  131MOL    H8518545   3.956   7.072   5.476  1.4762  0.1104 -1.3330
  131MOL    C8618546   4.037   6.921   5.287 -0.1935 -0.1384  0.4222
  131MOL    C8718547   4.094   6.922   5.148 -0.1702  0.2832 -0.1747
  131MOL    O8818548   4.028   6.841   5.061 -0.5058 -0.0929  0.2067
  131MOL    H8918549   4.114   6.953   5.357 -0.7778 -0.3369  1.1643
  131MOL    H9018550   4.013   6.824   5.331 -2.4947  0.1299 -0.1948
  131MOL    H9118551   4.199   6.893   5.153 -0.4052 -0.4829  0.2745
  131MOL    H9218552   4.090   7.028   5.121 -1.7782  0.4177  0.5263
  131MOL    C9318553   4.079   6.869   4.930 -0.0162 -0.4846  0.2964
  131MOL    C9418554   4.025   6.776   4.821  0.2675 -0.2614  0.1405
  131MOL    O9518555   3.894   6.821   4.781 -0.5228  0.2199 -0.4591
  131MOL    H9618556   4.081   6.975   4.904 -0.4700 -0.8200 -1.1163
  131MOL    H9718557   4.184   6.841   4.938  0.5765  1.5401  0.0075
  131MOL    H9818558   4.015   6.675   4.860 -2.8800 -0.8581 -2.0955
  131MOL    H9918559   4.084   6.781   4.730 -1.4381  1.0382 -0.9101
  131MOL   C10018560   3.833   6.727   4.697  0.4698 -0.0209  0.3548
  131MOL   C10118561   3.700   6.779   4.634 -0.8922 -0.3309 -0.1010
  131MOL   O10218562   3.590   6.714   4.699  0.3249 -0.5199 -0.0955
  131MOL   H10318563   3.900   6.722   4.612  3.1370  0.5328  2.3509
  131MOL   H10418564   3.812   6.627   4.735  1.1724 -0.2610  0.1150
  131MOL   H10518565   3.702   6.763   4.526 -2.2903  1.9036 -0.5173
  131MOL   H10618566   3.688   6.887   4.643 -0.8938 -0.2424 -1.1221
  131MOL   C10718567   3.455   6.762   4.669 -0.1360  0.9810 -0.0744
  131MOL   C10818568   3.408   6.717   4.524 -0.1814  0.2780 -0.2443
  131MOL   O10918569   3.278   6.761   4.502 -0.1292 -0.7454 -0.0869
  131MOL   H11018570   3.392   6.707   4.739 -0.7576  1.2300 -0.4347
  131MOL   H11118571   3.442   6.868   4.690 -0.1849  0.7571  1.0828
  131MOL   H11218572   3.422   6.609   4.516  1.0117  0.2700  1.5685
  131MOL   H11318573   3.471   6.770   4.452  2.5518 -0.3365  1.6354
  131MOL   C11418574   3.178   6.683   4.558 -0.0721  0.6169 -0.5392
  131MOL   C11518575   3.166   6.550   4.488  0.2942 -0.0277  0.3101
  131MOL   O11618576   3.238   6.449   4.552  0.0885  0.8794 -0.1043
  131MOL   H11718577   3.199   6.670   4.665  0.7951  2.3068 -0.4917
  131MOL   H11818578   3.084   6.734   4.537 -0.7215 -0.3765 -0.1045
  131MOL   H11918579   3.198   6.568   4.385 -1.2186 -0.8020 -0.3072
  131MOL   H12018580   3.059   6.530   4.486  0.1269  0.7839  0.8512
  131MOL   C12118581   3.189   6.318   4.535 -0.4353 -0.2579 -0.2049
  131MOL   C12218582   3.182   6.266   4.396 -0.1061  0.3761 -0.2603
  131MOL   O12318583   3.097   6.322   4.299  0.5319 -0.3992  0.8907
  131MOL   H12418584   3.249   6.248   4.593 -0.5509  1.7489  2.4073
  131MOL   H12518585   3.089   6.309   4.579 -0.0308 -0.6992  0.6326
  131MOL   H12618586   3.144   6.165   4.413  0.0339  0.1116 -1.4623
  131MOL   H12718587   3.284   6.263   4.358 -0.0763 -1.3229 -0.0705
  131MOL   C12818588   3.075   6.238   4.188  0.0317 -0.3674 -0.8591
  131MOL   C12918589   2.983   6.291   4.077 -0.5807 -0.3653 -0.2673
  131MOL   O13018590   2.855   6.239   4.108  0.3799 -0.3655  0.1136
  131MOL   H13118591   3.170   6.212   4.140  0.2374 -0.8778 -0.1914
  131MOL   H13218592   3.045   6.136   4.213  2.0171 -1.6190 -3.3639
  131MOL   H13318593   3.017   6.267   3.976 -0.7456  0.0605 -0.4235
  131MOL   H13418594   2.987   6.400   4.082  2.5418 -0.4071 -1.0374
  131MOL   C13518595   2.749   6.315   4.040 -0.4337  0.5689  0.4958
  131MOL   C13618596   2.611   6.276   4.081 -0.6948  0.2629  0.5751
  131MOL   O13718597   2.609   6.143   4.036  0.1853  0.2347 -0.3985
  131MOL   H13818598   2.756   6.421   4.065  0.7894  0.0002  2.7368
  131MOL   H13918599   2.762   6.301   3.933  1.1701  1.2296  0.5870
  131MOL   H14018600   2.530   6.345   4.058  0.0251  0.8831 -0.1048
  131MOL   H14118601   2.604   6.272   4.190  0.6282  1.5434  0.7243
  131MOL   H14218602   2.686   6.105   4.075 -1.3885 -0.0973  2.4959
  132MOL     C118603   3.941   1.106   2.287 -0.5130 -0.5476 -0.5914
  132MOL     C218604   4.069   1.176   2.333 -0.3570 -0.2527 -0.3683
  132MOL     O318605   4.027   1.265   2.431  0.0436  0.9149 -0.4630
  132MOL     H418606   3.956   1.041   2.200  0.7611 -0.8491 -0.1549
  132MOL     H518607   3.869   1.181   2.255  0.3801  0.1154 -1.0541
  132MOL     H618608   4.122   1.221   2.250 -0.2831 -0.1577 -0.2706
  132MOL     H718609   4.136   1.108   2.386  0.7695  0.1337 -1.2865
  132MOL     H818610   3.889   1.037   2.353 -0.2535  0.5659  0.7898
  132MOL     C918611   4.126   1.359   2.470 -0.9432 -0.6880  0.2392
  132MOL    C1018612   4.079   1.450   2.581 -0.4568  0.4634  0.0241
  132MOL    O1118613   4.084   1.406   2.712  0.0685 -0.7274 -0.1383
  132MOL    H1218614   4.216   1.309   2.507  0.6760  0.3310 -2.2163
  132MOL    H1318615   4.144   1.420   2.381 -0.8313  0.0428  0.7552
  132MOL    H1418616   3.981   1.489   2.552 -0.7150 -0.7607 -0.8143
  132MOL    H1518617   4.142   1.539   2.590 -0.5935  0.5421  0.1949
  132MOL    C1618618   3.990   1.307   2.744 -0.1377 -0.4401 -0.6673
  132MOL    C1718619   3.974   1.292   2.901  0.1550 -1.1210  0.6502
  132MOL    O1818620   4.087   1.220   2.957 -0.6465  0.3689  0.1398
  132MOL    H1918621   3.894   1.333   2.699 -1.2083 -2.5908  0.3045
  132MOL    H2018622   4.025   1.211   2.708 -0.4669 -1.2194  1.0361
  132MOL    H2118623   3.878   1.249   2.931 -0.8887 -0.3956 -1.5606
  132MOL    H2218624   3.967   1.397   2.929  0.4080 -0.5977 -1.1992
  132MOL    C2318625   4.066   1.179   3.093  0.3430  0.9091  0.1552
  132MOL    C2418626   4.182   1.117   3.162  0.2420 -0.2402  0.2547
  132MOL    O2518627   4.296   1.204   3.192 -0.4770 -0.1129  0.2972
  132MOL    H2618628   4.022   1.262   3.147 -1.7640  1.0274 -1.6461
  132MOL    H2718629   3.979   1.113   3.085  1.8191 -1.1106  0.5784
  132MOL    H2818630   4.208   1.024   3.112 -0.5304  0.3977 -1.3762
  132MOL    H2918631   4.155   1.070   3.257  1.1869 -1.4651 -0.0641
  132MOL    C3018632   4.392   1.149   3.283 -0.1627 -0.2125 -0.0475
  132MOL    C3118633   4.534   1.144   3.215 -0.1048  0.3307 -0.1075
  132MOL    O3218634   4.536   1.037   3.118 -0.5310 -0.5322 -0.1676
  132MOL    H3318635   4.387   1.213   3.371 -3.0511 -0.9392  0.3726
  132MOL    H3418636   4.386   1.045   3.316  1.4453 -1.2875 -2.9591
  132MOL    H3518637   4.615   1.130   3.286 -0.5901 -1.0930  0.1854
  132MOL    H3618638   4.556   1.238   3.164  0.5757  0.2619  0.0570
  132MOL    C3718639   4.659   0.986   3.070 -0.5303 -0.5185  0.0003
  132MOL    C3818640   4.726   0.885   3.174  0.2198 -0.2039 -0.2014
  132MOL    O3918641   4.655   0.765   3.180 -0.0391 -0.2775 -0.2486
  132MOL    H4018642   4.631   0.937   2.976  0.5349  1.1335 -1.2021
  132MOL    H4118643   4.738   1.056   3.043  0.4833 -0.4298  3.0705
  132MOL    H4218644   4.742   0.936   3.269  1.6584 -1.8262  0.4633
  132MOL    H4318645   4.827   0.853   3.151  0.5548  0.3322  0.4943
  132MOL    C4418646   4.698   0.690   3.292 -0.1656  0.3873 -0.0842
  132MOL    C4518647   4.636   0.552   3.291 -0.6261 -0.1994 -0.2437
  132MOL    O4618648   4.707   0.464   3.214  0.2055  0.0957  0.3388
  132MOL    H4718649   4.806   0.697   3.299 -0.2441 -0.0510  1.8893
  132MOL    H4818650   4.654   0.732   3.382  0.5365 -0.8206  0.8309
  132MOL    H4918651   4.530   0.563   3.267 -0.5946  0.1223 -0.2389
  132MOL    H5018652   4.632   0.502   3.388 -0.8362 -1.8531 -1.0892
  132MOL    C5118653   4.673   0.462   3.080  0.0936  0.0483  0.2777
  132MOL    C5218654   4.747   0.346   3.008  0.1615  0.1242  0.0374
  132MOL    O5318655   4.693   0.298   2.884 -0.5422  0.2143  0.6134
  132MOL    H5418656   4.564   0.453   3.071 -0.1225  3.3300 -1.1791
  132MOL    H5518657   4.688   0.562   3.038 -2.1806  0.2591 -0.0909
  132MOL    H5618658   4.749   0.270   3.086  1.0519  2.6396  2.5124
  132MOL    H5718659   4.851   0.373   2.992  0.2840 -0.0233  0.6036
  132MOL    C5818660   4.572   0.233   2.901 -0.8189  0.3201  0.9743
  132MOL    C5918661   4.518   0.193   2.761 -0.6268  0.3192  0.1728
  132MOL    O6018662   4.449   0.294   2.703 -0.1929  0.0526  0.1813
  132MOL    H6118663   4.587   0.139   2.954 -0.3644 -0.0505  0.2098
  132MOL    H6218664   4.498   0.290   2.957 -2.1251 -0.5308  0.1489
  132MOL    H6318665   4.451   0.109   2.778  0.5821 -0.7504 -0.2627
  132MOL    H6418666   4.598   0.169   2.691 -0.9748  1.8575 -0.7585
  132MOL    C6518667   4.349   0.243   2.601 -0.7780 -0.0351  0.2583
  132MOL    C6618668   4.403   0.181   2.473  0.1013 -0.4291 -0.6933
  132MOL    O6718669   4.422   0.044   2.500  0.5065  0.1324  0.3936
  132MOL    H6818670   4.288   0.166   2.649  1.5328 -1.4137  1.0701
  132MOL    H6918671   4.301   0.335   2.568 -0.4128 -0.5640 -1.8645
  132MOL    H7018672   4.494   0.229   2.438 -0.1561 -0.4601 -1.4116
  132MOL    H7118673   4.329   0.198   2.395  0.5908  2.0969 -0.6552
  132MOL    C7218674   4.485   7.747   2.394  0.3405 -0.2066 -0.4088
  132MOL    C7318675   4.476   7.596   2.431 -0.8172 -0.0037 -0.9652
  132MOL    O7418676   4.570   7.554   2.528 -0.3385 -0.0204  0.3047
  132MOL    H7518677   4.433   7.764   2.300 -1.4220 -0.3836  0.5069
  132MOL    H7618678   4.587   0.013   2.379  1.0284 -1.7361  0.3687
  132MOL    H7718679   4.502   7.543   2.339  2.3701  0.2152 -0.2355
  132MOL    H7818680   4.378   7.559   2.463 -0.0537 -1.6753 -0.4859
  132MOL    C7918681   4.524   7.553   2.662 -0.2555 -0.2459  0.1584
  132MOL    C8018682   4.625   7.492   2.765  0.6553 -0.4487  0.1671
  132MOL    O8118683   4.723   7.597   2.770  0.3611 -0.2877  0.7021
  132MOL    H8218684   4.509   7.657   2.689  2.4658  0.0562  0.6193
  132MOL    H8318685   4.424   7.508   2.669  0.1153 -0.7569  2.5464
  132MOL    H8418686   4.662   7.398   2.722  2.2317 -0.2350  1.0257
  132MOL    H8518687   4.588   7.479   2.867  0.6314  1.6278  0.4322
  132MOL    C8618688   4.850   7.557   2.805 -0.2487 -0.5252 -0.1545
  132MOL    C8718689   4.903   7.664   2.898  0.8972  0.2450  0.1620
  132MOL    O8818690   4.849   7.634   3.025 -0.2318  0.2751 -0.2233
  132MOL    H8918691   4.846   7.459   2.852 -2.1151 -0.8775 -0.9984
  132MOL    H9018692   4.907   7.546   2.713 -0.1237  0.4284 -0.1944
  132MOL    H9118693   4.874   7.764   2.867  3.6418  0.2940 -2.4135
  132MOL    H9218694   5.011   7.658   2.893  0.7910 -1.3549 -0.5267
  132MOL    C9318695   4.812   7.739   3.111  0.1677 -0.1785 -0.3344
  132MOL    C9418696   4.941   0.035   3.154  0.5979  1.0907  0.0918
  132MOL    O9518697   4.990   0.133   3.061  0.2507 -0.4831  0.0777
  132MOL    H9618698   4.750   0.048   3.070 -0.5193 -0.8544 -0.6137
  132MOL    H9718699   4.766   7.695   3.198 -0.2260 -0.6864 -0.7997
  132MOL    H9818700   5.016   7.734   3.189  2.3033  1.0700 -3.3957
  132MOL    H9918701   4.907   0.093   3.240  0.2358 -0.8429  1.2881
  132MOL   C10018702   5.108   0.205   3.091  0.5007  0.2730  0.5799
  132MOL   C10118703   5.163   0.276   2.963  0.5412 -0.5586 -0.3603
  132MOL   O10218704   5.248   0.193   2.887  0.0437 -0.3143 -0.5750
  132MOL   H10318705   5.089   0.287   3.161  0.5173  2.3895 -1.8339
  132MOL   H10418706   5.188   0.144   3.134  1.2388 -1.7996 -3.4969
  132MOL   H10518707   5.218   0.362   3.001  0.2029 -0.1597 -0.7627
  132MOL   H10618708   5.087   0.325   2.901  0.7945  1.5173  0.9110
  132MOL   C10718709   5.384   0.181   2.932  0.0854  0.1277 -0.7986
  132MOL   C10818710   5.465   0.111   2.824  0.2642 -1.2342 -0.0868
  132MOL   O10918711   5.429   7.738   2.804  0.1124 -0.3096  0.2352
  132MOL   H11018712   5.419   0.281   2.957 -1.0316  0.0335  1.2984
  132MOL   H11118713   5.383   0.132   3.030 -1.5811  1.6123 -0.0412
  132MOL   H11218714   5.570   0.115   2.853  0.5059 -0.8097 -1.0065
  132MOL   H11318715   5.467   0.166   2.730  0.9670  0.4205  0.8728
  132MOL   C11418716   5.468   7.690   2.670 -0.0959 -0.5297  0.6197
  132MOL   C11518717   5.479   7.542   2.648  0.0424 -0.1529  0.6040
  132MOL   O11618718   5.595   7.479   2.693 -0.1167  0.1119 -0.1021
  132MOL   H11718719   5.398   7.739   2.601  0.9486  2.4811  1.6057
  132MOL   H11818720   5.570   7.726   2.660 -0.9635  1.4770 -1.9367
  132MOL   H11918721   5.477   7.525   2.540  0.0520  1.7167  0.2988
  132MOL   H12018722   5.391   7.493   2.688  0.4921 -3.2916 -2.0001
  132MOL   C12118723   5.623   7.473   2.834  0.5402 -0.4016  0.5735
  132MOL   C12218724   5.719   7.358   2.869  0.3111  0.3893 -0.6534
  132MOL   O12318725   5.655   7.238   2.898  0.5201 -1.1223  0.1246
  132MOL   H12418726   5.672   7.566   2.861 -0.1163 -0.3419  1.5934
  132MOL   H12518727   5.530   7.475   2.891  0.2540  3.7029  0.0587
  132MOL   H12618728   5.764   7.389   2.963  0.6889 -0.0320 -0.6957
  132MOL   H12718729   5.801   7.353   2.797  2.2734  1.3539  1.4571
  132MOL   C12818730   5.636   7.178   2.774 -0.6554  0.2528 -0.7879
  132MOL   C12918731   5.528   7.083   2.793  0.1615  0.1759 -0.0842
  132MOL   O13018732   5.547   6.985   2.694 -0.4098 -0.4939  0.0901
  132MOL   H13118733   5.637   7.246   2.688  2.8578 -0.6099 -1.5065
  132MOL   H13218734   5.726   7.119   2.758  0.3321  0.9085  2.0578
  132MOL   H13318735   5.433   7.136   2.781 -0.5624 -0.9542  0.6409
  132MOL   H13418736   5.547   7.044   2.893 -2.0832  1.5124  0.9109
  132MOL   C13518737   5.451   6.883   2.713 -0.2267  0.6031 -0.1724
  132MOL   C13618738   5.456   6.785   2.593  0.5000 -0.7673 -0.1382
  132MOL   O13718739   5.373   6.825   2.482  0.0075  0.1037  0.9720
  132MOL   H13818740   5.470   6.821   2.802  1.7144  2.2522  0.6041
  132MOL   H13918741   5.349   6.918   2.728 -0.1185  1.0551 -0.5107
  132MOL   H14018742   5.395   6.704   2.633  1.1440 -0.4136  1.5953
  132MOL   H14118743   5.546   6.730   2.567  1.5933  0.2986  1.3134
  132MOL   H14218744   5.424   6.878   2.422 -0.4512  1.8330  2.0664
  133MOL     C118745   2.624   5.244   6.833  0.4007 -0.9194 -0.1551
  133MOL     C218746   2.484   5.282   6.884  0.1455 -0.1913  0.3198
  133MOL     O318747   2.444   5.171   6.959 -0.3250 -0.3227 -0.1928
  133MOL     H418748   2.672   5.313   6.763 -1.2636  0.7148  0.2692
  133MOL     H518749   2.624   5.144   6.789 -1.0060 -0.2642 -1.7387
  133MOL     H618750   2.420   5.288   6.796  0.6343 -1.0261 -0.0959
  133MOL     H718751   2.475   5.380   6.931 -1.5193  0.1373 -0.6553
  133MOL     H818752   2.686   5.246   6.922 -0.5811  3.3716  0.5766
  133MOL     C918753   2.303   5.141   6.958 -0.0260  0.3539 -1.1886
  133MOL    C1018754   2.278   5.002   7.021  0.0644  0.9805 -0.6497
  133MOL    O1118755   2.302   4.894   6.930 -0.4018 -0.1592  0.7603
  133MOL    H1218756   2.258   5.223   7.014  1.6803  0.0593  0.6527
  133MOL    H1318757   2.271   5.153   6.854  1.1636  1.4129 -1.4470
  133MOL    H1418758   2.179   4.991   7.066 -0.0757 -1.7717 -1.5358
  133MOL    H1518759   2.338   4.982   7.110  0.1899 -0.0212 -0.9541
  133MOL    C1618760   2.442   4.890   6.890  0.3556 -0.5914  0.0442
  133MOL    C1718761   2.490   4.751   6.832 -0.3079 -0.7404  0.2409
  133MOL    O1818762   2.446   4.718   6.708 -0.2700  0.0008 -0.0179
  133MOL    H1918763   2.462   4.964   6.813  1.0271  1.0682  1.7976
  133MOL    H2018764   2.508   4.908   6.975 -2.9463  1.6463  2.2266
  133MOL    H2118765   2.454   4.673   6.899  0.8182  0.9495  2.8731
  133MOL    H2218766   2.598   4.752   6.846 -0.1254 -0.8190 -1.1058
  133MOL    C2318767   2.307   4.687   6.700  0.2226 -0.2601  0.3859
  133MOL    C2418768   2.270   4.651   6.554  0.1235 -0.1119  0.3068
  133MOL    O2518769   2.330   4.528   6.515  0.1636  0.2887 -0.3009
  133MOL    H2618770   2.278   4.606   6.766  0.9202 -1.1857 -0.4339
  133MOL    H2718771   2.248   4.774   6.729  1.8458  1.8290 -2.2611
  133MOL    H2818772   2.286   4.722   6.473 -0.3581 -1.0889 -0.6688
  133MOL    H2918773   2.162   4.642   6.565 -0.0397 -0.3951 -1.3085
  133MOL    C3018774   2.265   4.478   6.401  0.3938  0.3572  0.2686
  133MOL    C3118775   2.294   4.329   6.387  0.4674  0.6543 -0.0565
  133MOL    O3218776   2.214   4.246   6.483  0.1507  0.0867 -0.5399
  133MOL    H3318777   2.156   4.487   6.405  0.3737 -0.5916  2.8390
  133MOL    H3418778   2.307   4.528   6.314  0.5405  2.1209  1.3134
  133MOL    H3518779   2.397   4.304   6.413  0.4711 -0.0889 -0.7532
  133MOL    H3618780   2.285   4.296   6.283  0.9549  2.6389 -0.7432
  133MOL    C3718781   2.237   4.098   6.464 -0.3203  0.1375  0.2713
  133MOL    C3818782   2.189   4.008   6.573  0.5058  0.6761 -0.2601
  133MOL    O3918783   2.202   3.875   6.526  1.0525 -0.1431  0.2773
  133MOL    H4018784   2.184   4.069   6.374 -0.9427 -0.0742  0.6996
  133MOL    H4118785   2.344   4.081   6.451 -0.2747 -0.2223  1.0431
  133MOL    H4218786   2.086   4.024   6.604  0.2011 -0.4240 -0.6888
  133MOL    H4318787   2.266   4.027   6.648 -1.2177  0.2804  1.6570
  133MOL    C4418788   2.181   3.790   6.630 -0.6770  0.1276  0.1249
  133MOL    C4518789   2.176   3.642   6.583 -0.2064  0.7223  0.3242
  133MOL    O4618790   2.307   3.589   6.576 -0.6234  0.0849 -0.3312
  133MOL    H4718791   2.262   3.805   6.701 -0.9288  1.3684  0.1626
  133MOL    H4818792   2.085   3.807   6.680 -1.1066 -0.2114 -0.5757
  133MOL    H4918793   2.129   3.631   6.485 -0.1006 -0.1774  0.3710
  133MOL    H5018794   2.117   3.594   6.661 -0.7968 -0.0739 -0.6007
  133MOL    C5118795   2.373   3.613   6.459  0.0285 -0.5952 -0.1748
  133MOL    C5218796   2.517   3.575   6.461  0.3646  0.0208 -0.5697
  133MOL    O5318797   2.553   3.443   6.424  0.0175  0.2812  0.2195
  133MOL    H5418798   2.318   3.571   6.375 -0.2926  0.8365 -0.6959
  133MOL    H5518799   2.383   3.719   6.435 -0.8621 -0.5854 -0.4918
  133MOL    H5618800   2.567   3.613   6.551 -0.1416  0.7650 -0.5932
  133MOL    H5718801   2.562   3.632   6.379  1.8864 -1.5941 -0.8851
  133MOL    C5818802   2.529   3.348   6.532  0.9899 -0.3685  0.1757
  133MOL    C5918803   2.587   3.217   6.472 -0.0169 -0.7637  0.7670
  133MOL    O6018804   2.524   3.169   6.352 -0.0969 -0.7758 -0.1686
  133MOL    H6118805   2.564   3.385   6.628  0.7562  2.6190 -0.8076
  133MOL    H6218806   2.421   3.336   6.539  1.1653 -1.2946  1.4854
  133MOL    H6318807   2.586   3.133   6.541  2.4040 -0.0203  1.7608
  133MOL    H6418808   2.693   3.225   6.448 -0.3395  0.9557 -0.1445
  133MOL    C6518809   2.579   3.050   6.299  0.8936 -0.0001 -0.1048
  133MOL    C6618810   2.505   3.018   6.170 -0.1270  0.2679 -0.1715
  133MOL    O6718811   2.558   3.081   6.062 -0.3687  0.0698  0.0248
  133MOL    H6818812   2.685   3.067   6.280  0.9473 -0.6255 -0.3930
  133MOL    H6918813   2.565   2.979   6.381  1.4099  1.8233  1.6204
  133MOL    H7018814   2.398   3.039   6.181 -0.2619 -0.7795  0.5770
  133MOL    H7118815   2.512   2.911   6.150 -1.3839  0.2084 -0.3475
  133MOL    C7218816   2.508   3.039   5.937 -0.4843 -0.9941  0.1030
  133MOL    C7318817   2.617   3.068   5.841  0.2636  0.5760  0.0988
  133MOL    O7418818   2.644   2.949   5.767  0.0294 -0.3097  0.0805
  133MOL    H7518819   2.473   2.936   5.923  1.4453 -1.9882  2.1217
  133MOL    H7618820   2.420   3.102   5.926 -0.6980 -0.3500  4.6584
  133MOL    H7718821   2.703   3.118   5.886 -0.0917  2.0604 -0.8425
  133MOL    H7818822   2.577   3.142   5.772 -1.2489 -0.7379 -0.4621
  133MOL    C7918823   2.732   2.972   5.661  0.5058  0.3820 -0.4215
  133MOL    C8018824   2.782   2.838   5.600  0.7103  0.0868  0.8378
  133MOL    O8118825   2.856   2.755   5.690 -0.2319  0.5909 -0.5579
  133MOL    H8218826   2.678   3.021   5.580  1.2383 -2.0076 -2.3903
  133MOL    H8318827   2.820   3.023   5.700  0.3188 -0.5869  1.3259
  133MOL    H8418828   2.851   2.863   5.519 -0.9716  2.1757 -0.0138
  133MOL    H8518829   2.706   2.769   5.564 -1.0397  0.9964  2.7157
  133MOL    C8618830   2.907   2.637   5.622  0.1228  0.2483 -0.3959
  133MOL    C8718831   2.987   2.553   5.721  0.1422 -0.0126  0.4276
  133MOL    O8818832   3.112   2.612   5.759  0.5726 -0.2958  0.4627
  133MOL    H8918833   2.827   2.571   5.586 -0.4870  0.5060  0.4539
  133MOL    H9018834   2.975   2.659   5.540 -0.8902 -2.4542 -2.0392
  133MOL    H9118835   3.002   2.456   5.674 -0.5915 -1.1622  2.4596
  133MOL    H9218836   2.931   2.535   5.813 -1.1564 -1.2229 -0.5830
  133MOL    C9318837   3.210   2.520   5.817  0.2487  0.4479  0.3021
  133MOL    C9418838   3.272   2.421   5.717 -0.6755  0.5012 -0.1281
  133MOL    O9518839   3.328   2.497   5.611  0.1305  0.0487 -0.0229
  133MOL    H9618840   3.297   2.571   5.857  0.7059  0.5145 -0.7626
  133MOL    H9718841   3.175   2.457   5.899 -0.1877  0.9680  0.5238
  133MOL    H9818842   3.209   2.334   5.695  1.0014 -1.0055  0.9086
  133MOL    H9918843   3.354   2.369   5.766 -0.5614  0.5211 -0.2993
  133MOL   C10018844   3.341   2.422   5.497  0.2160 -0.1143  0.1657
  133MOL   C10118845   3.404   2.504   5.382 -0.1336 -0.1918 -0.3365
  133MOL   O10218846   3.544   2.493   5.390 -0.4385 -0.8542 -0.2894
  133MOL   H10318847   3.399   2.332   5.519  1.2808  0.8087  1.2042
  133MOL   H10418848   3.245   2.389   5.458 -0.5640  0.0475  1.9344
  133MOL   H10518849   3.365   2.605   5.390  0.9813  0.1778  0.5575
  133MOL   H10618850   3.375   2.454   5.289 -1.0384 -0.7829  0.2688
  133MOL   C10718851   3.623   2.580   5.311 -0.3962  0.0762  0.3211
  133MOL   C10818852   3.612   2.729   5.356 -0.7640 -0.7638  0.3705
  133MOL   O10918853   3.698   2.738   5.467  0.1474  0.3242  0.4231
  133MOL   H11018854   3.726   2.545   5.313 -0.6279 -0.9185 -2.4447
  133MOL   H11118855   3.601   2.576   5.204 -0.3754  1.9406  0.2418
  133MOL   H11218856   3.516   2.778   5.366 -0.5478 -0.0426 -0.9855
  133MOL   H11318857   3.671   2.779   5.279  0.7315 -2.1890  0.5553
  133MOL   C11418858   3.661   2.678   5.596 -0.4855 -0.0876 -0.1140
  133MOL   C11518859   3.543   2.731   5.669 -0.9839  0.2361  0.0172
  133MOL   O11618860   3.580   2.828   5.765  0.0321  0.0533  0.5471
  133MOL   H11718861   3.641   2.572   5.583 -0.5445 -0.0737 -0.1383
  133MOL   H11818862   3.743   2.699   5.664  0.6199  2.4197 -2.1525
  133MOL   H11918863   3.500   2.645   5.720 -0.1346 -1.2117 -1.6077
  133MOL   H12018864   3.464   2.782   5.615 -1.2361  1.6838  1.7407
  133MOL   C12118865   3.482   2.858   5.868  0.6437  0.1626 -0.0041
  133MOL   C12218866   3.533   2.943   5.982 -0.7794 -0.5872  0.1696
  133MOL   O12318867   3.600   2.868   6.083 -0.6610  0.2234  0.0387
  133MOL   H12418868   3.410   2.925   5.822  0.9620  0.6546  0.2095
  133MOL   H12518869   3.423   2.774   5.905 -1.5561  1.3625 -0.7218
  133MOL   H12618870   3.444   2.980   6.033 -0.4759  0.5801 -0.1347
  133MOL   H12718871   3.594   3.026   5.950 -1.9973  0.1125 -0.3730
  133MOL   C12818872   3.732   2.826   6.051  0.4760 -0.8180  0.0101
  133MOL   C12918873   3.797   2.765   6.173 -0.3059  0.5799 -0.0411
  133MOL   O13018874   3.755   2.632   6.206 -0.6208 -0.2424  0.3408
  133MOL   H13118875   3.720   2.758   5.966  0.5489  1.2095 -1.6527
  133MOL   H13218876   3.791   2.913   6.025 -0.3281 -0.1203  0.5058
  133MOL   H13318877   3.776   2.844   6.245  1.4809  2.6102 -1.6471
  133MOL   H13418878   3.905   2.755   6.158 -0.3224 -0.3585  0.4195
  133MOL   C13518879   3.802   2.604   6.336  0.1136  0.3815  0.2275
  133MOL   C13618880   3.697   2.521   6.403 -0.0064 -0.0476 -0.6191
  133MOL   O13718881   3.698   2.395   6.330 -0.1673  0.2854 -0.2074
  133MOL   H13818882   3.899   2.556   6.329 -0.7713 -1.3884 -0.1435
  133MOL   H13918883   3.828   2.690   6.398  0.9230  0.8463 -0.7351
  133MOL   H14018884   3.601   2.574   6.397  0.5533  0.9482 -0.8459
  133MOL   H14118885   3.719   2.518   6.510 -2.0348  2.2363 -0.0914
  133MOL   H14218886   3.665   2.424   6.246  0.6343  2.1361  0.0779
  134MOL     C118887   1.358   6.535   1.978 -0.1484  0.0395 -0.9607
  134MOL     C218888   1.352   6.654   1.881  0.1794  0.0988 -0.3012
  134MOL     O318889   1.394   6.772   1.941 -0.0769 -0.1114  0.5975
  134MOL     H418890   1.455   6.524   2.027 -0.8964 -0.5473  0.4098
  134MOL     H518891   1.325   6.440   1.936 -1.5622 -0.6570  1.6280
  134MOL     H618892   1.251   6.674   1.847 -0.2679 -0.7876  0.4926
  134MOL     H718893   1.402   6.631   1.786 -0.5062 -0.5498 -0.5118
  134MOL     H818894   1.292   6.560   2.060 -0.3020 -2.2963 -0.3299
  134MOL     C918895   1.372   6.873   1.846 -0.5053  0.2107  0.0430
  134MOL    C1018896   1.452   7.003   1.880 -0.1891 -0.0557 -0.1735
  134MOL    O1118897   1.368   7.091   1.950  0.0972  0.2688  0.5445
  134MOL    H1218898   1.402   6.842   1.745 -2.8689  0.3521 -0.7147
  134MOL    H1318899   1.265   6.890   1.837 -0.5477 -0.8047 -1.7101
  134MOL    H1418900   1.476   7.035   1.778  0.2150 -0.8739 -0.3354
  134MOL    H1518901   1.539   6.984   1.942  0.7474  1.2772 -1.0649
  134MOL    C1618902   1.427   7.218   1.983  0.4006 -0.5477  0.2300
  134MOL    C1718903   1.342   7.306   2.077  0.4335 -0.3803 -0.5496
  134MOL    O1818904   1.426   7.388   2.157 -0.3387 -0.7592 -0.2000
  134MOL    H1918905   1.518   7.193   2.036 -0.7833  1.5771  3.4633
  134MOL    H2018906   1.457   7.281   1.900  2.9911  0.0254  1.5564
  134MOL    H2118907   1.292   7.240   2.147  0.9145  1.8531  1.9495
  134MOL    H2218908   1.266   7.367   2.028 -0.9036  0.5216  2.5831
  134MOL    C2318909   1.356   7.460   2.254  0.5281  0.4298 -0.7152
  134MOL    C2418910   1.454   7.539   2.341 -0.0039  0.1344  0.1559
  134MOL    O2518911   1.381   7.631   2.417 -0.2105 -0.1706  0.7883
  134MOL    H2618912   1.287   7.529   2.205 -1.6685  0.2589  2.0500
  134MOL    H2718913   1.309   7.388   2.320  2.1349  0.4140  0.4413
  134MOL    H2818914   1.525   7.605   2.291 -1.1185  1.1756 -0.0840
  134MOL    H2918915   1.506   7.470   2.407 -2.2707 -0.1906  1.6692
  134MOL    C3018916   1.447   7.675   2.531 -0.0651  0.5003  0.2855
  134MOL    C3118917   1.385   0.031   2.580 -0.3211  0.4089 -0.2824
  134MOL    O3218918   1.440   0.144   2.510 -0.0625  0.0399  0.4624
  134MOL    H3318919   1.437   7.600   2.609 -0.8853 -0.4184 -0.6926
  134MOL    H3418920   1.552   7.693   2.508  1.1722 -2.7936  3.0295
  134MOL    H3518921   1.397   0.036   2.688 -0.5277 -3.2147 -0.0190
  134MOL    H3618922   1.276   0.038   2.576 -0.4372 -0.8785  0.4492
  134MOL    C3718923   1.567   0.205   2.548 -0.3130  1.4145  0.1013
  134MOL    C3818924   1.609   0.321   2.465  0.5677 -0.5437  0.1020
  134MOL    O3918925   1.630   0.271   2.338 -0.5853  0.0504 -0.4225
  134MOL    H4018926   1.556   0.242   2.650  1.7188  3.0004 -0.2268
  134MOL    H4118927   1.645   0.129   2.547 -0.5976  1.0425  2.4290
  134MOL    H4218928   1.698   0.366   2.510  0.9327  0.4348 -1.5297
  134MOL    H4318929   1.521   0.385   2.467  1.0417  0.1290 -0.1152
  134MOL    C4418930   1.638   0.365   2.232  0.3532  0.2132  0.3097
  134MOL    C4518931   1.634   0.267   2.112  0.0472  0.9039  0.3622
  134MOL    O4618932   1.727   0.313   2.010 -0.2475 -0.2447 -0.3690
  134MOL    H4718933   1.546   0.424   2.228  1.4316  1.8856 -0.7382
  134MOL    H4818934   1.721   0.436   2.232  1.4385 -1.0255  1.5862
  134MOL    H4918935   1.529   0.256   2.085  0.2954  1.4830 -0.8468
  134MOL    H5018936   1.655   0.163   2.140  1.2914  1.2718  0.8385
  134MOL    C5118937   1.761   0.230   1.892 -0.5046 -0.7038 -0.1640
  134MOL    C5218938   1.850   0.297   1.793 -0.8128 -0.4528  0.1151
  134MOL    O5318939   1.780   0.380   1.702 -0.2364  0.1949 -0.7559
  134MOL    H5418940   1.815   0.143   1.929 -0.1165  0.1629  1.3691
  134MOL    H5518941   1.671   0.196   1.840 -1.6165  0.3835  0.9879
  134MOL    H5618942   1.884   0.214   1.732 -2.1435 -1.9942  1.4461
  134MOL    H5718943   1.939   0.343   1.837 -0.8761  0.2436 -0.4776
  134MOL    C5818944   1.757   0.510   1.749 -0.4421  0.2452 -0.1829
  134MOL    C5918945   1.875   0.596   1.719  0.6663  0.5407 -0.1210
  134MOL    O6018946   1.996   0.563   1.787 -0.1299  0.1240  0.1856
  134MOL    H6118947   1.677   0.565   1.699 -0.4628  0.5918  0.2311
  134MOL    H6218948   1.737   0.518   1.856 -0.9399  1.3336 -0.3542
  134MOL    H6318949   1.846   0.698   1.740 -0.6718  0.4539 -1.4437
  134MOL    H6418950   1.896   0.588   1.612  1.8428 -0.3852  0.1591
  134MOL    C6518951   2.110   0.610   1.725 -0.4315 -0.2590 -0.7337
  134MOL    C6618952   2.183   0.497   1.648  0.8633 -0.4024 -0.2734
  134MOL    O6718953   2.133   0.483   1.515  0.1531 -0.0655 -0.1025
  134MOL    H6818954   2.098   0.693   1.656 -1.3353  1.5155  1.4716
  134MOL    H6918955   2.188   0.630   1.799  0.3003  1.5627 -1.9528
  134MOL    H7018956   2.189   0.402   1.702  1.3704  0.3725  1.0618
  134MOL    H7118957   2.287   0.526   1.632  0.5328  0.6184 -0.6065
  134MOL    C7218958   2.208   0.388   1.435 -0.0490  0.2149 -0.0489
  134MOL    C7318959   2.139   0.348   1.306 -0.5790  0.2455  0.5667
  134MOL    O7418960   2.044   0.243   1.324 -0.0741 -0.4113  0.0709
  134MOL    H7518961   2.304   0.433   1.409  1.1001 -1.1215  1.7427
  134MOL    H7618962   2.246   0.302   1.490  1.3069  1.7983  1.5143
  134MOL    H7718963   2.197   0.301   1.226 -1.7688  1.1231 -0.8521
  134MOL    H7818964   2.091   0.435   1.260  0.4895  0.6385  0.1851
  134MOL    C7918965   1.939   0.276   1.394 -0.2234 -0.7702  0.7454
  134MOL    C8018966   1.824   0.171   1.367 -0.1743 -0.3772  0.6581
  134MOL    O8118967   1.863   0.040   1.417 -0.8782  0.3067 -0.2952
  134MOL    H8218968   1.962   0.276   1.501  0.8454 -2.5553  0.5180
  134MOL    H8318969   1.910   0.381   1.381  2.3792  0.4394  3.7876
  134MOL    H8418970   1.776   0.172   1.269  2.7100 -2.1874 -0.8578
  134MOL    H8518971   1.747   0.198   1.440  0.6848  0.6699  1.1898
  134MOL    C8618972   1.765   7.712   1.388  0.6553  0.1374 -0.2046
  134MOL    C8718973   1.636   7.727   1.466 -0.7794  0.2399  0.5713
  134MOL    O8818974   1.536   0.019   1.391  0.2316 -0.1369  0.0832
  134MOL    H8918975   1.754   7.697   1.280 -1.5978  0.3128 -0.0226
  134MOL    H9018976   1.820   7.630   1.434 -0.2420  0.7759  2.0451
  134MOL    H9118977   1.652   0.013   1.557  3.3964 -0.0897  0.1307
  134MOL    H9218978   1.594   7.630   1.490  0.0428  0.3600  2.5202
  134MOL    C9318979   1.419   0.060   1.462 -0.9697  0.7848 -0.3913
  134MOL    C9418980   1.299   0.070   1.364  0.5364 -0.0985  0.8345
  134MOL    O9518981   1.177   0.062   1.434 -0.7933  0.4305 -0.3289
  134MOL    H9618982   1.407   7.754   1.539 -2.2049  1.2218 -0.1492
  134MOL    H9718983   1.431   0.157   1.509 -1.4311  0.3213  0.7044
  134MOL    H9818984   1.315   7.763   1.290 -0.7547  1.3035 -0.9727
  134MOL    H9918985   1.307   0.166   1.311 -1.7184 -1.0637 -1.3474
  134MOL   C10018986   1.061   0.065   1.352 -0.6216 -0.2437 -0.0408
  134MOL   C10118987   0.943   0.027   1.437 -0.7558 -0.6149 -0.5803
  134MOL   O10218988   0.936   0.134   1.539  0.2282  0.4232 -0.1798
  134MOL   H10318989   1.038   0.167   1.320  2.9541  2.4211  5.1546
  134MOL   H10418990   1.074   7.753   1.284  1.8287  0.2642 -0.2319
  134MOL   H10518991   0.961   7.707   1.495 -0.6453  0.4474  1.0884
  134MOL   H10618992   0.851   0.027   1.379 -1.2336 -1.6774  0.1533
  134MOL   C10718993   0.873   0.083   1.656 -0.3442 -0.2262 -0.1198
  134MOL   C10818994   0.856   0.195   1.757  0.0892 -0.4076  0.0016
  134MOL   O10918995   0.751   0.279   1.718 -0.6971 -0.2013  0.4035
  134MOL   H11018996   0.777   0.031   1.649 -1.0227  0.9250  0.3645
  134MOL   H11118997   0.938   0.007   1.699  1.3218  2.0362  1.4273
  134MOL   H11218998   0.949   0.246   1.779 -0.2574  1.0304 -1.7709
  134MOL   H11318999   0.818   0.152   1.850 -2.0049  0.8417 -0.2533
  134MOL   C11419000   0.785   0.395   1.649 -0.0819  0.5909  0.4455
  134MOL   C11519001   0.672   0.503   1.625 -0.0011 -0.0212  0.0424
  134MOL   O11619002   0.587   0.460   1.518 -0.0378 -0.4119  0.6767
  134MOL   H11719003   0.850   0.446   1.720 -2.2083  1.2355  1.9799
  134MOL   H11819004   0.841   0.374   1.557 -2.6438  0.2922 -1.1024
  134MOL   H11919005   0.714   0.600   1.599  0.9717 -0.0831  1.3055
  134MOL   H12019006   0.623   0.514   1.721 -0.0110 -1.6164  0.2332
  134MOL   C12119007   0.508   0.572   1.472 -0.2418  0.1120  0.0640
  134MOL   C12219008   0.407   0.530   1.368 -0.1500  0.4565 -0.3817
  134MOL   O12319009   0.389   0.615   1.260 -0.7158 -0.1910  0.2621
  134MOL   H12419010   0.458   0.634   1.545  0.2886  2.3268 -1.4058
  134MOL   H12519011   0.575   0.644   1.424 -0.6576 -0.5508 -1.5570
  134MOL   H12619012   0.312   0.514   1.417 -0.7058  1.2197 -1.1853
  134MOL   H12719013   0.422   0.430   1.328 -0.7624  1.5171 -3.4045
  134MOL   C12819014   0.290   0.563   1.165 -0.1738  0.0056 -0.1559
  134MOL   C12919015   0.204   0.683   1.121 -0.2545 -0.7631 -0.3816
  134MOL   O13019016   0.120   0.723   1.225  0.1952  0.4580  0.0526
  134MOL   H13119017   0.326   0.520   1.071  0.5272  1.1856 -0.4288
  134MOL   H13219018   0.224   0.494   1.218  0.8317 -0.5525  0.3843
  134MOL   H13319019   0.139   0.656   1.038  0.0667 -1.3229 -0.4559
  134MOL   H13419020   0.272   0.763   1.093 -0.0335 -0.8147  0.0123
  134MOL   C13519021   0.025   0.825   1.197  0.0207 -0.0539 -0.5129
  134MOL   C13619022   7.670   0.817   1.290 -0.4639  0.5351 -0.4048
  134MOL   O13719023   7.583   0.722   1.243  0.1666 -0.7112  0.5845
  134MOL   H13819024   0.076   0.921   1.195 -1.1292  0.5603 -0.9854
  134MOL   H13919025   7.759   0.832   1.095 -0.4351  3.5726 -0.1536
  134MOL   H14019026   7.626   0.916   1.294  0.2407  0.8959 -1.4451
  134MOL   H14119027   7.685   0.779   1.391  0.9340 -0.0620 -0.8242
  134MOL   H14219028   7.632   0.641   1.249  0.1404 -0.8556 -0.9836
  135MOL     C119029   0.177   7.692   3.481 -0.1858 -0.7286 -0.6896
  135MOL     C219030   0.038   7.762   3.452 -0.5738 -0.2467  0.1658
  135MOL     O319031   0.029   0.107   3.529 -0.5584  0.7252 -0.4694
  135MOL     H419032   0.260   7.750   3.442 -1.3671  1.7647  0.4385
  135MOL     H519033   0.192   7.599   3.425  1.3547 -0.5476 -0.5900
  135MOL     H619034   7.730   7.694   3.483 -0.0769 -1.3658 -0.9641
  135MOL     H719035   0.031   7.769   3.344  1.4580  1.4723  0.1332
  135MOL     H819036   0.190   7.679   3.589 -3.6450  0.8674 -0.0353
  135MOL     C919037   7.672   0.161   3.540  0.4992  1.2126  0.1924
  135MOL    C1019038   7.658   0.262   3.659  1.3489 -0.3632  0.5596
  135MOL    O1119039   7.667   0.205   3.786  0.7283 -0.3481 -0.2128
  135MOL    H1219040   7.663   0.209   3.442  2.2836  2.1402  0.4563
  135MOL    H1319041   7.600   0.083   3.563  1.4705 -0.0629 -1.0193
  135MOL    H1419042   7.561   0.311   3.654  2.6824  2.4092  1.2138
  135MOL    H1519043   7.727   0.346   3.652  1.3072 -0.3223  0.6388
  135MOL    C1619044   7.659   0.289   3.894  0.0215  0.0632 -0.3558
  135MOL    C1719045   7.707   0.207   4.010 -0.1078  0.2596 -0.7165
  135MOL    O1819046   0.077   0.190   4.022 -0.2097 -0.1348 -0.3118
  135MOL    H1919047   7.727   0.373   3.876 -1.5900  1.8301  1.6248
  135MOL    H2019048   7.560   0.332   3.906  0.2531  1.1181 -2.0271
  135MOL    H2119049   7.662   0.108   4.005 -1.5324  0.8781 -0.4108
  135MOL    H2219050   7.669   0.253   4.102 -0.6431 -0.7806 -0.4055
  135MOL    C2319051   0.139   0.095   3.938  0.5906 -0.7109 -0.5201
  135MOL    C2419052   0.266   0.038   3.990 -0.2961  0.0875  0.5099
  135MOL    O2519053   0.237   7.727   4.109  0.9812  1.0343  0.4398
  135MOL    H2619054   0.068   0.013   3.929  0.4867 -0.8756  1.5161
  135MOL    H2719055   0.155   0.153   3.847  1.1966  1.0541  0.6967
  135MOL    H2819056   0.342   0.115   4.001 -1.1557  0.9122  0.7363
  135MOL    H2919057   0.309   7.749   3.910  1.3631  0.4373  1.1086
  135MOL    C3019058   0.337   7.631   4.137 -0.4101  0.1182 -0.9771
  135MOL    C3119059   0.304   7.550   4.262 -0.0856 -0.0117 -0.0762
  135MOL    O3219060   0.359   7.604   4.388 -0.5366  0.1253  0.3880
  135MOL    H3319061   0.337   7.561   4.054 -1.2799 -0.1281 -0.7813
  135MOL    H3419062   0.428   7.688   4.157 -0.3478 -0.1589 -0.4554
  135MOL    H3519063   0.346   7.452   4.244  1.5636  0.5563  0.5888
  135MOL    H3619064   0.199   7.525   4.273 -0.1739  0.1507 -0.5123
  135MOL    C3719065   0.319   7.540   4.501  0.0951  0.6496 -0.2645
  135MOL    C3819066   0.409   7.577   4.612  0.0156 -0.2500 -1.5614
  135MOL    O3919067   0.536   7.502   4.607  0.0040 -0.1240  0.2214
  135MOL    H4019068   0.216   7.572   4.517 -0.0819  1.1003 -2.1833
  135MOL    H4119069   0.318   7.432   4.486  0.0657  0.8192 -1.5115
  135MOL    H4219070   0.368   7.561   4.712 -0.7106  2.5013 -1.3723
  135MOL    H4319071   0.434   7.683   4.600  0.2056 -0.4946 -3.3775
  135MOL    C4419072   0.623   7.504   4.495 -0.4631 -0.0651  0.2921
  135MOL    C4519073   0.753   7.456   4.545 -0.6605 -0.6499 -0.7191
  135MOL    O4619074   0.864   7.475   4.461  0.0053 -0.1712  0.3632
  135MOL    H4719075   0.571   7.455   4.413  0.7993 -1.4197  0.2902
  135MOL    H4819076   0.634   7.609   4.468  0.7613 -0.6436 -1.5228
  135MOL    H4919077   0.738   7.349   4.558  0.4123 -0.7158  0.0637
  135MOL    H5019078   0.777   7.498   4.642 -1.7253  0.4728 -0.9374
  135MOL    C5119079   0.930   7.360   4.407  0.2900 -0.4636 -0.7100
  135MOL    C5219080   1.056   7.400   4.331  0.6474 -0.0277  0.7174
  135MOL    O5319081   1.148   7.432   4.428  0.1745  0.4423  0.5644
  135MOL    H5419082   0.963   7.287   4.480  2.9172  1.6298  0.2796
  135MOL    H5519083   0.862   7.309   4.339  1.2260 -0.2381 -1.8445
  135MOL    H5619084   1.030   7.484   4.267 -0.9056 -0.7313  0.4066
  135MOL    H5719085   1.080   7.321   4.260 -1.8670 -0.1289 -0.0846
  135MOL    C5819086   1.238   7.530   4.394 -0.3219 -0.3260 -0.1805
  135MOL    C5919087   1.175   7.664   4.369  0.3971 -0.2633  0.3419
  135MOL    O6019088   1.142   7.687   4.233  0.0082 -0.2628 -0.0322
  135MOL    H6119089   1.305   7.535   4.480 -0.7081 -0.9104  0.1576
  135MOL    H6219090   1.309   7.498   4.317 -1.4554 -0.2328 -1.2830
  135MOL    H6319091   1.234   7.744   4.414  1.0337 -0.1284 -0.7118
  135MOL    H6419092   1.083   7.663   4.428 -0.3226  2.8549 -0.6156
  135MOL    C6519093   1.037   0.014   4.216 -0.0310  0.8194  0.1695
  135MOL    C6619094   0.890   7.741   4.226  0.2497  0.0350 -0.0048
  135MOL    O6719095   0.828   0.035   4.123  0.4070  0.5101 -0.1950
  135MOL    H6819096   1.047   0.105   4.276  0.2397  0.3457  0.8428
  135MOL    H6919097   1.052   0.046   4.112  0.1077  1.6563  0.4409
  135MOL    H7019098   0.851   7.755   4.327  0.2336  0.4237 -0.0657
  135MOL    H7119099   0.880   7.633   4.211 -3.9018  0.1316  1.5604
  135MOL    C7219100   0.682   0.025   4.139 -0.1784  0.3533  0.6153
  135MOL    C7319101   0.627   0.157   4.192  0.1109 -0.5275 -0.3643
  135MOL    O7419102   0.643   0.156   4.334  0.5607 -0.1337 -0.2970
  135MOL    H7519103   0.642   0.007   4.039 -0.4627 -1.7298  1.0820
  135MOL    H7619104   0.650   7.709   4.195 -0.5778 -1.1014 -1.8271
  135MOL    H7719105   0.522   0.167   4.164  0.2836  0.6088 -0.6524
  135MOL    H7819106   0.674   0.246   4.150  2.7548 -1.8957 -0.3628
  135MOL    C7919107   0.538   0.224   4.397  0.4582 -0.4290  0.2404
  135MOL    C8019108   0.542   0.202   4.547 -0.0618  1.0074  0.4634
  135MOL    O8119109   0.663   0.244   4.603  0.0925 -0.1484  0.3500
  135MOL    H8219110   0.543   0.325   4.357 -1.1900 -0.8716 -1.1702
  135MOL    H8319111   0.445   0.184   4.355  0.6361 -2.5377  1.7526
  135MOL    H8419112   0.533   0.094   4.560  1.2706  0.7960 -0.2571
  135MOL    H8519113   0.464   0.265   4.588 -1.6211  0.6372 -1.8290
  135MOL    C8619114   0.657   0.288   4.732 -0.1860  0.1151  0.4783
  135MOL    C8719115   0.796   0.333   4.788  0.0331  0.1672  0.0598
  135MOL    O8819116   0.796   0.370   4.923  0.1968  0.0614 -0.2775
  135MOL    H8919117   0.581   0.365   4.747 -2.4195 -2.0279  0.3901
  135MOL    H9019118   0.630   0.207   4.800 -0.2741 -0.4387 -0.2166
  135MOL    H9119119   0.839   0.419   4.735  1.1211  0.1297  0.8684
  135MOL    H9219120   0.862   0.248   4.772 -0.9521 -1.0029  2.1356
  135MOL    C9319121   0.923   0.391   4.975 -0.4365  0.1001 -0.0911
  135MOL    C9419122   0.923   0.454   5.120  0.0783 -0.2624  0.1172
  135MOL    O9519123   0.897   0.350   5.219 -0.3369  0.2703 -0.0004
  135MOL    H9619124   0.969   0.292   4.977 -1.2598 -0.2983 -0.7352
  135MOL    H9719125   0.997   0.441   4.914 -0.9403  0.1416 -0.6664
  135MOL    H9819126   0.857   0.540   5.135  0.6710 -0.1905  2.4623
  135MOL    H9919127   1.022   0.497   5.136  0.4768 -0.9377 -0.4920
  135MOL   C10019128   0.875   0.397   5.348  0.0320  0.3509  0.0522
  135MOL   C10119129   1.001   0.468   5.408 -0.1116 -0.3368 -0.2644
  135MOL   O10219130   1.011   0.598   5.359  0.1563 -0.0448 -0.1166
  135MOL   H10319131   0.784   0.458   5.348 -1.4879 -1.8315  0.6322
  135MOL   H10419132   0.851   0.313   5.414 -1.3110  0.0458 -0.8108
  135MOL   H10519133   1.091   0.422   5.369 -0.0718 -0.5406  0.0678
  135MOL   H10619134   0.999   0.458   5.516 -0.2589  0.2045 -0.2196
  135MOL   C10719135   1.102   0.683   5.431  0.0453  0.2885  0.7821
  135MOL   C10819136   1.245   0.674   5.388  0.0317 -0.1680  0.4575
  135MOL   O10919137   1.313   0.576   5.459 -0.3075 -0.5718  0.1333
  135MOL   H11019138   1.069   0.786   5.418  0.1883 -0.0149 -2.1362
  135MOL   H11119139   1.084   0.667   5.538  2.1816  0.6654  1.2224
  135MOL   H11219140   1.297   0.766   5.413 -0.3409  0.1981 -0.1244
  135MOL   H11319141   1.242   0.663   5.280 -3.1679  1.2445  0.3395
  135MOL   C11419142   1.456   0.578   5.423 -0.3145  0.2575  0.3501
  135MOL   C11519143   1.538   0.503   5.529 -0.2553 -0.5152  0.3146
  135MOL   O11619144   1.489   0.365   5.543 -0.8917  0.1260  0.1832
  135MOL   H11719145   1.484   0.537   5.326 -0.4110 -1.5743  1.0834
  135MOL   H11819146   1.492   0.681   5.420  0.4832 -0.0521 -1.1676
  135MOL   H11919147   1.550   0.556   5.623 -0.1532 -1.6365  0.9488
  135MOL   H12019148   1.638   0.500   5.485 -1.4118 -2.5534 -2.3076
  135MOL   C12119149   1.437   0.327   5.668  0.6570  0.4342 -0.3527
  135MOL   C12219150   1.460   0.175   5.684  0.0552 -0.3061  0.0710
  135MOL   O12319151   1.437   0.131   5.818  0.1430 -0.4257 -0.2258
  135MOL   H12419152   1.495   0.368   5.751  2.8244 -1.8135 -0.7014
  135MOL   H12519153   1.330   0.344   5.680  0.6842  1.9036 -2.0015
  135MOL   H12619154   1.566   0.160   5.662  0.1412  0.8445 -0.3485
  135MOL   H12719155   1.395   0.123   5.614  0.6408  0.2944 -0.9360
  135MOL   C12819156   1.481   7.763   5.828 -0.1726  0.2695  0.4942
  135MOL   C12919157   1.450   7.702   5.961 -0.1771  0.3746 -0.7119
  135MOL   O13019158   1.319   7.654   5.966  0.4013  0.1788  0.4565
  135MOL   H13119159   1.441   7.705   5.744  2.2136  0.1313 -0.5844
  135MOL   H13219160   1.589   0.000   5.816 -0.2759  2.2056  0.7469
  135MOL   H13319161   1.461   0.000   6.044 -0.3619  0.5918 -0.8654
  135MOL   H13419162   1.515   7.617   5.979 -0.0695  0.5063 -0.4782
  135MOL   C13519163   1.290   7.558   6.071 -0.1671  0.1483 -0.4289
  135MOL   C13619164   1.151   7.506   6.064  0.5553 -0.0961  0.1790
  135MOL   O13719165   1.145   7.402   5.973 -0.0946  0.2601 -0.3036
  135MOL   H13819166   1.358   7.474   6.078 -0.8297 -0.1854  2.1655
  135MOL   H13919167   1.303   7.614   6.164  2.0659 -1.9026  0.5530
  135MOL   H14019168   1.076   7.583   6.048  0.9072  0.1247 -0.4308
  135MOL   H14119169   1.121   7.466   6.161  1.0480 -1.2416 -0.1296
  135MOL   H14219170   1.205   7.437   5.909 -1.2701  1.6823 -0.6456
  136MOL     C119171   7.512   3.227   5.026  0.0829 -0.4851 -0.2665
  136MOL     C219172   7.587   3.135   4.937  0.3768  0.1653 -0.2687
  136MOL     O319173   7.577   3.003   4.976  0.0256 -0.3644 -0.7302
  136MOL     H419174   7.513   3.331   4.992 -0.6203  0.1624  1.6709
  136MOL     H519175   7.560   3.229   5.123 -1.4671  1.6673  0.4990
  136MOL     H619176   7.689   3.173   4.937  0.6952 -0.6742  0.4077
  136MOL     H719177   7.538   3.147   4.840  0.0952  1.6014  0.0411
  136MOL     H819178   7.411   3.186   5.024  0.3445 -1.1023 -1.2117
  136MOL     C919179   7.662   2.926   4.900 -0.1251 -0.0863 -0.0972
  136MOL    C1019180   7.627   2.780   4.953  0.8939  0.9603  0.9701
  136MOL    O1119181   7.506   2.732   4.889  0.3040 -0.1660  0.0854
  136MOL    H1219182   7.648   2.929   4.792  1.3564 -0.3775 -0.3106
  136MOL    H1319183   7.767   2.948   4.919 -0.0814  0.2709 -0.7392
  136MOL    H1419184   7.628   2.773   5.062  1.6955 -0.9357  0.8618
  136MOL    H1519185   7.709   2.711   4.932 -0.4100 -0.1898 -0.4257
  136MOL    C1619186   7.494   2.582   4.908 -0.2404  0.1594  0.1307
  136MOL    C1719187   7.464   2.550   5.056  0.5472  0.0225 -0.1061
  136MOL    O1819188   7.588   2.520   5.121  0.4364 -0.0460 -0.7150
  136MOL    H1919189   7.407   2.551   4.852 -0.9253  2.1056  0.0656
  136MOL    H2019190   7.580   2.530   4.866  0.6344  2.4725 -1.0300
  136MOL    H2119191   7.396   2.466   5.068  1.6695 -0.7194  1.1316
  136MOL    H2219192   7.412   2.636   5.099  2.0136  1.2347 -0.7166
  136MOL    C2319193   7.576   2.524   5.262  0.3720 -0.6776 -0.7882
  136MOL    C2419194   7.720   2.481   5.314  0.3280 -0.0276 -0.3870
  136MOL    O2519195   7.726   2.339   5.310 -0.4554 -0.7636  0.3177
  136MOL    H2619196   7.553   2.626   5.292 -3.5458 -0.7078 -3.2552
  136MOL    H2719197   7.495   2.465   5.305 -1.5896  1.5575 -1.3237
  136MOL    H2819198   7.740   2.519   5.414 -1.5196  0.8464 -0.3414
  136MOL    H2919199   0.030   2.523   5.253  1.0537 -1.5098 -0.4648
  136MOL    C3019200   0.063   2.286   5.382  0.4949 -0.2351  0.6641
  136MOL    C3119201   0.087   2.138   5.359 -1.0552  0.5973 -0.1479
  136MOL    O3219202   0.190   2.115   5.267 -0.1974 -0.3494  0.0197
  136MOL    H3319203   0.152   2.346   5.362  0.6382  0.0621  2.1330
  136MOL    H3419204   0.047   2.291   5.489 -2.4884 -1.8809  0.3532
  136MOL    H3519205   7.766   2.087   5.331  0.2987 -1.8056 -0.3644
  136MOL    H3619206   0.112   2.099   5.458 -2.9438  0.8556  0.4461
  136MOL    C3719207   0.148   2.118   5.128  0.2679  0.2162 -0.5068
  136MOL    C3819208   0.278   2.110   5.045 -0.3359 -0.3617 -0.0011
  136MOL    O3919209   0.331   1.977   5.038 -0.4858 -0.2094  0.1049
  136MOL    H4019210   0.077   2.037   5.111  0.3287  0.2660 -1.0195
  136MOL    H4119211   0.104   2.217   5.116  0.3946  0.3710  0.2787
  136MOL    H4219212   0.358   2.172   5.086 -0.5208  0.2970 -0.6298
  136MOL    H4319213   0.267   2.138   4.940 -1.2826 -0.2778  0.1165
  136MOL    C4419214   0.405   1.925   5.151  0.3063  0.2259 -0.4792
  136MOL    C4519215   0.505   1.812   5.111 -1.2149  0.1543  0.0296
  136MOL    O4619216   0.435   1.697   5.107 -0.1472 -0.3774  0.3977
  136MOL    H4719217   0.460   1.996   5.213 -1.4074  0.3733  0.9195
  136MOL    H4819218   0.329   1.895   5.224 -0.2762  0.4357 -0.9927
  136MOL    H4919219   0.581   1.807   5.189  0.4105  1.2260 -1.4297
  136MOL    H5019220   0.538   1.833   5.009  0.2653 -0.9408  0.2779
  136MOL    C5119221   0.516   1.586   5.060  0.2203  0.0376  0.9472
  136MOL    C5219222   0.473   1.446   5.096 -0.2682  0.7972  0.2330
  136MOL    O5319223   0.529   1.410   5.225  0.6563  1.0180  0.4329
  136MOL    H5419224   0.519   1.591   4.951 -0.1352 -1.8591  0.8239
  136MOL    H5519225   0.618   1.606   5.092  0.7096 -1.2250  0.2185
  136MOL    H5619226   0.509   1.382   5.016  2.6215  0.4317  1.7374
  136MOL    H5719227   0.365   1.434   5.091 -0.4704  2.5826 -0.0860
  136MOL    C5819228   0.545   1.266   5.229  0.0453  0.1129  0.6315
  136MOL    C5919229   0.649   1.234   5.333 -0.4766  0.0853  0.3697
  136MOL    O6019230   0.598   1.229   5.471 -0.0559  0.1654  0.4353
  136MOL    H6119231   0.454   1.209   5.242  1.1098 -1.2294  2.4076
  136MOL    H6219232   0.597   1.231   5.139  0.1618  0.9869  0.3585
  136MOL    H6319233   0.724   1.313   5.331  0.9040 -1.1394  1.4785
  136MOL    H6419234   0.688   1.133   5.314 -1.5126 -0.2584  0.0248
  136MOL    C6519235   0.700   1.251   5.565  0.0217 -0.6110 -0.0474
  136MOL    C6619236   0.641   1.257   5.709 -0.1357  0.9635 -0.5094
  136MOL    O6719237   0.582   1.135   5.739 -0.4280 -0.3007 -0.1239
  136MOL    H6819238   0.786   1.184   5.557  1.8632  1.7353 -0.6789
  136MOL    H6919239   0.741   1.351   5.549 -0.7537 -0.2472  0.2549
  136MOL    H7019240   0.565   1.334   5.720 -1.7726 -0.2360 -3.1538
  136MOL    H7119241   0.718   1.286   5.781  0.1125  2.2019 -1.2580
  136MOL    C7219242   0.541   1.132   5.873  0.2383 -0.2389 -0.7686
  136MOL    C7319243   0.505   0.987   5.901  0.4913  0.2061 -0.1026
  136MOL    O7419244   0.388   0.953   5.826  0.0987  0.4089  0.1449
  136MOL    H7519245   0.622   1.161   5.939  1.4237  2.1300 -3.1337
  136MOL    H7619246   0.463   1.206   5.894  1.1096  0.8403 -1.2601
  136MOL    H7719247   0.482   0.977   6.007  1.8149  0.2663  0.1958
  136MOL    H7819248   0.589   0.921   5.880 -0.4436 -1.4928  1.3297
  136MOL    C7919249   0.372   0.815   5.806 -0.0737  0.9159 -0.1374
  136MOL    C8019250   0.233   0.791   5.743  0.3438 -0.2610  0.0615
  136MOL    O8119251   0.208   0.654   5.704  0.0425 -0.0939 -0.2013
  136MOL    H8219252   0.457   0.772   5.753 -0.8732 -0.1531 -0.5528
  136MOL    H8319253   0.369   0.759   5.900 -2.3259 -0.8256 -1.2082
  136MOL    H8419254   0.231   0.858   5.656  0.1638  0.2361  0.4475
  136MOL    H8519255   0.156   0.827   5.811  0.5193 -1.3774  0.8639
  136MOL    C8619256   0.250   0.627   5.570 -0.4583  0.3788  0.6590
  136MOL    C8719257   0.201   0.494   5.531  0.1219  0.1970  0.4529
  136MOL    O8819258   0.062   0.485   5.520 -0.3900 -0.0746 -0.1563
  136MOL    H8919259   0.211   0.698   5.497  0.5214 -0.6573 -0.9162
  136MOL    H9019260   0.358   0.641   5.566 -0.0828 -2.0217  1.4934
  136MOL    H9119261   0.232   0.420   5.604 -2.4137 -0.1775  1.2127
  136MOL    H9219262   0.240   0.472   5.432 -0.5738 -0.9789  0.4233
  136MOL    C9319263   0.004   0.357   5.512  0.0523  0.1132  0.0493
  136MOL    C9419264   7.622   0.368   5.528 -0.1933 -0.0360 -0.0299
  136MOL    O9519265   7.553   0.419   5.416 -0.6639 -0.2218 -0.5216
  136MOL    H9619266   0.038   0.327   5.412  0.9239 -1.7749  0.8868
  136MOL    H9719267   0.047   0.281   5.577 -0.8838 -0.3761  0.0984
  136MOL    H9819268   7.600   0.428   5.617 -0.8376 -0.0515 -0.1775
  136MOL    H9919269   7.580   0.269   5.545 -0.0641 -0.0465  0.2362
  136MOL   C10019270   7.532   0.560   5.420  0.0007  0.5745  0.1813
  136MOL   C10119271   7.630   0.640   5.336 -0.4677 -0.0977  0.4168
  136MOL   O10219272   7.571   0.729   5.235 -0.4871 -0.0837  0.5581
  136MOL   H10319273   7.428   0.581   5.398  0.4047  1.9320 -0.5309
  136MOL   H10419274   7.547   0.606   5.518  1.5371  0.3534  0.0720
  136MOL   H10519275   7.691   0.573   5.276  0.8901  1.1643  0.3563
  136MOL   H10619276   7.692   0.685   5.414  1.5929 -0.3009 -1.0984
  136MOL   C10719277   7.501   0.676   5.123 -0.1382 -0.4486  0.2751
  136MOL   C10819278   7.430   0.792   5.038  0.1623  0.6060  0.0072
  136MOL   O10919279   7.515   0.873   4.955 -0.6554  0.4260 -0.2457
  136MOL   H11019280   7.578   0.622   5.067  0.0595  1.6716 -1.5720
  136MOL   H11119281   7.422   0.608   5.153 -0.8225 -0.1241 -0.7750
  136MOL   H11219282   7.365   0.846   5.105 -0.9602 -0.7733  0.0564
  136MOL   H11319283   7.360   0.744   4.969 -1.7707  0.8569  1.7661
  136MOL   C11419284   7.611   0.950   5.021  0.3396 -0.2568 -0.7967
  136MOL   C11519285   7.534   1.081   5.070 -0.0842  0.1982 -0.5739
  136MOL   O11619286   7.624   1.174   5.121  0.1066  0.1461  1.2679
  136MOL   H11719287   7.659   0.897   5.104  1.0419  1.9150  0.2311
  136MOL   H11819288   7.691   0.980   4.953  0.4351 -1.0207 -1.0325
  136MOL   H11919289   7.458   1.047   5.141 -1.2000  0.4734 -1.6225
  136MOL   H12019290   7.485   1.124   4.983  0.7595  2.5198  0.0847
  136MOL   C12119291   7.582   1.277   5.211  0.5163  0.4846  0.0935
  136MOL   C12219292   7.705   1.365   5.243 -0.0021  0.3327  0.2827
  136MOL   O12319293   0.021   1.306   5.332 -0.4158  0.0479  0.1273
  136MOL   H12419294   7.501   1.337   5.169 -0.7422 -3.5220 -3.5479
  136MOL   H12519295   7.549   1.229   5.304 -1.3485 -0.7959 -1.1874
  136MOL   H12619296   7.679   1.463   5.284 -1.1185 -0.4198  1.4083
  136MOL   H12719297   7.758   1.377   5.148 -1.7943  1.7392 -0.5699
  136MOL   C12819298   0.146   1.377   5.348 -0.7950  0.0350  0.4223
  136MOL   C12919299   0.240   1.327   5.461  0.3644  0.0723 -0.0780
  136MOL   O13019300   0.185   1.371   5.582 -0.2593  0.1199 -0.3333
  136MOL   H13119301   0.200   1.378   5.254 -1.5435  0.4299 -0.0044
  136MOL   H13219302   0.119   1.482   5.362 -1.9378 -0.2730  0.5484
  136MOL   H13319303   0.343   1.364   5.465  1.7294 -3.4820 -0.2205
  136MOL   H13419304   0.256   1.219   5.460 -2.0866 -0.3104  0.0383
  136MOL   C13519305   0.255   1.346   5.702 -0.2275  0.4336  0.1982
  136MOL   C13619306   0.171   1.355   5.824 -0.4235 -0.9563 -0.1519
  136MOL   O13719307   0.253   1.373   5.940 -0.2955 -0.4473  0.5253
  136MOL   H13819308   0.275   1.239   5.700  0.0070  0.4662  0.7589
  136MOL   H13919309   0.345   1.407   5.706 -1.2912  1.9877  1.0681
  136MOL   H14019310   0.105   1.270   5.842 -1.9035 -0.4539 -3.0418
  136MOL   H14119311   0.100   1.438   5.820 -0.1157 -0.6710  0.2436
  136MOL   H14219312   0.299   1.454   5.930 -1.7275  0.8035  3.3957
  137MOL     C119313   5.496   4.271   3.558  0.0332  0.1672  0.1949
  137MOL     C219314   5.544   4.404   3.512 -0.6130 -0.1164 -0.1757
  137MOL     O319315   5.433   4.469   3.459  0.6254 -0.2497 -0.7985
  137MOL     H419316   5.572   4.221   3.619 -0.4998 -0.7363  0.1256
  137MOL     H519317   5.464   4.216   3.470 -2.0416  1.2989  0.2071
  137MOL     H619318   5.623   4.392   3.438 -0.0790  0.6415  0.2737
  137MOL     H719319   5.585   4.461   3.595  0.0769  0.8909 -1.2031
  137MOL     H819320   5.408   4.296   3.617 -1.5658 -1.7198 -1.3548
  137MOL     C919321   5.463   4.596   3.403  0.0973 -0.2255 -0.1946
  137MOL    C1019322   5.348   4.664   3.331 -0.0565  0.0112  0.0816
  137MOL    O1119323   5.280   4.732   3.434 -0.6696 -0.4809  0.2397
  137MOL    H1219324   5.509   4.664   3.474 -2.3358  0.8138  0.4366
  137MOL    H1319325   5.546   4.584   3.333 -0.3721 -1.6933 -0.5294
  137MOL    H1419326   5.291   4.585   3.282  0.1357 -0.7061  1.0033
  137MOL    H1519327   5.385   4.736   3.257 -1.2226  1.1431  0.5814
  137MOL    C1619328   5.141   4.754   3.420 -0.1865  0.7627  0.5714
  137MOL    C1719329   5.098   4.782   3.563  0.0678 -0.0826  0.1462
  137MOL    O1819330   5.073   4.673   3.650  0.2578  1.0947 -0.0230
  137MOL    H1919331   5.127   4.836   3.350  1.6403  1.1611  0.6363
  137MOL    H2019332   5.104   4.660   3.379  0.3637  0.0066  1.7994
  137MOL    H2119333   5.001   4.831   3.553  0.5319  0.8804  0.2888
  137MOL    H2219334   5.154   4.857   3.618 -0.0746  0.1053  0.0391
  137MOL    C2319335   5.183   4.577   3.665 -1.2610 -0.0233  0.0610
  137MOL    C2419336   5.139   4.463   3.756  0.0904  0.3897  0.0859
  137MOL    O2519337   5.148   4.515   3.889 -0.2621  0.2922  0.2210
  137MOL    H2619338   5.218   4.529   3.573  0.8964  1.2561  0.1622
  137MOL    H2719339   5.265   4.633   3.711 -1.2256 -0.1429  0.1409
  137MOL    H2819340   5.202   4.375   3.754 -1.8240 -0.9635 -2.7283
  137MOL    H2919341   5.041   4.421   3.734 -0.4199  1.3401  0.4857
  137MOL    C3019342   5.076   4.437   3.986  0.6767  0.4510 -0.5929
  137MOL    C3119343   5.132   4.464   4.130  0.4841 -0.1652  0.1832
  137MOL    O3219344   5.086   4.586   4.193  0.4110 -0.7614 -0.1602
  137MOL    H3319345   4.969   4.452   3.976  0.9759  2.0786 -1.4433
  137MOL    H3419346   5.090   4.329   3.974  2.0682  0.1607  2.9153
  137MOL    H3519347   5.240   4.451   4.136  0.2288 -1.7799  1.7325
  137MOL    H3619348   5.104   4.377   4.190  1.3514 -0.0948  0.6935
  137MOL    C3719349   5.111   4.709   4.127 -0.4656  0.5592 -0.9139
  137MOL    C3819350   5.098   4.827   4.224  1.0870 -0.5210  0.0256
  137MOL    O3919351   5.180   4.929   4.177 -0.1167  0.2014  0.1143
  137MOL    H4019352   5.213   4.723   4.093 -0.3449  1.0669 -0.3559
  137MOL    H4119353   5.053   4.726   4.036  0.9522 -0.0761 -1.9580
  137MOL    H4219354   5.135   4.805   4.324  1.0556 -3.4517 -0.5587
  137MOL    H4319355   4.995   4.846   4.254  0.6662 -1.8843 -0.5210
  137MOL    C4419356   5.110   5.056   4.174 -0.2184  0.0534  0.1715
  137MOL    C4519357   4.996   5.073   4.072 -0.1203  0.7409  0.8073
  137MOL    O4619358   4.870   5.019   4.114  0.2977 -0.4494 -0.5477
  137MOL    H4719359   5.078   5.066   4.278 -0.6885 -0.3628  0.0707
  137MOL    H4819360   5.186   5.133   4.163  1.6155 -1.9180 -1.3085
  137MOL    H4919361   5.026   5.025   3.979  1.9331 -0.4645  2.0478
  137MOL    H5019362   4.980   5.178   4.045  2.8823  1.2601  0.7646
  137MOL    C5119363   4.795   5.098   4.203 -0.0603 -0.4221 -0.2939
  137MOL    C5219364   4.687   5.018   4.280 -0.0011  0.1996  0.1048
  137MOL    O5319365   4.744   4.904   4.340 -0.0471  0.5736  0.2479
  137MOL    H5419366   4.860   5.139   4.281 -2.0005  2.4890 -0.1393
  137MOL    H5519367   4.759   5.184   4.148 -0.0471 -0.0572  0.2570
  137MOL    H5619368   4.611   4.989   4.207 -0.1850 -1.7601  1.0444
  137MOL    H5719369   4.621   5.073   4.347 -2.0164 -1.5511 -0.3664
  137MOL    C5819370   4.715   4.790   4.263  0.4457 -0.2377  0.6116
  137MOL    C5919371   4.727   4.668   4.352  0.1180 -0.5231 -0.7555
  137MOL    O6019372   4.623   4.669   4.452  0.3935  0.1024  0.0656
  137MOL    H6119373   4.615   4.779   4.221 -0.5233  0.2218  2.7191
  137MOL    H6219374   4.774   4.783   4.172  0.5618  0.6258  0.6197
  137MOL    H6319375   4.822   4.664   4.404 -0.4837  2.2501  0.6219
  137MOL    H6419376   4.709   4.574   4.298 -2.2401  0.4734 -1.7926
  137MOL    C6519377   4.627   4.550   4.532 -0.7862  0.1869  0.4640
  137MOL    C6619378   4.487   4.526   4.587  0.0257 -0.3915 -0.4350
  137MOL    O6719379   4.462   4.624   4.688 -0.0507  0.2723 -0.5454
  137MOL    H6819380   4.660   4.459   4.481 -0.3268  1.7695 -2.1508
  137MOL    H6919381   4.685   4.562   4.624 -0.4057 -0.2684  0.2850
  137MOL    H7019382   4.497   4.423   4.621 -0.5313 -0.3498 -0.1476
  137MOL    H7119383   4.416   4.542   4.507  0.0171  0.4832 -0.2590
  137MOL    C7219384   4.347   4.601   4.767  0.2390  0.1056  0.3475
  137MOL    C7319385   4.212   4.610   4.687  0.0071  0.3345 -0.0735
  137MOL    O7419386   4.185   4.485   4.633 -0.4444  0.5993 -0.0808
  137MOL    H7519387   4.353   4.505   4.817  0.5862 -0.8113 -1.3902
  137MOL    H7619388   4.348   4.677   4.845 -0.8790 -0.8764  1.3284
  137MOL    H7719389   4.212   4.684   4.607 -1.3722  0.5979  0.1593
  137MOL    H7819390   4.129   4.632   4.755 -0.4996  0.9702 -0.8906
  137MOL    C7919391   4.078   4.477   4.542 -1.3257 -0.0647  0.1196
  137MOL    C8019392   4.039   4.333   4.508 -0.1328 -0.2190  0.2691
  137MOL    O8119393   4.114   4.267   4.405 -0.0945 -0.1768  0.1387
  137MOL    H8219394   3.997   4.530   4.591 -1.6309  0.9329 -1.4088
  137MOL    H8319395   4.102   4.532   4.451 -0.1368  3.9124  2.6975
  137MOL    H8419396   3.932   4.321   4.488 -0.0724  1.0349 -0.8779
  137MOL    H8519397   4.067   4.267   4.590  1.7854  2.1009  1.5513
  137MOL    C8619398   4.252   4.233   4.438 -0.7560  0.5738  0.4392
  137MOL    C8719399   4.269   4.084   4.401  0.0847  0.5243 -0.3643
  137MOL    O8819400   4.378   4.057   4.320 -0.0018  0.0364  0.1438
  137MOL    H8919401   4.312   4.296   4.372 -3.0722  1.9526 -0.4239
  137MOL    H9019402   4.277   4.250   4.542  1.7249 -0.0125 -0.0248
  137MOL    H9119403   4.195   4.029   4.342 -1.3791  0.1832  1.7148
  137MOL    H9219404   4.293   4.026   4.490  1.4539  1.2296 -0.2661
  137MOL    C9319405   4.378   4.119   4.186 -0.3934  0.7432  0.9063
  137MOL    C9419406   4.509   4.082   4.119  0.4407 -0.6728  0.4214
  137MOL    O9519407   4.622   4.155   4.170 -0.3218 -0.1811  0.5847
  137MOL    H9619408   4.294   4.087   4.125 -0.0491 -0.5598  1.0939
  137MOL    H9719409   4.365   4.227   4.185  1.4886  1.0431  3.4373
  137MOL    H9819410   4.499   4.100   4.012  0.3635  0.2861  0.5904
  137MOL    H9919411   4.520   3.973   4.126  1.2340 -0.5299  1.3426
  137MOL   C10019412   4.743   4.076   4.176  0.3084 -0.8047 -0.6836
  137MOL   C10119413   4.808   4.093   4.038 -0.1239  0.3856  0.7923
  137MOL   O10219414   4.740   4.014   3.940  0.4015  0.5395  0.5128
  137MOL   H10319415   4.800   4.115   4.260  0.3637 -2.8806  0.2649
  137MOL   H10419416   4.719   3.972   4.200  2.6349 -0.3534  4.0663
  137MOL   H10519417   4.915   4.077   4.046  0.1039  1.3744 -0.1134
  137MOL   H10619418   4.791   4.198   4.015 -0.8611 -0.0989 -0.9743
  137MOL   C10719419   4.791   4.032   3.815  0.0495 -0.2030 -0.7483
  137MOL   C10819420   4.931   3.966   3.800 -0.0150 -0.2258 -0.0838
  137MOL   O10919421   5.021   4.075   3.772 -0.0904 -0.1652 -0.0542
  137MOL   H11019422   4.726   3.972   3.751 -0.1114  1.3824 -2.0886
  137MOL   H11119423   4.782   4.134   3.779 -0.1135  0.0992  0.1490
  137MOL   H11219424   4.940   3.895   3.718  0.7689 -1.0719  0.7190
  137MOL   H11319425   4.962   3.913   3.890 -1.6591 -0.8506  0.1369
  137MOL   C11419426   5.152   4.040   3.728 -0.0857 -0.1815 -0.2906
  137MOL   C11519427   5.220   3.938   3.816  0.0683 -0.2538  0.6972
  137MOL   O11619428   5.186   3.809   3.772 -0.9549  0.5869 -0.4521
  137MOL   H11719429   5.148   4.005   3.625  1.1994 -1.6248  0.1395
  137MOL   H11819430   5.223   4.123   3.728  0.6941 -0.8350 -2.5928
  137MOL   H11919431   5.198   3.954   3.921  2.2459 -0.5782  1.2282
  137MOL   H12019432   5.329   3.941   3.809 -0.0364  0.8507 -0.6384
  137MOL   C12119433   5.219   3.712   3.875 -0.6458  0.1519 -0.0747
  137MOL   C12219434   5.127   3.586   3.853  0.4898 -0.4704  0.3229
  137MOL   O12319435   5.163   3.492   3.951 -0.6355  1.0358 -0.5583
  137MOL   H12419436   5.320   3.675   3.860 -0.2003  1.2637  0.0976
  137MOL   H12519437   5.202   3.751   3.976 -2.4455 -1.5456  0.3158
  137MOL   H12619438   5.147   3.541   3.755  1.3346 -1.2702  0.8490
  137MOL   H12719439   5.025   3.623   3.861  0.7150  0.1696  0.3028
  137MOL   C12819440   5.081   3.369   3.943 -0.0402  0.4936  0.2622
  137MOL   C12919441   4.938   3.382   3.996  0.9950  0.0069 -0.0958
  137MOL   O13019442   4.859   3.460   3.907 -0.9682  0.3988  0.3285
  137MOL   H13119443   5.076   3.322   3.845  1.2395  1.1726 -0.1489
  137MOL   H13219444   5.135   3.293   3.999 -1.4406  0.2961  1.3607
  137MOL   H13319445   4.947   3.427   4.095  0.8411  0.4613 -0.2851
  137MOL   H13419446   4.886   3.287   4.011  2.0035 -0.1183  2.8847
  137MOL   C13519447   4.761   3.521   3.987 -0.0903 -0.1813 -0.6390
  137MOL   C13619448   4.687   3.603   3.876  0.1715 -0.2156 -0.4424
  137MOL   O13719449   4.572   3.673   3.943 -0.4476  0.0017  0.5336
  137MOL   H13819450   4.683   3.467   4.040  0.3728 -0.0655  0.1603
  137MOL   H13919451   4.812   3.597   4.047  1.7569 -0.5548 -1.7025
  137MOL   H14019452   4.645   3.540   3.797  1.2509  0.1076 -1.2832
  137MOL   H14119453   4.753   3.677   3.831  2.5558 -1.2403  1.3056
  137MOL   H14219454   4.596   3.757   3.980 -1.3859  1.2839 -1.6869
  138MOL     C119455   4.689   6.161   6.934 -0.7464 -0.0620  0.9404
  138MOL     C219456   4.772   6.148   7.068 -0.3455 -0.9430 -0.2728
  138MOL     O319457   4.886   6.223   7.051  0.4512 -0.1568 -0.0443
  138MOL     H419458   4.752   6.113   6.859  1.5075  1.9926  1.4642
  138MOL     H519459   4.672   6.261   6.896  0.1396 -0.5754 -0.8727
  138MOL     H619460   4.792   6.043   7.090  1.3852 -0.6508 -0.3956
  138MOL     H719461   4.709   6.194   7.144  2.8539  2.3524  0.5514
  138MOL     H819462   4.595   6.107   6.931 -2.0840  2.2669  0.1682
  138MOL     C919463   4.958   6.217   7.168 -0.1453  0.5482 -0.6389
  138MOL    C1019464   5.099   6.276   7.134  0.1216 -0.0157  0.6130
  138MOL    O1119465   5.188   6.184   7.065 -0.3705 -0.6724 -0.5210
  138MOL    H1219466   4.906   6.276   7.243 -0.1079  1.0409 -1.0044
  138MOL    H1319467   4.975   6.118   7.210  1.7793  0.2631 -2.0027
  138MOL    H1419468   5.144   6.306   7.229 -0.9997 -1.4805  1.6282
  138MOL    H1519469   5.088   6.365   7.072 -0.5291 -0.0120  0.7367
  138MOL    C1619470   5.322   6.227   7.057  0.0635 -0.1160  0.4523
  138MOL    C1719471   5.392   6.121   6.972 -0.3825 -0.0714  0.9563
  138MOL    O1819472   5.415   6.008   7.048  0.4798  0.4633 -0.2847
  138MOL    H1919473   5.323   6.322   7.004 -2.8839  0.3133  1.0828
  138MOL    H2019474   5.375   6.242   7.152  2.9504 -0.7356 -0.9963
  138MOL    H2119475   5.484   6.172   6.946 -1.4464  2.0428  1.2013
  138MOL    H2219476   5.337   6.091   6.883  3.2091 -0.7668 -1.0841
  138MOL    C2319477   5.496   5.906   6.989 -0.2958  0.7688 -0.0381
  138MOL    C2419478   5.424   5.813   6.899  0.2883 -0.3271  0.3449
  138MOL    O2519479   5.515   5.722   6.847  0.2643 -0.2579  0.2229
  138MOL    H2619480   5.593   5.945   6.959 -0.2275  0.2014 -0.5715
  138MOL    H2719481   5.532   5.843   7.070 -0.7327 -1.5745 -1.6212
  138MOL    H2819482   5.377   5.861   6.812  1.8247 -2.0082 -1.4717
  138MOL    H2919483   5.347   5.764   6.957  0.4049 -0.9178  0.0025
  138MOL    C3019484   5.459   5.623   6.756  0.0600 -0.4173 -0.8402
  138MOL    C3119485   5.568   5.520   6.730  0.0338 -0.3685 -0.6059
  138MOL    O3219486   5.509   5.400   6.679  0.2461  0.6309 -0.1183
  138MOL    H3319487   5.380   5.582   6.820  0.5890  0.6189  0.4984
  138MOL    H3419488   5.419   5.666   6.665 -0.9943 -0.3184 -0.3411
  138MOL    H3519489   5.622   5.495   6.821  1.0277  0.5873 -0.9276
  138MOL    H3619490   5.633   5.567   6.657 -3.3596  4.2065 -0.9148
  138MOL    C3719491   5.598   5.297   6.637 -0.3805  1.0174  0.0331
  138MOL    C3819492   5.518   5.175   6.614 -0.5606 -0.0339  0.4114
  138MOL    O3919493   5.590   5.078   6.536 -0.4266 -0.0431 -0.3855
  138MOL    H4019494   5.652   5.319   6.545  0.2713 -0.7168 -0.0126
  138MOL    H4119495   5.680   5.274   6.705 -1.3337  0.7842  1.1278
  138MOL    H4219496   5.425   5.188   6.557  0.2949  2.2314 -0.5048
  138MOL    H4319497   5.486   5.139   6.712  0.5106  0.3778  0.9161
  138MOL    C4419498   5.512   4.964   6.504  0.4095 -0.3656 -0.2736
  138MOL    C4519499   5.547   4.899   6.364 -0.4139 -0.0880  0.5795
  138MOL    O4619500   5.470   4.947   6.250 -0.4413 -0.4378 -1.2547
  138MOL    H4719501   5.533   4.890   6.582 -0.8262 -0.1218  0.2994
  138MOL    H4819502   5.406   4.989   6.508  0.2720 -1.0358  0.4556
  138MOL    H4919503   5.532   4.791   6.359 -0.9692  0.0623 -1.1329
  138MOL    H5019504   5.648   4.925   6.332 -0.9931 -0.0994 -1.2675
  138MOL    C5119505   5.499   4.892   6.125  0.6984  0.1106  0.1580
  138MOL    C5219506   5.389   4.931   6.028  0.4319 -0.2792  0.3912
  138MOL    O5319507   5.453   4.997   5.917 -0.6373  0.1756 -0.2426
  138MOL    H5419508   5.601   4.909   6.089  1.2705 -1.0174  1.2127
  138MOL    H5519509   5.495   4.784   6.137  1.5070 -0.0771 -1.1269
  138MOL    H5619510   5.315   4.995   6.077  0.4018  1.8773 -2.3950
  138MOL    H5719511   5.331   4.844   5.995  0.8593 -0.7896  0.9669
  138MOL    C5819512   5.358   5.061   5.829 -0.1306  1.3391 -0.6955
  138MOL    C5919513   5.320   5.200   5.869  0.1176  0.1405 -0.0937
  138MOL    O6019514   5.211   5.194   5.961 -0.3467 -0.2369 -0.7170
  138MOL    H6119515   5.416   5.063   5.736 -0.4808 -0.0761 -0.9598
  138MOL    H6219516   5.276   4.991   5.815  1.8119 -1.7122  2.3108
  138MOL    H6319517   5.289   5.250   5.777  1.7877 -1.8345 -1.7930
  138MOL    H6419518   5.402   5.255   5.915 -2.7243  4.7196 -0.1640
  138MOL    C6519519   5.165   5.326   6.000  0.1457 -0.1889  0.7387
  138MOL    C6619520   5.061   5.390   5.906  0.4065  0.4655 -0.5129
  138MOL    O6719521   4.933   5.348   5.938  0.2199  0.2098  0.2280
  138MOL    H6819522   5.120   5.317   6.098  0.6477 -2.9489  0.7411
  138MOL    H6919523   5.245   5.397   6.022 -0.4319  0.4945  0.6616
  138MOL    H7019524   5.093   5.360   5.807 -0.9143  0.7178 -1.0179
  138MOL    H7119525   5.071   5.495   5.935  0.1168  0.6727 -1.1558
  138MOL    C7219526   4.891   5.237   5.868 -0.5385  0.2173 -0.2078
  138MOL    C7319527   4.745   5.189   5.906 -0.3438  0.1463 -0.1373
  138MOL    O7419528   4.666   5.301   5.942  0.5676  0.7600 -0.0206
  138MOL    H7519529   4.901   5.237   5.760  2.0624 -0.7619  0.0012
  138MOL    H7619530   4.962   5.157   5.887 -1.1471 -0.3698 -0.4098
  138MOL    H7719531   4.750   5.116   5.987  2.2067  1.5239  1.0041
  138MOL    H7819532   4.700   5.137   5.822 -0.1319 -4.8544  2.6132
  138MOL    C7919533   4.644   5.391   5.836 -0.0380  0.1136  0.2541
  138MOL    C8019534   4.516   5.468   5.859 -0.1628 -0.6664  0.0410
  138MOL    O8119535   4.409   5.375   5.821  1.0236 -0.1945  0.1676
  138MOL    H8219536   4.737   5.447   5.835  0.3045 -0.4777 -1.9847
  138MOL    H8319537   4.639   5.341   5.740 -0.5156 -0.9994  0.8567
  138MOL    H8419538   4.508   5.548   5.786  1.3810 -0.1636  0.4028
  138MOL    H8519539   4.509   5.509   5.959 -3.6108  1.7509 -1.1205
  138MOL    C8619540   4.279   5.444   5.806 -0.3406  0.3114  0.0275
  138MOL    C8719541   4.181   5.358   5.717 -0.1317  0.2649 -0.2407
  138MOL    O8819542   4.098   5.276   5.795  0.2010 -0.4739  0.5054
  138MOL    H8919543   4.239   5.461   5.906  0.8724  0.2450  0.5265
  138MOL    H9019544   4.292   5.544   5.766 -0.7855 -0.6225 -2.5522
  138MOL    H9119545   4.231   5.317   5.629  1.4017 -0.2526  0.8509
  138MOL    H9219546   4.120   5.437   5.672  0.9100  0.7260 -0.8475
  138MOL    C9319547   3.997   5.193   5.729  0.5968 -0.2203 -0.2002
  138MOL    C9419548   3.872   5.275   5.718  0.3103 -0.2612 -0.1962
  138MOL    O9519549   3.892   5.352   5.601 -0.6158 -0.3069 -0.7325
  138MOL    H9619550   4.024   5.155   5.630 -1.9012 -1.4199 -0.4399
  138MOL    H9719551   3.987   5.099   5.782 -1.3498 -0.2862 -0.6569
  138MOL    H9819552   3.855   5.344   5.800  0.8176  0.2843 -0.5480
  138MOL    H9919553   3.790   5.203   5.717 -0.2472  0.3789 -2.3564
  138MOL   C10019554   3.809   5.468   5.599  0.0756 -0.3359  0.4819
  138MOL   C10119555   3.834   5.546   5.467  0.7886 -0.6217 -0.9672
  138MOL   O10219556   3.749   5.652   5.452 -0.0616 -0.2101  0.6113
  138MOL   H10319557   3.705   5.438   5.598 -0.1730  0.2957  2.8415
  138MOL   H10419558   3.823   5.528   5.689 -1.0977  1.2844 -0.3888
  138MOL   H10519559   3.826   5.467   5.392 -0.5855 -0.4075 -1.0546
  138MOL   H10619560   3.939   5.575   5.464  0.6535 -0.0943 -0.5109
  138MOL   C10719561   3.785   5.723   5.328  0.3064 -0.2004  0.2612
  138MOL   C10819562   3.718   5.862   5.326 -0.1474 -0.2981  0.3589
  138MOL   O10919563   3.798   5.955   5.392 -0.0873 -0.2058 -0.1505
  138MOL   H11019564   3.892   5.742   5.328  0.6071 -1.7715 -0.6032
  138MOL   H11119565   3.751   5.654   5.251 -0.1535  0.1056  0.1857
  138MOL   H11219566   3.615   5.860   5.361 -0.0487 -1.7051  0.5670
  138MOL   H11319567   3.707   5.887   5.220  1.3416  0.3519  0.3326
  138MOL   C11419568   3.751   6.090   5.381  0.0447  0.0550  0.1315
  138MOL   C11519569   3.859   6.187   5.443 -0.0076  0.1841  0.0098
  138MOL   O11619570   3.968   6.210   5.362 -0.9665 -0.2267  0.5956
  138MOL   H11719571   3.732   6.126   5.280  3.2751 -0.5582 -0.7824
  138MOL   H11819572   3.660   6.107   5.438  0.3066  1.1482  0.2333
  138MOL   H11919573   3.908   6.142   5.529  0.6999  0.8736 -0.0275
  138MOL   H12019574   3.816   6.277   5.487  0.8600  0.6733 -0.1288
  138MOL   C12119575   3.946   6.298   5.247 -0.7349 -0.1893 -0.1805
  138MOL   C12219576   4.083   6.348   5.190  0.5878  0.4929 -0.5668
  138MOL   O12319577   4.149   6.241   5.118 -0.2773 -0.1107  0.4036
  138MOL   H12419578   3.878   6.261   5.170  0.0503 -0.4438 -0.7627
  138MOL   H12519579   3.906   6.393   5.282  1.0510  1.1268 -1.5961
  138MOL   H12619580   4.141   6.378   5.277 -1.4265  0.2919  0.8861
  138MOL   H12719581   4.077   6.442   5.135  0.3300  0.7540 -0.0909
  138MOL   C12819582   4.272   6.279   5.066 -0.1523  0.2072 -0.3885
  138MOL   C12919583   4.359   6.158   5.042  0.2392 -0.1690  0.6569
  138MOL   O13019584   4.385   6.096   5.162  0.5631  0.1773  0.4354
  138MOL   H13119585   4.261   6.338   4.975 -2.1473  1.1991  0.4756
  138MOL   H13219586   4.337   6.337   5.132 -1.1810  0.6734  0.2190
  138MOL   H13319587   4.452   6.194   4.998  0.1056 -2.9608 -2.0784
  138MOL   H13419588   4.308   6.091   4.972 -1.6264 -0.6780  2.4420
  138MOL   C13519589   4.459   5.973   5.156 -0.0729  0.2226  0.5971
  138MOL   C13619590   4.514   5.948   5.301 -0.2055 -0.0308  0.3970
  138MOL   O13719591   4.616   6.043   5.325  0.4606 -0.0355  0.2380
  138MOL   H13819592   4.383   5.902   5.123  1.9781 -2.1848  0.8761
  138MOL   H13919593   4.540   5.979   5.082 -0.9175 -1.3345 -0.4840
  138MOL   H14019594   4.560   5.849   5.302 -0.1905 -0.0520 -1.8565
  138MOL   H14119595   4.436   5.947   5.378 -1.8414  1.3159 -1.2170
  138MOL   H14219596   4.566   6.114   5.361  0.2552  1.0709 -2.1019
  139MOL     C119597   7.312   6.088   7.388 -0.6359  0.8651 -0.3460
  139MOL     C219598   7.211   6.027   7.290 -0.0473  0.8696 -1.1420
  139MOL     O319599   7.175   6.133   7.210  0.0390  0.1702  0.2963
  139MOL     H419600   7.368   6.010   7.441 -0.2418  1.6304  0.3706
  139MOL     H519601   7.266   6.160   7.454 -2.6586  0.2175 -1.0269
  139MOL     H619602   7.126   5.989   7.345  0.2390  0.1093 -1.2128
  139MOL     H719603   7.260   5.946   7.235  0.2184  0.5642 -0.4603
  139MOL     H819604   7.388   6.143   7.332 -0.6295  1.2605  0.0512
  139MOL     C919605   7.128   6.101   7.082 -0.2092  0.1582  1.1772
  139MOL    C1019606   7.234   6.073   6.970 -1.3959  0.3253 -0.3860
  139MOL    O1119607   7.273   5.932   6.980  0.4646 -0.2735 -0.2002
  139MOL    H1219608   7.043   6.032   7.086 -0.6379  0.6189  0.1675
  139MOL    H1319609   7.096   6.199   7.047  1.0514  0.0147 -0.4306
  139MOL    H1419610   7.326   6.129   6.989 -0.2929 -2.0184  1.5591
  139MOL    H1519611   7.184   6.079   6.873  1.2325  0.1270 -1.8147
  139MOL    C1619612   7.339   5.896   6.862 -0.5340 -0.2064  0.0223
  139MOL    C1719613   7.403   5.762   6.883 -0.3868 -0.8719  0.5548
  139MOL    O1819614   7.518   5.777   6.964 -0.2918 -0.6192 -0.0583
  139MOL    H1919615   7.262   5.902   6.784  0.3572 -1.3837 -0.9569
  139MOL    H2019616   7.418   5.964   6.829  1.4964 -2.7482 -0.5007
  139MOL    H2119617   7.420   5.706   6.791  1.3773  1.1365 -0.3813
  139MOL    H2219618   7.334   5.695   6.935 -0.7858 -1.5149 -0.7867
  139MOL    C2319619   7.504   5.795   7.103 -0.0314  0.1277 -1.2987
  139MOL    C2419620   7.632   5.803   7.176  0.0789 -0.8841  0.2432
  139MOL    O2519621   7.699   5.675   7.205  0.3208  0.1007  0.1089
  139MOL    H2619622   7.443   5.881   7.129 -0.0564 -0.1655 -0.3645
  139MOL    H2719623   7.452   5.715   7.156  2.1127 -0.8811 -0.6562
  139MOL    H2819624   7.616   5.851   7.272 -2.8197 -0.2315 -0.5168
  139MOL    H2919625   7.698   5.871   7.122  0.0348 -0.7293  0.3877
  139MOL    C3019626   0.034   5.652   7.116  0.2207  0.5232  0.3223
  139MOL    C3119627   7.750   5.543   7.021 -0.7064  0.6258 -0.3359
  139MOL    O3219628   0.098   5.497   6.947 -0.7747  0.5236  0.2183
  139MOL    H3319629   0.077   5.734   7.058 -0.9331  2.4585  2.1290
  139MOL    H3419630   0.117   5.605   7.170 -0.4203 -1.6575 -0.5492
  139MOL    H3519631   7.669   5.582   6.960 -0.2732  1.7477 -0.2176
  139MOL    H3619632   7.715   5.455   7.075  0.3393  2.0447  2.8077
  139MOL    C3719633   0.069   5.461   6.813 -0.5459 -0.0827  0.1181
  139MOL    C3819634   0.199   5.420   6.747  0.2599  0.3600 -0.8041
  139MOL    O3919635   0.255   5.297   6.802 -0.1198  0.3266 -0.7347
  139MOL    H4019636   0.007   5.372   6.812 -0.1467 -0.3591 -1.0034
  139MOL    H4119637   0.021   5.543   6.759 -2.3319 -1.8206 -0.9980
  139MOL    H4219638   0.266   5.504   6.769 -2.5419  2.5994 -0.5145
  139MOL    H4319639   0.169   5.404   6.644 -1.6944  0.3928 -0.2527
  139MOL    C4419640   0.346   5.305   6.910 -0.0721 -0.5026  0.1101
  139MOL    C4519641   0.452   5.200   6.885 -0.2287  0.8233  0.3404
  139MOL    O4619642   0.545   5.198   6.991 -0.2570 -0.1202 -0.1378
  139MOL    H4719643   0.386   5.404   6.936  1.2832 -0.4564 -1.9760
  139MOL    H4819644   0.289   5.280   6.999 -2.3266  0.6132 -0.9911
  139MOL    H4919645   0.501   5.216   6.789  0.6889 -0.3213  0.6083
  139MOL    H5019646   0.401   5.104   6.878  1.3621  0.1258 -2.3419
  139MOL    C5119647   0.628   5.085   6.969 -0.0718  0.1949  0.0668
  139MOL    C5219648   0.723   5.060   7.089  0.0792  0.5499 -0.5068
  139MOL    O5319649   0.673   4.981   7.199 -0.6484 -0.5057  0.4793
  139MOL    H5419650   0.578   4.990   6.952  1.9721 -0.7284 -0.9366
  139MOL    H5519651   0.685   5.106   6.879 -0.1513  0.9712  0.1968
  139MOL    H5619652   0.751   5.151   7.142  0.1814 -0.7102  1.6553
  139MOL    H5719653   0.821   5.021   7.060  0.5887  0.9330  0.6751
  139MOL    C5819654   0.770   4.972   7.305  1.0862  0.0052 -0.5733
  139MOL    C5919655   0.723   4.868   7.405 -0.1731  0.0972  0.1292
  139MOL    O6019656   0.753   4.909   7.537 -0.2007  0.5188 -0.1378
  139MOL    H6119657   0.874   4.949   7.281  1.7098 -0.1098  2.0665
  139MOL    H6219658   0.784   5.070   7.350  2.3824  0.7011 -2.4184
  139MOL    H6319659   0.763   4.768   7.387 -1.1126 -0.4838  1.1864
  139MOL    H6419660   0.615   4.862   7.395 -0.0786  1.1834 -1.8386
  139MOL    C6519661   0.665   4.857   7.638  0.0866  0.0162 -0.1647
  139MOL    C6619662   0.728   4.871   0.004 -0.5384  0.1281  0.2412
  139MOL    O6719663   0.746   4.741   0.052 -0.1813 -0.4892  0.2964
  139MOL    H6819664   0.565   4.898   7.633  0.0762  0.0972  0.5662
  139MOL    H6919665   0.655   4.750   7.619  1.0231 -0.4009  1.4923
  139MOL    H7019666   0.661   4.926   0.070  2.4589  2.5843  1.3536
  139MOL    H7119667   0.822   4.927   7.770  0.0407 -0.6595  1.7371
  139MOL    C7219668   0.805   4.737   0.173 -0.1523  0.0280  0.0359
  139MOL    C7319669   0.798   4.590   0.226  0.4657 -0.0094  0.4291
  139MOL    O7419670   0.662   4.549   0.261  0.1742 -0.0668 -0.2179
  139MOL    H7519671   0.911   4.745   0.151 -0.4568  0.6699 -1.2021
  139MOL    H7619672   0.782   4.806   0.254  0.1932 -0.2919  0.4110
  139MOL    H7719673   0.868   4.579   0.309 -0.3536  1.4434  1.3336
  139MOL    H7819674   0.820   4.525   0.141  1.1627  2.5672 -1.4426
  139MOL    C7919675   0.647   4.408   0.275 -0.3461 -0.0113  0.2159
  139MOL    C8019676   0.518   4.379   0.346  0.8750  0.0250  0.1397
  139MOL    O8119677   0.532   4.248   0.407 -0.2059  0.5090 -0.2289
  139MOL    H8219678   0.659   4.351   0.183 -2.3206 -1.0256  0.5531
  139MOL    H8319679   0.731   4.378   0.337 -1.5701 -0.6580  1.5845
  139MOL    H8419680   0.436   4.387   0.275  1.0479 -0.3411 -0.0990
  139MOL    H8519681   0.495   4.454   0.422 -2.2975 -0.5596 -0.1861
  139MOL    C8619682   0.426   4.212   0.486 -0.3363  0.5399  0.6336
  139MOL    C8719683   0.410   4.056   0.493  0.0696 -0.8868  0.3819
  139MOL    O8819684   0.522   3.988   0.544  0.3113  0.1798 -0.2311
  139MOL    H8919685   0.439   4.260   0.583 -2.6288  1.1525  0.6741
  139MOL    H9019686   0.331   4.253   0.451  1.0487  1.7340 -1.9224
  139MOL    H9119687   0.385   4.019   0.394 -2.3004 -1.5019  1.1949
  139MOL    H9219688   0.328   4.042   0.564 -0.2025  0.1083  0.2732
  139MOL    C9319689   0.569   4.034   0.674  0.3549 -0.4661  0.2259
  139MOL    C9419690   0.491   3.999   0.809 -0.1204 -0.3865  0.2166
  139MOL    O9519691   0.365   4.078   0.820 -0.4797  0.5352  0.1180
  139MOL    H9619692   0.668   3.987   0.677  0.8595  0.6215  0.7428
  139MOL    H9719693   0.606   4.136   0.663  1.6120 -0.9252  0.1030
  139MOL    H9819694   0.556   4.016   0.895 -0.2378  1.6032 -0.0582
  139MOL    H9919695   0.470   3.893   0.821  2.2859 -0.9521 -0.2115
  139MOL   C10019696   0.304   4.087   0.944 -0.1655  0.2599 -0.4296
  139MOL   C10119697   0.164   4.144   0.927  0.5762  0.0661  0.1073
  139MOL   O10219698   0.174   4.275   0.870 -0.0025 -0.1259 -0.0049
  139MOL   H10319699   0.305   3.985   0.983 -0.6763  0.0766 -0.8862
  139MOL   H10419700   0.371   4.148   1.004  1.2001 -1.0805 -0.5753
  139MOL   H10519701   0.118   4.165   1.024 -0.8459 -0.0877 -0.5123
  139MOL   H10619702   0.105   4.085   0.856 -1.8050 -1.3881  3.1420
  139MOL   C10719703   0.054   4.346   0.863  0.5295  0.2720 -0.0217
  139MOL   C10819704   0.070   4.497   0.812 -0.4225  0.7299  0.1020
  139MOL   O10919705   0.052   4.515   0.669 -0.4193  0.1570  0.7486
  139MOL   H11019706   7.759   4.291   0.796  0.4942  0.4734 -0.1507
  139MOL   H11119707   0.013   4.346   0.964 -0.8568 -1.2693 -0.5633
  139MOL   H11219708   0.169   4.540   0.829 -0.1227 -0.2146  0.7867
  139MOL   H11319709   7.767   4.565   0.854 -0.1413  1.1074 -0.0021
  139MOL   C11419710   0.157   4.456   0.590 -0.1191  0.0526 -0.0814
  139MOL   C11519711   0.147   4.522   0.447  0.3801  0.1810 -0.0230
  139MOL   O11619712   0.024   4.473   0.393 -0.4894 -0.1970 -0.2500
  139MOL   H11719713   0.251   4.498   0.625  0.1284  0.0477 -0.7375
  139MOL   H11819714   0.147   4.348   0.602  0.2394 -0.1717 -1.6364
  139MOL   H11919715   0.230   4.508   0.377 -0.5316  2.1174 -1.5573
  139MOL   H12019716   0.132   4.630   0.458  0.2146  0.0556  1.0352
  139MOL   C12119717   0.033   4.338   0.339  0.8350 -0.3953 -0.4201
  139MOL   C12219718   0.017   4.351   0.192 -0.1692  0.0396 -0.1288
  139MOL   O12319719   0.144   4.407   0.147 -0.4539 -0.1784  0.4533
  139MOL   H12419720   0.129   4.294   0.366  0.7414 -0.2190  0.1982
  139MOL   H12519721   7.712   4.300   0.383  0.7786  1.7274  1.3766
  139MOL   H12619722   7.699   4.403   0.157 -1.3367 -2.4956 -1.0461
  139MOL   H12719723   0.006   4.254   0.144  2.8705 -0.2583 -0.3175
  139MOL   C12819724   0.167   4.419   0.002  0.0646 -0.0047 -0.3303
  139MOL   C12919725   0.290   4.507   7.755  0.0559 -0.1071 -0.0742
  139MOL   O13019726   0.256   4.642   0.017 -0.2240  0.3219 -0.1235
  139MOL   H13119727   0.190   4.322   7.728 -0.9796 -2.0924  3.3850
  139MOL   H13219728   0.078   4.465   7.730  0.0180 -0.1887 -0.4307
  139MOL   H13319729   0.319   4.497   7.651 -1.2177  0.6980 -0.5206
  139MOL   H13419730   0.364   4.468   0.053 -1.5045 -0.9633  1.1406
  139MOL   C13519731   0.379   4.715   0.024  0.1847 -0.3808 -0.8655
  139MOL   C13619732   0.379   4.776   0.163 -0.2536 -0.3035 -0.2650
  139MOL   O13719733   0.284   4.878   0.174  0.0476  0.4642 -0.3187
  139MOL   H13819734   0.470   4.657   0.010  1.6701  1.1036  2.2671
  139MOL   H13919735   0.371   4.789   7.716 -3.2630 -2.3132 -2.4635
  139MOL   H14019736   0.478   4.821   0.175  0.2999 -1.5858  0.1487
  139MOL   H14119737   0.373   4.694   0.235 -0.3960 -0.8625 -0.9114
  139MOL   H14219738   0.199   4.838   0.176  0.0466  0.5004  0.3398
  140MOL     C119739   4.765   3.960   5.875  0.2850  0.2262  0.4738
  140MOL     C219740   4.791   3.808   5.893  0.3784  0.2433  0.2692
  140MOL     O319741   4.918   3.788   5.821  0.4258  0.1684 -0.3551
  140MOL     H419742   4.687   4.003   5.938  0.6251 -0.2506  1.2231
  140MOL     H519743   4.767   3.999   5.773  0.1002 -0.1135  0.3421
  140MOL     H619744   4.713   3.754   5.840  2.8601 -3.5310  0.2435
  140MOL     H719745   4.800   3.784   5.999  2.0065 -0.6919 -0.0697
  140MOL     H819746   4.848   4.018   5.916 -0.7250  0.2733  2.4747
  140MOL     C919747   4.933   3.649   5.794  0.0489  0.8017 -0.1593
  140MOL    C1019748   5.065   3.628   5.724 -0.7843  0.0892 -0.2958
  140MOL    O1119749   5.047   3.643   5.582 -0.2595  0.3732  0.4202
  140MOL    H1219750   4.937   3.591   5.886 -1.4940  0.8493 -0.0489
  140MOL    H1319751   4.848   3.605   5.741 -1.9626  1.9482  2.0324
  140MOL    H1419752   5.105   3.528   5.739 -0.1916  0.5912  1.5218
  140MOL    H1519753   5.133   3.707   5.755  0.5963 -1.2371  0.1050
  140MOL    C1619754   5.171   3.638   5.508 -0.1926  0.2050  0.3066
  140MOL    C1719755   5.133   3.648   5.361 -0.2076  0.6792  0.9693
  140MOL    O1819756   5.033   3.548   5.336 -0.0085 -0.1613 -0.0044
  140MOL    H1919757   5.225   3.728   5.537  0.4102  0.0664 -0.3731
  140MOL    H2019758   5.218   3.549   5.549  0.1638 -0.6098 -1.7907
  140MOL    H2119759   5.219   3.646   5.295  0.0298  2.2436  1.2141
  140MOL    H2219760   5.079   3.737   5.328  0.5159  0.5109 -0.6967
  140MOL    C2319761   5.084   3.419   5.299  0.1350 -0.2574  0.5547
  140MOL    C2419762   4.980   3.315   5.283  0.4610 -0.4251 -0.3727
  140MOL    O2519763   4.914   3.340   5.155 -0.7078  0.1664  0.0737
  140MOL    H2619764   5.147   3.431   5.210 -1.8275 -0.1238 -0.8467
  140MOL    H2719765   5.162   3.387   5.368 -0.8306 -1.3824  1.1231
  140MOL    H2819766   4.924   3.314   5.377 -2.1554 -1.9467 -1.8942
  140MOL    H2919767   5.031   3.218   5.276 -0.9453 -1.5180  3.0006
  140MOL    C3019768   4.789   3.279   5.154  0.4478 -0.7812  0.7360
  140MOL    C3119769   4.796   3.133   5.107  0.3797 -0.2570 -0.0068
  140MOL    O3219770   4.830   3.065   5.222 -0.3712 -0.1613  0.0718
  140MOL    H3319771   4.730   3.300   5.244 -1.6084 -1.2785 -0.4655
  140MOL    H3419772   4.737   3.331   5.073 -0.5127 -4.5579 -1.1831
  140MOL    H3519773   4.865   3.114   5.025  0.8763 -1.2396  0.6149
  140MOL    H3619774   4.698   3.090   5.083  0.2449 -0.3931  0.7475
  140MOL    C3719775   4.917   2.953   5.197 -0.4707 -0.3395 -0.4285
  140MOL    C3819776   4.941   2.908   5.342  0.8980  0.3357  0.9643
  140MOL    O3919777   5.053   2.978   5.384 -0.4738 -0.3067 -0.1151
  140MOL    H4019778   4.854   2.884   5.140 -1.9942  1.9038 -1.5330
  140MOL    H4119779   5.001   2.979   5.133  0.1777  1.0262  0.9668
  140MOL    H4219780   4.973   2.804   5.336  0.7161  0.3261 -0.0326
  140MOL    H4319781   4.855   2.918   5.408 -1.0050  1.1577 -1.5271
  140MOL    C4419782   5.075   2.971   5.525 -0.7956 -0.4161 -0.5010
  140MOL    C4519783   5.206   3.044   5.558 -0.2302  0.6963 -0.3077
  140MOL    O4619784   5.308   2.946   5.551 -0.0921 -0.5481 -0.4730
  140MOL    H4719785   4.998   3.020   5.584  0.0298 -1.9220  1.9157
  140MOL    H4819786   5.073   2.867   5.557 -1.6786 -0.1307  0.3932
  140MOL    H4919787   5.191   3.076   5.661  0.3093 -2.9146  0.9673
  140MOL    H5019788   5.235   3.129   5.495  0.0240  0.1073 -0.9930
  140MOL    C5119789   5.424   2.981   5.610 -0.7826 -0.1526 -0.1471
  140MOL    C5219790   5.515   2.862   5.588  0.3164 -0.2727  0.0680
  140MOL    O5319791   5.505   2.786   5.709 -0.0955 -0.1391 -0.2600
  140MOL    H5419792   5.478   3.064   5.564  1.5127 -1.0017  0.9038
  140MOL    H5519793   5.419   2.999   5.718 -2.8938  0.7114 -0.3750
  140MOL    H5619794   5.615   2.900   5.567 -0.1391  0.8127 -0.1814
  140MOL    H5719795   5.492   2.795   5.505  0.8011  0.0555 -0.3411
  140MOL    C5819796   5.619   2.719   5.732  0.0083 -0.4286 -0.5416
  140MOL    C5919797   5.620   2.624   5.856  0.4826  0.0534 -0.8035
  140MOL    O6019798   5.632   2.694   5.979  1.0869 -0.3557 -0.6517
  140MOL    H6119799   5.621   2.656   5.643 -0.0998  0.7073 -1.3530
  140MOL    H6219800   5.702   2.790   5.739 -0.2583 -0.0834 -0.8720
  140MOL    H6319801   5.693   2.544   5.849 -1.6097 -2.1424  1.4662
  140MOL    H6419802   5.524   2.572   5.857  0.6892 -0.3362  0.5059
  140MOL    C6519803   5.554   2.641   6.087 -0.3356 -0.3230 -0.2638
  140MOL    C6619804   5.615   2.513   6.146 -0.4208 -0.3981 -0.0906
  140MOL    O6719805   5.596   2.395   6.079  0.3570 -0.0892  0.2116
  140MOL    H6819806   5.532   2.708   6.170 -3.0330 -1.0786 -0.3253
  140MOL    H6919807   5.450   2.630   6.057 -0.9075 -0.9634  1.8385
  140MOL    H7019808   5.577   2.502   6.247  0.9171 -0.4791  0.4082
  140MOL    H7119809   5.723   2.526   6.148 -0.3469 -1.0288  0.0168
  140MOL    C7219810   5.455   2.337   6.081 -0.0910  0.0566  0.0853
  140MOL    C7319811   5.456   2.208   6.144 -0.2786 -0.1434  0.0954
  140MOL    O7419812   5.455   2.216   6.286  0.3556  0.0567  0.6132
  140MOL    H7519813   5.391   2.410   6.130 -0.4097  0.6753 -1.2315
  140MOL    H7619814   5.426   2.335   5.976 -0.0451 -0.0669  0.0755
  140MOL    H7719815   5.533   2.141   6.107 -0.8621 -1.8217  1.8331
  140MOL    H7819816   5.364   2.157   6.114  0.3528 -1.6126  0.5992
  140MOL    C7919817   5.494   2.092   6.344  0.4943 -0.2388  0.3315
  140MOL    C8019818   5.489   2.101   6.496 -0.3668  0.4840  0.2777
  140MOL    O8119819   5.612   2.144   6.557  1.0511  0.0520 -0.0399
  140MOL    H8219820   5.429   2.015   6.303  1.1921 -0.1918 -0.9181
  140MOL    H8319821   5.592   2.062   6.306  0.3928  0.2200 -0.3031
  140MOL    H8419822   5.453   2.005   6.532  1.2382 -0.8392 -1.5308
  140MOL    H8519823   5.422   2.182   6.523 -0.3015 -0.0883  2.2248
  140MOL    C8619824   5.638   2.074   6.675  0.3967  0.0583  0.3889
  140MOL    C8719825   5.768   2.130   6.735 -0.1817  0.3703 -0.3094
  140MOL    O8819826   5.744   2.223   6.838  0.4891  0.7402 -0.0135
  140MOL    H8919827   5.558   2.073   6.749 -1.0152  1.3353 -1.1071
  140MOL    H9019828   5.648   1.969   6.645 -0.6964 -0.2918  1.2169
  140MOL    H9119829   5.826   2.170   6.652 -0.0271 -2.0260 -1.3886
  140MOL    H9219830   5.831   2.049   6.771 -0.6135  1.3692  2.8457
  140MOL    C9319831   5.862   2.262   6.904 -0.0566  0.1767  0.1610
  140MOL    C9419832   5.838   2.399   6.958 -0.5994  1.0202  0.3349
  140MOL    O9519833   5.934   2.435   7.059  0.0884  0.3536 -0.5053
  140MOL    H9619834   5.869   2.193   6.988  0.9889 -0.1463 -0.1836
  140MOL    H9719835   5.950   2.261   6.839 -0.3669 -0.7671 -0.2510
  140MOL    H9819836   5.742   2.403   7.010 -1.1601 -0.0339 -0.6011
  140MOL    H9919837   5.839   2.466   6.871 -1.4632  0.0433 -0.4392
  140MOL   C10019838   5.915   2.564   7.110  0.1089 -0.2438  0.3147
  140MOL   C10119839   6.028   2.578   7.216  1.1293 -0.3656 -0.0567
  140MOL   O10219840   6.031   2.475   7.314 -0.3292 -0.4196  0.4379
  140MOL   H10319841   5.937   2.638   7.033  1.0403 -1.9727 -1.1226
  140MOL   H10419842   5.822   2.579   7.165 -1.4286 -2.4840 -1.6274
  140MOL   H10519843   6.009   2.669   7.273 -0.1940 -1.0827  0.6745
  140MOL   H10619844   6.121   2.581   7.160  1.8000 -2.4445  0.8866
  140MOL   C10719845   5.921   2.474   7.404  0.2551 -0.6180  0.2865
  140MOL   C10819846   5.942   2.373   7.513 -0.3042 -0.1623  0.1956
  140MOL   O10919847   5.968   2.249   7.450  0.1141 -0.0177 -0.0960
  140MOL   H11019848   5.902   2.569   7.454 -3.4259  0.0822 -2.2437
  140MOL   H11119849   5.829   2.454   7.349 -0.3152  1.7401  0.3225
  140MOL   H11219850   5.857   2.360   7.580 -0.6640  0.2667 -0.1820
  140MOL   H11319851   6.032   2.399   7.571 -0.1801  0.4905 -0.2835
  140MOL   C11419852   5.954   2.134   7.536 -0.1001 -0.2225  0.0948
  140MOL   C11519853   6.025   2.014   7.475 -0.8457 -0.5342 -0.2208
  140MOL   O11619854   5.935   1.946   7.384  0.6384 -0.2163  0.0692
  140MOL   H11719855   5.985   2.136   7.641  1.0655 -3.2288 -0.1533
  140MOL   H11819856   5.848   2.106   7.536  0.1104 -1.0529 -0.7232
  140MOL   H11919857   6.045   1.935   7.547  2.5465 -1.2300 -1.8273
  140MOL   H12019858   6.122   2.039   7.434 -0.7704 -0.6043 -0.0831
  140MOL   C12119859   5.913   2.016   7.261  0.4057 -0.5258 -0.6576
  140MOL   C12219860   5.816   1.947   7.163 -0.9095  0.4980 -0.7274
  140MOL   O12319861   5.877   1.821   7.131 -0.0639 -0.1786 -0.0680
  140MOL   H12419862   5.884   2.119   7.280  0.3204 -0.4498 -1.1857
  140MOL   H12519863   6.013   2.016   7.216  0.2014 -0.0938 -1.1197
  140MOL   H12619864   5.808   2.008   7.073  0.3193  1.3645 -0.2544
  140MOL   H12719865   5.720   1.949   7.216 -1.1172 -0.1784 -1.0683
  140MOL   C12819866   5.810   1.746   7.026 -0.7339 -0.0496  0.6960
  140MOL   C12919867   5.895   1.654   6.939  0.0427  0.3679  0.1272
  140MOL   O13019868   5.873   1.518   6.982  0.4614  0.0158  0.9809
  140MOL   H13119869   5.739   1.677   7.072 -1.2795 -1.9734 -2.9040
  140MOL   H13219870   5.744   1.806   6.963  1.6753 -2.6716 -4.6171
  140MOL   H13319871   5.999   1.679   6.960  0.5331  0.0510 -1.8295
  140MOL   H13419872   5.871   1.659   6.833 -4.0623  1.8747  1.0416
  140MOL   C13519873   5.904   1.421   6.885  0.5539  0.3873 -0.2982
  140MOL   C13619874   6.054   1.388   6.892 -0.3747 -0.1689 -0.4567
  140MOL   O13719875   6.134   1.491   6.833  0.4641 -0.1308 -0.4850
  140MOL   H13819876   5.850   1.334   6.923 -0.8917  1.4589  0.1286
  140MOL   H13919877   5.871   1.455   6.787  0.7829 -1.6908 -1.1189
  140MOL   H14019878   6.069   1.298   6.833 -0.5070  0.2699 -1.1741
  140MOL   H14119879   6.090   1.369   6.993  0.8555 -0.5388 -0.9633
  140MOL   H14219880   6.223   1.469   6.856  0.6719  1.6864  0.5604
  141MOL     C119881   3.268   4.082   1.837 -0.0107  0.1250  0.5741
  141MOL     C219882   3.205   4.040   1.970  0.3080 -0.1147 -0.4134
  141MOL     O319883   3.065   4.016   1.952 -0.1162 -0.5163  0.1268
  141MOL     H419884   3.253   4.011   1.755  0.1527 -0.3599  0.9651
  141MOL     H519885   3.376   4.090   1.845  0.0831  0.4575 -0.7887
  141MOL     H619886   3.198   4.127   2.036  0.0233  0.5720 -1.3267
  141MOL     H719887   3.257   3.952   2.006 -0.0466 -0.7309 -1.3971
  141MOL     H819888   3.212   4.171   1.807 -1.2569 -0.5589  0.8147
  141MOL     C919889   3.005   3.944   2.055  0.5192  0.6413  0.0355
  141MOL    C1019890   2.860   3.919   2.014  0.7317 -0.6588 -0.1413
  141MOL    O1119891   2.771   4.026   2.037  1.2187  0.6889  0.0705
  141MOL    H1219892   3.060   3.850   2.052 -2.6798 -1.2674 -1.2264
  141MOL    H1319893   3.022   3.995   2.150 -2.1166 -1.3377  1.6380
  141MOL    H1419894   2.819   3.835   2.071  0.9507 -0.3206  0.5176
  141MOL    H1519895   2.855   3.890   1.909 -0.4594  1.9486 -0.8404
  141MOL    C1619896   2.650   4.004   1.959 -0.4391  0.4783  0.7266
  141MOL    C1719897   2.553   3.903   2.024  0.2433 -0.6224 -0.2914
  141MOL    O1819898   2.603   3.766   2.016  0.1424 -0.9273  0.1652
  141MOL    H1919899   2.605   4.103   1.954 -0.5733  0.3348 -1.3806
  141MOL    H2019900   2.667   3.987   1.853 -4.2123  3.8656 -0.5412
  141MOL    H2119901   2.461   3.903   1.966  1.4498  0.4719 -2.2583
  141MOL    H2219902   2.532   3.924   2.129  2.0430  1.4868 -0.3127
  141MOL    C2319903   2.511   3.678   2.074 -0.1291  0.0435 -0.5339
  141MOL    C2419904   2.490   3.571   1.965 -0.0150 -0.1981 -0.3225
  141MOL    O2519905   2.415   3.622   1.850 -0.2863  0.6998  0.4015
  141MOL    H2619906   2.555   3.631   2.162 -1.9020 -0.1169  0.2829
  141MOL    H2719907   2.416   3.720   2.105  0.2868  1.0241 -0.5833
  141MOL    H2819908   2.436   3.492   2.017  1.4105  1.2197  3.4713
  141MOL    H2919909   2.580   3.517   1.934 -0.5944 -1.3115 -0.0987
  141MOL    C3019910   2.488   3.675   1.748 -0.0046  0.7539 -0.3196
  141MOL    C3119911   2.411   3.724   1.631 -1.0018 -0.1048 -0.2470
  141MOL    O3219912   2.491   3.743   1.513 -0.1347  0.0909  0.0285
  141MOL    H3319913   2.540   3.762   1.789  1.7111 -0.1371 -0.5625
  141MOL    H3419914   2.563   3.603   1.713  0.7178  0.9986  0.6703
  141MOL    H3519915   2.366   3.819   1.659 -0.4608  0.0698  0.0385
  141MOL    H3619916   2.324   3.664   1.605 -0.7966 -0.3011 -0.4864
  141MOL    C3719917   2.557   3.633   1.447  0.2001  0.0281 -0.8682
  141MOL    C3819918   2.508   3.631   1.303  0.1336 -0.5715  0.3143
  141MOL    O3919919   2.380   3.569   1.275 -0.0513 -0.0063 -0.5387
  141MOL    H4019920   2.663   3.647   1.466 -0.2073  0.9203  0.8099
  141MOL    H4119921   2.534   3.537   1.491  0.9000 -0.9724 -2.6284
  141MOL    H4219922   2.585   3.583   1.241  0.2516  2.6226 -2.1693
  141MOL    H4319923   2.512   3.735   1.269 -2.6323 -0.5962 -0.2020
  141MOL    C4419924   2.330   3.593   1.141 -0.2294  0.2854 -0.8670
  141MOL    C4519925   2.198   3.673   1.160 -0.4004  0.1030 -0.5485
  141MOL    O4619926   2.222   3.818   1.173  0.7776 -0.0496 -0.3717
  141MOL    H4719927   2.391   3.650   1.071  0.9574  0.5161  0.3335
  141MOL    H4819928   2.301   3.508   1.079  2.2302 -0.3872 -1.1545
  141MOL    H4919929   2.152   3.630   1.249  0.8361  1.3234  0.6874
  141MOL    H5019930   2.130   3.648   1.078 -0.3096 -0.4272 -0.4645
  141MOL    C5119931   2.198   3.856   1.312  0.7338 -0.2920 -0.0189
  141MOL    C5219932   2.051   3.860   1.356  0.2391 -0.9116 -0.1665
  141MOL    O5319933   2.039   3.920   1.487  0.2483  0.4669 -0.2912
  141MOL    H5419934   2.262   3.793   1.373 -0.8010 -0.2714  1.6665
  141MOL    H5519935   2.236   3.957   1.324 -1.3430  0.5844 -0.5764
  141MOL    H5619936   2.030   3.754   1.357  2.4211 -1.3691 -0.4697
  141MOL    H5719937   1.986   3.892   1.275 -0.0772 -1.2839 -0.0587
  141MOL    C5819938   1.906   3.915   1.533 -0.2005 -0.0422 -0.1102
  141MOL    C5919939   1.907   3.985   1.667 -1.0362  0.6933  0.2522
  141MOL    O6019940   1.948   4.124   1.648 -0.7400 -0.0679  0.0291
  141MOL    H6119941   1.850   3.983   1.468  1.4233 -0.3533 -1.8894
  141MOL    H6219942   1.864   3.815   1.541  0.0814 -0.1965 -0.5394
  141MOL    H6319943   1.974   3.933   1.735  0.4030 -0.8265 -2.2337
  141MOL    H6419944   1.806   3.983   1.707 -1.4007  1.6120 -0.5951
  141MOL    C6519945   1.932   4.205   1.767  0.4234 -0.0612 -0.1910
  141MOL    C6619946   1.947   4.347   1.745 -0.1550  0.0089 -0.2489
  141MOL    O6719947   1.837   4.411   1.686  0.2886  0.3487  0.4415
  141MOL    H6819948   1.835   4.177   1.809 -1.4176  3.0041 -2.1973
  141MOL    H6919949   1.996   4.165   1.846 -0.1262  0.8335  0.7107
  141MOL    H7019950   2.039   4.352   1.687  0.0634 -0.3450  0.0629
  141MOL    H7119951   1.963   4.381   1.848  1.5228 -0.8516 -0.2052
  141MOL    C7219952   1.853   4.552   1.697 -0.2760  0.3844 -0.9503
  141MOL    C7319953   1.743   4.618   1.626  0.1097 -0.0566  0.0392
  141MOL    O7419954   1.752   4.586   1.485  0.0070  0.1593 -0.4217
  141MOL    H7519955   1.838   4.589   1.798 -0.9669  5.1348 -2.6740
  141MOL    H7619956   1.948   4.584   1.655  0.4321  1.4455  1.3958
  141MOL    H7719957   1.739   4.726   1.639  1.0837 -0.0047 -0.0908
  141MOL    H7819958   1.647   4.589   1.669  0.5462  0.7681  1.5823
  141MOL    C7919959   1.644   4.622   1.402 -0.1929  0.4125  0.2072
  141MOL    C8019960   1.649   4.777   1.369 -0.3360  0.1927 -0.7685
  141MOL    O8119961   1.748   4.806   1.276  0.2474  0.2800  0.2203
  141MOL    H8219962   1.645   4.561   1.312 -1.0354  0.5098  0.1332
  141MOL    H8319963   1.549   4.601   1.451  0.1263  0.9311  1.0675
  141MOL    H8419964   1.667   4.812   1.470  1.3198  0.3450 -1.1104
  141MOL    H8519965   1.555   4.815   1.328 -1.7085 -1.6241  0.5993
  141MOL    C8619966   1.795   4.940   1.292  0.0410  0.4574 -0.2999
  141MOL    C8719967   1.704   5.052   1.223  0.5797 -0.1168 -0.1098
  141MOL    O8819968   1.594   5.094   1.309  0.2521 -0.2300 -0.3294
  141MOL    H8919969   1.809   4.970   1.395 -0.8651  2.5299 -0.7608
  141MOL    H9019970   1.889   4.939   1.235 -0.4701  1.0769 -1.1716
  141MOL    H9119971   1.660   5.019   1.129 -0.0206 -0.7782  0.3990
  141MOL    H9219972   1.767   5.141   1.214 -1.4214  1.4665  0.9603
  141MOL    C9319973   1.515   5.199   1.254 -0.2176 -0.4856 -0.0421
  141MOL    C9419974   1.387   5.218   1.338 -0.1050  0.0264 -0.1128
  141MOL    O9519975   1.425   5.278   1.461  0.6185 -0.6178 -0.1638
  141MOL    H9619976   1.567   5.294   1.243 -0.9276 -0.0872 -0.0073
  141MOL    H9719977   1.484   5.171   1.154  0.5856 -1.1930 -0.1012
  141MOL    H9819978   1.339   5.124   1.367  0.9567 -1.1127 -1.9409
  141MOL    H9919979   1.318   5.284   1.285  1.7503  1.1020 -1.2263
  141MOL   C10019980   1.324   5.335   1.541  0.1052  0.0294  0.2481
  141MOL   C10119981   1.387   5.379   1.672  0.2161  0.1233  0.3347
  141MOL   O10219982   1.483   5.472   1.644 -0.5367  0.4440  0.1762
  141MOL   H10319983   1.269   5.414   1.489 -0.1219  0.5753  1.3061
  141MOL   H10419984   1.246   5.263   1.566 -0.0370  0.2345  0.3881
  141MOL   H10519985   1.440   5.296   1.719  0.5615 -0.8453 -1.6920
  141MOL   H10619986   1.305   5.413   1.735 -2.1455 -0.4784 -2.3072
  141MOL   C10719987   1.570   5.505   1.749  0.2588  0.0736 -0.3085
  141MOL   C10819988   1.494   5.560   1.879 -0.3235  0.8349 -0.2865
  141MOL   O10919989   1.421   5.453   1.938 -0.0036 -0.0147 -0.2414
  141MOL   H11019990   1.645   5.429   1.771  1.6071  1.1045 -1.3084
  141MOL   H11119991   1.618   5.593   1.708  1.1593  0.8851  2.4421
  141MOL   H11219992   1.409   5.625   1.858 -1.2351  0.1789  1.2366
  141MOL   H11319993   1.559   5.605   1.955  0.3162 -1.6579  0.7054
  141MOL   C11419994   1.369   5.482   2.065 -0.6597 -0.1228 -0.0154
  141MOL   C11519995   1.309   5.355   2.130 -0.3164  0.0179 -0.8060
  141MOL   O11619996   1.235   5.389   2.244 -0.1889 -0.4201  0.5093
  141MOL   H11719997   1.444   5.523   2.133 -2.5576  2.1686  0.7401
  141MOL   H11819998   1.292   5.558   2.057 -1.0344 -0.4463  0.4691
  141MOL   H11919999   1.391   5.286   2.151  0.0845 -0.4808 -3.7213
  141MOL   H12020000   1.243   5.308   2.057 -0.7801 -2.2615  1.0107
  141MOL   C12120001   1.141   5.295   2.294  0.0643 -0.3468  0.0518
  141MOL   C12220002   1.212   5.216   2.406  0.7131  0.2315 -0.3607
  141MOL   O12320003   1.272   5.101   2.348  0.1797 -0.0144 -0.4009
  141MOL   H12420004   1.077   5.366   2.348  0.7777 -0.2757  0.8092
  141MOL   H12520005   1.092   5.221   2.231 -0.7394 -0.4971  0.8387
  141MOL   H12620006   1.142   5.200   2.489 -0.7807 -0.9063 -1.7947
  141MOL   H12720007   1.287   5.287   2.440  0.8571  0.1018 -0.4066
  141MOL   C12820008   1.374   5.045   2.436 -0.0951  0.2858 -0.0801
  141MOL   C12920009   1.435   4.938   2.349 -0.8888 -0.4079 -0.0502
  141MOL   O13020010   1.343   4.849   2.281 -0.6346  0.7237 -1.4692
  141MOL   H13120011   1.449   5.118   2.466  1.2784 -1.0688 -0.1811
  141MOL   H13220012   1.335   5.013   2.533  0.3129  0.4548  0.1392
  141MOL   H13320013   1.490   4.873   2.418 -0.5961  0.1573  0.2479
  141MOL   H13420014   1.507   4.981   2.280 -1.2795  2.1417  1.0524
  141MOL   C13520015   1.255   4.779   2.360  0.3377  0.5834  0.3981
  141MOL   C13620016   1.149   4.715   2.264  0.7804 -0.3228  0.4180
  141MOL   O13720017   1.213   4.630   2.172 -0.5788  0.3374  0.6982
  141MOL   H13820018   1.296   4.695   2.416  0.1043  0.8503  0.9745
  141MOL   H13920019   1.199   4.850   2.422  0.2613  1.1620 -0.3365
  141MOL   H14020020   1.089   4.796   2.224 -0.2958 -0.1837  2.2321
  141MOL   H14120021   1.076   4.660   2.324 -0.2189 -1.3423 -1.6951
  141MOL   H14220022   1.277   4.690   2.135 -1.0263  1.3327  1.5088
  142MOL     C120023   6.681   3.546   0.208  0.4403 -0.3035  0.0359
  142MOL     C220024   6.760   3.612   0.098  0.0669 -0.8624 -0.7280
  142MOL     O320025   6.709   3.749   0.082  0.1952  0.3635  0.6937
  142MOL     H420026   6.717   3.444   0.223 -1.2486 -0.9834 -0.4396
  142MOL     H520027   6.574   3.547   0.187  0.3614 -0.9533  0.4115
  142MOL     H620028   6.751   3.549   0.009 -0.2753 -2.4728  0.4242
  142MOL     H720029   6.865   3.616   0.127  0.0219 -1.3026 -0.4968
  142MOL     H820030   6.692   3.606   0.298  2.4269 -0.4455 -0.0938
  142MOL     C920031   6.762   3.807   7.736 -0.2043  0.4795 -0.4298
  142MOL    C1020032   6.716   3.948   7.725 -0.0439 -0.1429 -0.1231
  142MOL    O1120033   6.580   3.948   7.697  0.4571  0.3562  0.4564
  142MOL    H1220034   6.871   3.803   7.734 -0.2112 -0.9821  0.9439
  142MOL    H1320035   6.739   3.743   7.652  1.4462  0.1116 -0.6166
  142MOL    H1420036   6.773   4.005   7.652  0.4539  1.8449  1.7668
  142MOL    H1520037   6.738   3.999   0.047  0.8244 -2.3286  0.9145
  142MOL    C1620038   6.532   4.070   7.640 -0.4710  0.2131  0.5326
  142MOL    C1720039   6.381   4.067   7.610 -0.4819  0.2626 -0.0303
  142MOL    O1820040   6.332   4.190   7.552 -0.8685 -0.2024 -0.4297
  142MOL    H1920041   6.570   4.155   7.697  0.2805 -1.1916  2.1664
  142MOL    H2020042   6.587   4.081   7.547  0.3429  0.3401  1.0235
  142MOL    H2120043   6.331   4.036   7.701 -1.5678  0.0172 -0.7001
  142MOL    H2220044   6.384   3.981   7.543  2.0941  2.0517 -2.3649
  142MOL    C2320045   6.204   4.184   7.503  0.0686  0.0887  0.0453
  142MOL    C2420046   6.182   4.120   7.359 -0.0972 -0.2280 -0.4196
  142MOL    O2520047   6.241   4.193   7.257 -0.7520 -0.8920  0.3135
  142MOL    H2620048   6.145   4.131   7.578 -0.8394  0.0413 -0.6981
  142MOL    H2720049   6.171   4.288   7.504  0.0827  0.0909  0.3761
  142MOL    H2820050   6.076   4.097   7.350 -0.0342 -0.7427  0.0669
  142MOL    H2920051   6.215   4.016   7.365 -0.0960 -0.1978  0.1555
  142MOL    C3020052   6.226   4.141   7.122  0.2647  1.0794 -0.7046
  142MOL    C3120053   6.338   4.179   7.021 -0.4562 -0.1258  0.4054
  142MOL    O3220054   6.398   4.062   6.974  0.1530  0.1512  0.0343
  142MOL    H3320055   6.215   4.033   7.129  0.4291  1.1902  1.9374
  142MOL    H3420056   6.136   4.184   7.079  2.2289  4.0538 -2.0560
  142MOL    H3520057   6.424   4.226   7.069 -1.4363  1.7041  0.4202
  142MOL    H3620058   6.296   4.251   6.950  0.0409 -0.4667 -0.2361
  142MOL    C3720059   6.466   4.082   6.850  0.2486  0.2539  0.2193
  142MOL    C3820060   6.566   3.967   6.827 -0.1462  0.1074  0.3716
  142MOL    O3920061   6.684   3.995   6.898 -0.3472  0.2509 -0.1213
  142MOL    H4020062   6.394   4.097   6.770  0.8158 -0.2110 -0.3928
  142MOL    H4120063   6.516   4.178   6.843  2.4964 -0.7988  1.2259
  142MOL    H4220064   6.596   3.965   6.723 -0.4835 -0.9711  0.2936
  142MOL    H4320065   6.517   3.871   6.844 -1.1021  0.6395  0.6539
  142MOL    C4420066   6.778   3.882   6.901 -0.3002  0.0557 -0.5025
  142MOL    C4520067   6.914   3.922   6.955 -0.4728 -0.0290  0.7499
  142MOL    O4620068   7.004   3.964   6.846 -0.3224 -0.3426 -0.6785
  142MOL    H4720069   6.722   3.822   6.973  1.8375 -0.8090  0.4752
  142MOL    H4820070   6.796   3.829   6.807 -0.7237 -3.9540  1.5570
  142MOL    H4920071   6.953   3.832   7.002  0.3886 -0.2219 -0.3146
  142MOL    H5020072   6.909   3.994   7.036 -1.6887  1.8272 -0.9359
  142MOL    C5120073   7.104   4.054   6.895 -0.4331  0.5440  0.2619
  142MOL    C5220074   7.187   4.101   6.773  0.7004 -0.0180 -0.0364
  142MOL    O5320075   7.285   4.187   6.811 -0.2559  0.4490  0.3334
  142MOL    H5420076   7.063   4.141   6.946 -1.5718 -0.2188  0.6760
  142MOL    H5520077   7.176   4.006   6.962  0.7347 -0.5256 -1.7217
  142MOL    H5620078   7.116   4.152   6.708  0.5745 -1.8863 -1.4245
  142MOL    H5720079   7.230   4.019   6.715  1.6300  0.9329 -0.7258
  142MOL    C5820080   7.364   4.223   6.703 -0.8924 -0.8445  0.0202
  142MOL    C5920081   7.484   4.310   6.749 -0.0321  0.1576 -0.0526
  142MOL    O6020082   7.588   4.230   6.805  0.3705 -0.2890  0.3345
  142MOL    H6120083   7.407   4.135   6.655  1.7607  1.4503 -1.9781
  142MOL    H6220084   7.316   4.270   6.617 -2.6086 -2.3938  0.0894
  142MOL    H6320085   7.463   4.387   6.824  1.9333 -1.7966  2.6098
  142MOL    H6420086   7.535   4.336   6.656  0.4804 -1.4343 -0.2277
  142MOL    C6520087   7.685   4.306   6.863 -0.3453  0.0539 -0.5184
  142MOL    C6620088   0.013   4.364   6.761  0.2383  0.4744 -0.3599
  142MOL    O6720089   0.115   4.273   6.715  0.0848 -0.7019 -0.2524
  142MOL    H6820090   7.643   4.378   6.933 -2.5937 -1.2398 -0.4993
  142MOL    H6920091   7.737   4.233   6.926  2.3195  0.4986 -2.1197
  142MOL    H7020092   0.074   4.434   6.819 -2.3861  1.7433  0.9591
  142MOL    H7120093   7.726   4.426   6.693 -0.3072  1.6193  1.1095
  142MOL    C7220094   0.060   4.171   6.641  0.3804  0.3993 -0.0267
  142MOL    C7320095   0.170   4.083   6.585 -0.0033  0.0497 -0.4049
  142MOL    O7420096   0.264   4.168   6.506  0.0619  0.2002 -0.1495
  142MOL    H7520097   7.760   4.105   6.692  0.6449  1.6994  2.0859
  142MOL    H7620098   0.008   4.205   6.551  0.3724  0.4936  0.0134
  142MOL    H7720099   0.121   4.011   6.519  0.8908 -1.5504  0.6365
  142MOL    H7820100   0.214   4.043   6.677  1.9492  1.3510 -0.7585
  142MOL    C7920101   0.374   4.099   6.448  0.2782 -0.6192 -0.2186
  142MOL    C8020102   0.465   4.065   6.564  0.6338 -0.1775 -0.4655
  142MOL    O8120103   0.446   3.935   6.613  0.0038  0.2307  0.4029
  142MOL    H8220104   0.349   4.007   6.394  0.7791  0.3815 -2.1945
  142MOL    H8320105   0.428   4.167   6.382 -0.3300 -1.0224 -1.1442
  142MOL    H8420106   0.457   4.152   6.630 -0.1633  0.1184 -0.9278
  142MOL    H8520107   0.570   4.061   6.537  0.2809  1.1032 -2.1544
  142MOL    C8620108   0.506   3.921   6.742 -0.1151 -0.8263  0.0178
  142MOL    C8720109   0.468   3.780   6.794 -0.2066  0.1227 -0.5366
  142MOL    O8820110   0.335   3.765   6.849  0.0314 -0.5214 -0.2024
  142MOL    H8920111   0.610   3.942   6.719 -0.0773 -2.1795 -1.0703
  142MOL    H9020112   0.471   3.999   6.810 -3.5073 -2.0034 -0.2879
  142MOL    H9120113   0.528   3.754   6.881  0.1901  0.2611 -0.7674
  142MOL    H9220114   0.478   3.699   6.721  1.1154  0.1571 -0.4104
  142MOL    C9320115   0.232   3.729   6.752  0.2629 -0.0101 -0.3633
  142MOL    C9420116   0.104   3.660   6.795 -0.0241 -0.3901 -0.0723
  142MOL    O9520117   0.126   3.529   6.848  0.1808 -0.1170  0.1590
  142MOL    H9620118   0.200   3.819   6.699 -1.4161 -2.6876 -4.1126
  142MOL    H9720119   0.284   3.656   6.689  1.7987  0.7243  0.0282
  142MOL    H9820120   0.043   3.648   6.706  1.9435 -0.3141 -1.4548
  142MOL    H9920121   0.056   3.717   6.875  1.4065  1.6526 -0.6363
  142MOL   C10020122   0.177   3.535   6.984  0.1803 -0.8344 -0.3860
  142MOL   C10120123   0.153   3.404   7.053 -0.1035 -0.2090  0.7875
  142MOL   O10220124   0.245   3.301   7.008  0.0086 -0.4629  0.1792
  142MOL   H10320125   0.281   3.567   6.981 -0.2931  0.6683 -0.9074
  142MOL   H10420126   0.124   3.618   7.030  0.4020 -0.3057 -1.0803
  142MOL   H10520127   0.050   3.368   7.049 -0.5733  1.2544 -0.8243
  142MOL   H10620128   0.162   3.421   7.160 -2.4780 -0.7651  1.1223
  142MOL   C10720129   0.266   3.197   7.101 -0.3080 -0.2406  0.1817
  142MOL   C10820130   0.370   3.096   7.048 -0.0207  0.3896  0.5261
  142MOL   O10920131   0.314   2.993   6.971  0.3014 -0.5342  0.7635
  142MOL   H11020132   0.303   3.241   7.194  0.6482 -1.3791  0.3541
  142MOL   H11120133   0.175   3.143   7.128 -1.0706  0.0321 -1.8001
  142MOL   H11220134   0.415   3.051   7.136  0.4257 -1.7802 -0.7679
  142MOL   H11320135   0.458   3.142   7.003  0.0136 -1.6467 -1.6094
  142MOL   C11420136   0.233   2.896   7.027  0.0510 -0.0271 -0.1324
  142MOL   C11520137   0.114   2.855   6.940 -0.0053 -0.2179  0.4192
  142MOL   O11620138   0.023   2.969   6.956  0.0469 -0.3324 -0.3187
  142MOL   H11720139   0.297   2.808   7.033  0.4792  0.3190  0.5094
  142MOL   H11820140   0.213   2.926   7.130  0.2135 -0.2965 -0.0233
  142MOL   H11920141   0.065   2.767   6.982  0.6498 -0.1531  1.3199
  142MOL   H12020142   0.134   2.841   6.833  2.4378  1.5612  0.5988
  142MOL   C12120143   7.678   2.958   6.880  0.7329  0.1818 -0.2193
  142MOL   C12220144   7.611   3.101   6.866  0.2137  0.2060 -0.1686
  142MOL   O12320145   7.652   3.163   6.751 -0.4427  0.0414  0.4613
  142MOL   H12420146   7.706   2.930   6.779 -2.6591  2.4590 -1.8711
  142MOL   H12520147   7.599   2.890   6.912  0.2610 -0.1249 -1.9640
  142MOL   H12620148   7.636   3.166   6.950  1.1349 -1.4236  0.8439
  142MOL   H12720149   7.502   3.097   6.853  0.4322 -0.6417 -1.8389
  142MOL   C12820150   7.637   3.305   6.743 -0.5061  0.0818  0.2083
  142MOL   C12920151   7.694   3.349   6.613  0.0802 -0.1330 -0.3896
  142MOL   O13020152   7.608   3.315   6.502  0.3554 -0.3982 -0.3711
  142MOL   H13120153   7.534   3.339   6.751 -0.9953 -1.6868  2.0399
  142MOL   H13220154   7.683   3.342   6.835  2.6403  0.8877 -1.6319
  142MOL   H13320155   0.023   3.308   6.597  0.6422  0.3499  1.7065
  142MOL   H13420156   7.710   3.456   6.627 -1.6147  0.3126 -1.6949
  142MOL   C13520157   7.652   3.389   6.389 -0.4770 -0.2551 -0.0484
  142MOL   C13620158   7.540   3.401   6.292  0.4089  0.0157  0.0827
  142MOL   O13720159   7.447   3.499   6.338  0.2813  0.0992  0.9214
  142MOL   H13820160   7.695   3.486   6.413  0.5988 -0.4870 -1.0336
  142MOL   H13920161   7.735   3.329   6.353  0.1362  1.4405 -1.5273
  142MOL   H14020162   7.505   3.301   6.269 -1.2150  0.5852  0.0485
  142MOL   H14120163   7.567   3.439   6.193 -1.4250  0.2708 -0.3264
  142MOL   H14220164   7.498   3.577   6.354 -2.0118  1.7118  0.6890
  143MOL     C120165   0.225   3.765   4.754 -0.5861  0.5011  0.1957
  143MOL     C220166   0.339   3.744   4.655  0.4865 -0.0142  0.1556
  143MOL     O320167   0.374   3.861   4.574 -0.6604 -0.0114 -0.2479
  143MOL     H420168   0.195   3.677   4.811  0.2039 -1.3620 -2.1574
  143MOL     H520169   0.143   3.787   4.685 -1.6763  0.2237  1.3868
  143MOL     H620170   0.319   3.662   4.586 -1.0852  1.6643 -1.4199
  143MOL     H720171   0.430   3.718   4.709  1.1212  0.5238 -0.6548
  143MOL     H820172   0.231   3.852   4.819 -1.5236  0.0613  0.8898
  143MOL     C920173   0.498   3.844   4.493 -0.3094  0.0374  0.6654
  143MOL    C1020174   0.501   3.955   4.391 -0.4931  0.1483 -0.2417
  143MOL    O1120175   0.408   3.919   4.288 -0.1214 -0.3039  0.3572
  143MOL    H1220176   0.592   3.847   4.548  0.9004  0.4267 -1.3991
  143MOL    H1320177   0.498   3.749   4.439  0.9458 -0.0589  0.8226
  143MOL    H1420178   0.601   3.963   4.348 -0.3242 -0.1114  0.1045
  143MOL    H1520179   0.477   4.049   4.440 -2.9823 -0.4510 -0.2351
  143MOL    C1620180   0.276   3.974   4.302 -0.4208 -0.5458 -0.1515
  143MOL    C1720181   0.174   3.870   4.357 -0.0899  0.1875 -0.5717
  143MOL    O1820182   0.065   3.859   4.261 -0.8224 -0.1466 -0.0669
  143MOL    H1920183   0.275   4.073   4.348 -2.1280 -0.7469  0.2771
  143MOL    H2020184   0.241   3.987   4.200 -2.9651  1.0401  0.8573
  143MOL    H2120185   0.142   3.907   4.455 -0.5275 -1.9131  0.1109
  143MOL    H2220186   0.218   3.771   4.370 -0.8769  0.0861  1.5512
  143MOL    C2320187   7.750   3.751   4.282 -0.2534 -0.4600  0.0668
  143MOL    C2420188   7.627   3.753   4.186  0.1992 -0.2853  0.4692
  143MOL    O2520189   7.643   3.721   4.049 -0.1851  0.0280  0.0812
  143MOL    H2620190   0.046   3.666   4.278 -0.0261 -0.3828  1.7251
  143MOL    H2720191   7.717   3.761   4.386  1.1232 -0.9592  0.5590
  143MOL    H2820192   7.581   3.851   4.176 -0.5405 -0.7555 -0.8460
  143MOL    H2920193   7.560   3.680   4.230 -1.1431  0.2760 -0.6123
  143MOL    C3020194   7.521   3.673   3.988 -0.0762  0.0339 -0.1547
  143MOL    C3120195   7.556   3.639   3.838  0.2221  0.7414 -0.3148
  143MOL    O3220196   7.637   3.525   3.825  0.1612 -0.1512 -0.7351
  143MOL    H3320197   7.486   3.587   4.044  1.1014 -0.3020  0.0703
  143MOL    H3420198   7.448   3.751   4.009 -1.5702 -1.5581  0.6422
  143MOL    H3520199   7.612   3.724   3.797  0.9743  0.7675  0.7595
  143MOL    H3620200   7.466   3.632   3.778  0.4613  2.8564 -0.9625
  143MOL    C3720201   7.571   3.412   3.765  0.4344 -0.0767  0.2723
  143MOL    C3820202   7.487   3.332   3.867 -0.2161 -0.5676  0.0395
  143MOL    O3920203   7.583   3.273   3.956  0.0951 -0.5058  0.4630
  143MOL    H4020204   7.503   3.448   3.689 -1.7453 -0.7401  1.8647
  143MOL    H4120205   7.637   3.341   3.715 -1.8804 -0.5557 -2.2193
  143MOL    H4220206   7.426   3.260   3.813 -3.5695  2.0611  0.1123
  143MOL    H4320207   7.413   3.393   3.919  0.7475  1.4827 -0.9423
  143MOL    C4420208   7.526   3.223   4.069  0.1538  0.2461 -0.7808
  143MOL    C4520209   7.460   3.328   4.171  0.3879  0.0950  0.3204
  143MOL    O4620210   7.332   3.376   4.135  0.1997 -0.0240  0.5883
  143MOL    H4720211   7.444   3.154   4.049 -0.0390  0.0392  0.6627
  143MOL    H4820212   7.606   3.174   4.124 -0.4183  0.3335  0.1363
  143MOL    H4920213   7.528   3.407   4.202 -0.7377  0.7917  1.0685
  143MOL    H5020214   7.451   3.275   4.266  0.1563 -0.7726 -0.1847
  143MOL    C5120215   7.284   3.476   4.213 -0.1475 -0.5402 -0.1233
  143MOL    C5220216   7.180   3.560   4.139 -0.4023  0.3859 -0.1425
  143MOL    O5320217   7.228   3.587   4.009  0.1157  0.4069  0.7749
  143MOL    H5420218   7.243   3.434   4.305 -1.9753 -0.2524 -0.7864
  143MOL    H5520219   7.366   3.541   4.243 -0.0432 -1.0449  0.7045
  143MOL    H5620220   7.154   3.649   4.196 -2.4737  0.5836 -1.3466
  143MOL    H5720221   7.085   3.506   4.139 -1.2154  1.7518  1.9439
  143MOL    C5820222   7.117   3.587   3.918  0.1578 -0.4535 -0.8624
  143MOL    C5920223   7.155   3.616   3.772  0.2257  0.0177 -0.3498
  143MOL    O6020224   7.178   3.759   3.760  0.5681 -0.3863 -0.0982
  143MOL    H6120225   7.075   3.487   3.906  0.2965 -0.4937 -1.0176
  143MOL    H6220226   7.037   3.652   3.954  0.1559 -0.1203 -1.4696
  143MOL    H6320227   7.066   3.580   3.720  0.6727 -0.4611 -0.7885
  143MOL    H6420228   7.233   3.551   3.732  0.0557 -0.6724  0.4183
  143MOL    C6520229   7.221   3.800   3.634 -0.2186 -0.1772  0.3728
  143MOL    C6620230   7.109   3.805   3.528 -0.1275 -0.0091 -0.2700
  143MOL    O6720231   7.145   3.870   3.412 -0.2578 -0.3836 -0.1474
  143MOL    H6820232   7.255   3.902   3.648  1.0084 -0.4349 -0.5794
  143MOL    H6920233   7.300   3.731   3.602  1.4477  1.8216  0.1071
  143MOL    H7020234   7.018   3.846   3.572  0.7367  0.9403  0.6808
  143MOL    H7120235   7.085   3.703   3.500  0.7024 -0.2488 -0.1126
  143MOL    C7220236   7.054   3.838   3.307  0.0118 -0.4016 -0.2233
  143MOL    C7320237   7.087   3.902   3.171  0.6295 -0.4507  0.2087
  143MOL    O7420238   6.999   3.849   3.077 -0.3026  0.0799 -0.1787
  143MOL    H7520239   7.055   3.731   3.285  2.1172 -0.0220 -2.1329
  143MOL    H7620240   6.952   3.869   3.331  0.2577  1.5673 -1.6227
  143MOL    H7720241   7.191   3.884   3.144  1.1979  1.9404  0.6135
  143MOL    H7820242   7.075   4.011   3.165  2.4060 -0.2116  0.7017
  143MOL    C7920243   6.863   3.896   3.065 -0.3877  0.3278  0.4180
  143MOL    C8020244   6.796   3.831   2.940 -0.8001 -0.4504 -0.2402
  143MOL    O8120245   6.841   3.889   2.819  0.0515 -0.0450 -0.0713
  143MOL    H8220246   6.797   3.863   3.146  2.0306 -1.5441  1.6868
  143MOL    H8320247   6.852   4.005   3.060  0.0012  0.3307 -0.4140
  143MOL    H8420248   6.689   3.854   2.934 -0.3901  2.3844  2.4498
  143MOL    H8520249   6.791   3.723   2.955 -1.0643 -0.4265 -0.1420
  143MOL    C8620250   6.802   4.029   2.797 -0.5997  0.0038  0.1643
  143MOL    C8720251   6.838   4.050   2.649 -0.0441 -0.0834 -0.3687
  143MOL    O8820252   6.743   3.987   2.566 -0.0542 -0.2503 -0.7006
  143MOL    H8920253   6.697   4.054   2.810 -1.0211 -1.7986  0.2292
  143MOL    H9020254   6.871   4.099   2.846  0.5096 -1.1023  0.2194
  143MOL    H9120255   6.934   4.007   2.621 -0.6964 -0.3139 -2.3389
  143MOL    H9220256   6.834   4.158   2.637  1.1447 -0.0347 -0.4383
  143MOL    C9320257   6.776   3.994   2.426 -0.2229  0.7567  0.2022
  143MOL    C9420258   6.650   4.042   2.357 -0.3680 -0.0559 -0.2302
  143MOL    O9520259   6.620   4.181   2.392 -0.0240  0.2791 -0.3917
  143MOL    H9620260   6.855   4.066   2.403  1.9595 -1.6865 -0.1675
  143MOL    H9720261   6.817   3.902   2.385 -0.1656  0.4098  1.0428
  143MOL    H9820262   6.572   3.971   2.385  0.3045 -0.0862  1.6536
  143MOL    H9920263   6.660   4.039   2.248 -2.8874  1.5599 -0.5366
  143MOL   C10020264   6.507   4.237   2.324 -0.2329 -0.0886 -0.6145
  143MOL   C10120265   6.498   4.386   2.358 -0.1632  0.1341  0.2846
  143MOL   O10220266   6.441   4.407   2.486 -0.2960  0.4234 -0.4936
  143MOL   H10320267   6.516   4.229   2.216  1.5801 -0.0436 -0.4791
  143MOL   H10420268   6.422   4.173   2.350  0.8763 -1.2290  0.3184
  143MOL   H10520269   6.430   4.436   2.289 -1.7247 -1.3571  0.7158
  143MOL   H10620270   6.597   4.428   2.338 -0.0234  0.0129  0.7181
  143MOL   C10720271   6.532   4.391   2.598 -0.2241 -0.5793  0.1470
  143MOL   C10820272   6.450   4.439   2.716 -0.0594  0.3708 -0.0866
  143MOL   O10920273   6.530   4.441   2.836 -0.1315  0.3492  0.2138
  143MOL   H11020274   6.539   4.283   2.609  0.3595 -0.5564  0.0195
  143MOL   H11120275   6.621   4.453   2.597  1.2833 -2.7003 -0.1659
  143MOL   H11220276   6.360   4.379   2.725 -1.1712  1.6997 -1.8781
  143MOL   H11320277   6.415   4.542   2.707 -1.4091  0.1000  1.7434
  143MOL   C11420278   6.462   4.497   2.951 -0.3262 -0.0354 -0.9310
  143MOL   C11520279   6.547   4.546   3.057 -0.2521  1.0827  0.5376
  143MOL   O11620280   6.584   4.433   3.132  0.0454  0.0415  0.1791
  143MOL   H11720281   6.412   4.585   2.910 -0.7162  1.1114  1.8751
  143MOL   H11820282   6.382   4.429   2.980 -0.1039 -0.8152 -2.1362
  143MOL   H11920283   6.492   4.615   3.121 -2.7837 -0.3765 -0.0205
  143MOL   H12020284   6.628   4.594   3.003 -0.0797 -1.7179 -1.8084
  143MOL   C12120285   6.698   4.460   3.209  0.1581 -0.5515  0.2096
  143MOL   C12220286   6.753   4.342   3.282  0.2697 -0.2135 -0.5651
  143MOL   O12320287   6.686   4.324   3.406 -0.3431  0.1796  0.0201
  143MOL   H12420288   6.773   4.500   3.141 -2.8350  1.7115 -1.9287
  143MOL   H12520289   6.683   4.546   3.275  0.4604  1.3377 -2.0929
  143MOL   H12620290   6.857   4.365   3.306 -0.2227  0.7841  0.6296
  143MOL   H12720291   6.757   4.254   3.218 -0.0446 -1.7000  1.4243
  143MOL   C12820292   6.733   4.202   3.466 -0.2952 -0.0708  0.5994
  143MOL   C12920293   6.645   4.080   3.430 -0.6235  0.1588  0.5323
  143MOL   O13020294   6.664   4.015   3.308  0.2664  0.2987 -0.4492
  143MOL   H13120295   6.838   4.188   3.441 -0.3002 -0.0790  0.5843
  143MOL   H13220296   6.726   4.221   3.573  1.3083  1.5880  0.4330
  143MOL   H13320297   6.545   4.122   3.436 -1.2591 -1.0722 -1.2201
  143MOL   H13420298   6.667   4.007   3.508  1.4498 -1.5123 -1.5276
  143MOL   C13520299   6.556   3.951   3.246 -0.4110 -0.0503 -0.1459
  143MOL   C13620300   6.488   4.050   3.150 -0.3814  0.7304  0.0389
  143MOL   O13720301   6.539   4.034   3.020  0.5675 -0.1000 -0.2120
  143MOL   H13820302   6.589   3.867   3.185 -0.5201  0.4116 -0.8375
  143MOL   H13920303   6.492   3.909   3.324  0.9601 -0.3855  0.8255
  143MOL   H14020304   6.486   4.156   3.176 -1.5727  0.8788 -0.6579
  143MOL   H14120305   6.386   4.014   3.148 -0.4862  1.0679 -1.1691
  143MOL   H14220306   6.483   4.093   2.972  2.4736  2.0315  0.0955
  144MOL     C120307   6.406   1.355   6.736 -0.5632  0.8548 -0.2448
  144MOL     C220308   6.473   1.495   6.738  0.3057  0.3985  0.1565
  144MOL     O320309   6.424   1.591   6.828 -0.0567  0.1062 -0.2086
  144MOL     H420310   6.434   1.281   6.662 -2.6848 -2.4507  2.1206
  144MOL     H520311   6.297   1.349   6.735 -0.5213 -0.3727  0.8392
  144MOL     H620312   6.471   1.533   6.636 -0.2836  4.0964  1.4725
  144MOL     H720313   6.576   1.480   6.771  0.7838  1.3141 -0.8906
  144MOL     H820314   6.434   1.311   6.832  0.7224  0.6205 -0.7293
  144MOL     C920315   6.507   1.711   6.831 -0.0929 -0.7810  0.5890
  144MOL    C1020316   6.417   1.834   6.853 -0.1780  0.0483  0.0746
  144MOL    O1120317   6.354   1.879   6.734  0.0993 -0.0654 -0.1500
  144MOL    H1220318   6.577   1.687   6.912  0.0245  0.6104  0.9085
  144MOL    H1320319   6.566   1.732   6.742 -0.6200  0.0706  0.4461
  144MOL    H1420320   6.470   1.916   6.901 -1.0219  0.6285  0.0309
  144MOL    H1520321   6.343   1.795   6.924 -0.6655  1.7382  0.5395
  144MOL    C1620322   6.298   2.015   6.752  0.3933  0.1739  0.2862
  144MOL    C1720323   6.221   2.056   6.620 -0.0285 -0.9807 -1.0053
  144MOL    O1820324   6.088   2.006   6.615 -0.8998 -0.4418 -0.0170
  144MOL    H1920325   6.234   2.031   6.839 -0.3047  0.2343 -0.2396
  144MOL    H2020326   6.383   2.081   6.772  0.9662  0.2909 -2.3520
  144MOL    H2120327   6.282   2.034   6.532  1.6725  0.4784 -0.2260
  144MOL    H2220328   6.207   2.164   6.622 -1.2361 -1.1396 -0.6527
  144MOL    C2320329   6.079   1.876   6.569 -0.4403 -0.8123  0.2708
  144MOL    C2420330   5.940   1.838   6.545  0.3398  0.8368  0.0333
  144MOL    O2520331   5.890   1.846   6.416  0.4118 -0.0064 -0.3600
  144MOL    H2620332   6.137   1.871   6.477  1.5073 -0.6163  1.4705
  144MOL    H2720333   6.136   1.812   6.637  0.5802  2.1891  2.3461
  144MOL    H2820334   5.880   1.901   6.611 -0.7511  0.0214 -0.1675
  144MOL    H2920335   5.916   1.739   6.584 -2.0519  1.1238 -0.5843
  144MOL    C3020336   5.864   1.969   6.360  0.7477 -0.3363 -0.7850
  144MOL    C3120337   5.859   1.974   6.205  0.2213  0.5243  0.5032
  144MOL    O3220338   5.817   2.109   6.167 -0.2386 -0.3874 -0.3519
  144MOL    H3320339   5.770   2.003   6.404  1.7017  0.7556  0.4506
  144MOL    H3420340   5.941   2.041   6.389  0.7856 -0.6550 -0.0904
  144MOL    H3520341   5.779   1.904   6.180  0.6030  0.9871 -2.1428
  144MOL    H3620342   5.953   1.932   6.169 -0.5228 -2.8936  2.3373
  144MOL    C3720343   5.852   2.159   6.036  0.1475 -0.1380 -0.4057
  144MOL    C3820344   5.795   2.068   5.919  0.1708 -0.4649  0.0852
  144MOL    O3920345   5.658   2.098   5.909  0.4563 -0.1841 -0.3493
  144MOL    H4020346   5.809   2.259   6.028 -2.8925 -1.1652  1.7324
  144MOL    H4120347   5.959   2.166   6.022  0.4937 -1.9502  1.0987
  144MOL    H4220348   5.811   1.963   5.946  2.0496  0.0315  0.9982
  144MOL    H4320349   5.842   2.084   5.822  1.5279 -2.9003  0.2938
  144MOL    C4420350   5.588   2.021   5.813 -0.7617  0.6262 -0.5620
  144MOL    C4520351   5.444   2.050   5.816 -0.2445  0.3864 -0.2797
  144MOL    O4620352   5.387   1.980   5.931 -0.1788 -0.6404 -0.3292
  144MOL    H4720353   5.632   2.049   5.717 -3.3273  1.3320 -1.5645
  144MOL    H4820354   5.602   1.914   5.828 -2.0504  0.2392 -1.9619
  144MOL    H4920355   5.396   2.000   5.732 -0.3609  0.7761 -0.4466
  144MOL    H5020356   5.424   2.156   5.798  3.0224  0.9600 -0.8972
  144MOL    C5120357   5.243   1.980   5.925 -0.1404  0.0235  0.0262
  144MOL    C5220358   5.195   1.902   6.045  0.3002  0.2455 -0.6624
  144MOL    O5320359   5.214   1.762   6.014 -0.2521 -0.6885 -0.4598
  144MOL    H5420360   5.205   2.082   5.916  2.3312  0.8128 -1.8743
  144MOL    H5520361   5.200   1.939   5.833 -0.4043 -1.0894  0.6468
  144MOL    H5620362   5.089   1.921   6.061  0.3655  0.8901 -1.0007
  144MOL    H5720363   5.234   1.936   6.141  0.6228 -1.1687 -0.2788
  144MOL    C5820364   5.293   1.686   6.116 -0.2056  0.4053  0.3552
  144MOL    C5920365   5.444   1.715   6.112  0.5290 -0.5714  0.5201
  144MOL    O6020366   5.512   1.651   6.001 -0.8363 -0.0392 -0.2971
  144MOL    H6120367   5.250   1.711   6.213  1.9956  0.7778  1.2580
  144MOL    H6220368   5.288   1.580   6.094 -1.1548  0.2869  1.0923
  144MOL    H6320369   5.491   1.676   6.203 -1.0313 -1.1264  1.0940
  144MOL    H6420370   5.463   1.822   6.119  1.0968 -0.5882 -0.6476
  144MOL    C6520371   5.656   1.661   6.014  0.4703 -0.0865  0.2216
  144MOL    C6620372   5.721   1.538   6.091  0.2586 -0.3616  0.0308
  144MOL    O6720373   5.713   1.566   6.233 -0.0838  0.0044  0.0081
  144MOL    H6820374   5.700   1.659   5.914 -1.9955  0.8812 -0.9286
  144MOL    H6920375   5.699   1.751   6.058 -0.8146 -0.2440  1.8374
  144MOL    H7020376   5.826   1.528   6.067  0.0914 -0.2444 -0.7400
  144MOL    H7120377   5.678   1.442   6.062  0.3369 -0.1185 -0.8919
  144MOL    C7220378   5.719   1.465   6.328  0.4895 -0.1537 -0.6858
  144MOL    C7320379   5.579   1.411   6.341 -0.0195 -0.4621 -0.0748
  144MOL    O7420380   5.564   1.322   6.242 -0.1721  0.1763  0.2123
  144MOL    H7520381   5.785   1.381   6.306  0.4389 -0.3012 -0.2789
  144MOL    H7620382   5.745   1.515   6.421 -0.1579  0.7119 -0.9621
  144MOL    H7720383   5.501   1.486   6.333 -0.0937 -0.6593 -1.3074
  144MOL    H7820384   5.574   1.359   6.437  3.1122 -0.1933  0.2815
  144MOL    C7920385   5.424   1.278   6.224  0.6727 -1.2068 -0.9270
  144MOL    C8020386   5.415   1.165   6.121 -0.3665 -0.0196  0.0170
  144MOL    O8120387   5.385   1.202   5.980 -0.0941 -0.5493  0.1685
  144MOL    H8220388   5.386   1.247   6.321  2.8570 -0.9926  0.0193
  144MOL    H8320389   5.360   1.362   6.197  2.5395  1.5440  2.7395
  144MOL    H8420390   5.341   1.092   6.156 -0.6559  0.2509 -0.0258
  144MOL    H8520391   5.507   1.108   6.126 -0.2967  0.1923  1.7526
  144MOL    C8620392   5.483   1.289   5.928  0.2772 -0.4182  0.6361
  144MOL    C8720393   5.447   1.323   5.786 -0.6865 -0.6901  0.3269
  144MOL    O8820394   5.516   1.230   5.694  0.3132 -0.3192 -0.7246
  144MOL    H8920395   5.471   1.385   5.979  0.6038 -0.8428  1.5308
  144MOL    H9020396   5.585   1.252   5.927  0.5227  0.2600  0.2436
  144MOL    H9120397   5.474   1.423   5.752  0.3952 -0.5619  1.4854
  144MOL    H9220398   5.340   1.327   5.768 -1.4030 -4.0167  3.2909
  144MOL    C9320399   5.445   1.100   5.667  0.5757 -0.1210  0.3929
  144MOL    C9420400   5.360   1.114   5.547  0.6858 -0.2384  0.4020
  144MOL    O9520401   5.270   1.216   5.560  0.0406 -0.5082 -0.5056
  144MOL    H9620402   5.514   1.017   5.654  1.1607  0.5354 -0.7268
  144MOL    H9720403   5.391   1.064   5.755 -1.0799 -1.0778 -0.9995
  144MOL    H9820404   5.307   1.022   5.526  1.2642 -0.3610 -0.5720
  144MOL    H9920405   5.431   1.130   5.465 -1.1327  0.6101 -1.0339
  144MOL   C10020406   5.185   1.225   5.448 -0.1639  0.2232 -0.5418
  144MOL   C10120407   5.063   1.321   5.476 -0.1083 -0.6517 -0.1967
  144MOL   O10220408   4.980   1.260   5.570 -0.6052  0.4535 -0.4746
  144MOL   H10320409   5.252   1.250   5.366  1.1895 -0.7239  0.2412
  144MOL   H10420410   5.151   1.123   5.430 -1.7624  0.3689  1.5070
  144MOL   H10520411   5.002   1.318   5.386  1.6702 -0.2051 -1.4439
  144MOL   H10620412   5.076   1.429   5.479  0.4644 -0.7692  3.0804
  144MOL   C10720413   4.856   1.316   5.599 -0.3489  0.1265  1.1249
  144MOL   C10820414   4.773   1.239   5.698  0.2901  0.7963 -0.0504
  144MOL   O10920415   4.717   1.123   5.635  0.3758  0.3017  0.6776
  144MOL   H11020416   4.872   1.414   5.644  0.1334  0.3430  0.4975
  144MOL   H11120417   4.806   1.335   5.504  2.2047 -2.8759 -0.9409
  144MOL   H11220418   4.698   1.312   5.729  1.0512  1.8173 -0.5932
  144MOL   H11320419   4.838   1.207   5.779 -0.1854 -1.0013 -0.3514
  144MOL   C11420420   4.597   1.147   5.565  0.2668  0.4552 -0.8156
  144MOL   C11520421   4.507   1.027   5.553 -0.0448  0.5729  0.0050
  144MOL   O11620422   4.389   1.035   5.627 -0.0535 -0.1478 -0.3208
  144MOL   H11720423   4.545   1.226   5.618  2.5298  1.0396  0.6114
  144MOL   H11820424   4.635   1.181   5.469  0.5981 -1.7773 -1.5034
  144MOL   H11920425   4.561   0.937   5.583 -3.0417 -1.9487 -1.8123
  144MOL   H12020426   4.492   0.999   5.449 -1.7331 -0.5156  0.5236
  144MOL   C12120427   4.308   0.926   5.587  0.1432 -0.0716  0.3599
  144MOL   C12220428   4.195   0.939   5.690  0.7695  0.2258  0.4877
  144MOL   O12320429   4.099   1.032   5.625  0.3652 -0.1473  0.5548
  144MOL   H12420430   4.278   0.943   5.483  0.1793 -0.3726  0.3005
  144MOL   H12520431   4.360   0.831   5.595  1.5797  0.6983  0.4496
  144MOL   H12620432   4.234   0.959   5.790  0.5897 -1.0718  0.8168
  144MOL   H12720433   4.138   0.847   5.698  0.8287  0.2757  1.4760
  144MOL   C12820434   3.964   1.014   5.660  0.9329 -0.8505  0.0939
  144MOL   C12920435   3.874   1.109   5.577 -0.0431  0.1025  0.2680
  144MOL   O13020436   3.845   1.068   5.445 -0.7517 -0.6886 -0.3050
  144MOL   H13120437   3.937   0.909   5.663 -0.5077 -0.4433  2.5907
  144MOL   H13220438   3.971   1.056   5.761 -0.7826 -1.3449  0.4313
  144MOL   H13320439   3.914   1.210   5.567  0.5513 -0.1023  0.5068
  144MOL   H13420440   3.783   1.125   5.635  1.7830 -0.9801  3.5963
  144MOL   C13520441   3.801   0.934   5.425  0.4431  0.1484 -0.3789
  144MOL   C13620442   3.740   0.928   5.288 -0.3649 -0.0375  0.6504
  144MOL   O13720443   3.838   0.920   5.192 -0.1902  0.4885 -0.0373
  144MOL   H13820444   3.882   0.861   5.432 -0.1661 -0.3728  1.6190
  144MOL   H13920445   3.729   0.915   5.505  0.5130  0.6683 -0.1886
  144MOL   H14020446   3.694   1.025   5.269 -1.8326 -0.6317  1.0446
  144MOL   H14120447   3.665   0.850   5.274  0.0842 -0.4642  0.6106
  144MOL   H14220448   3.892   0.997   5.204 -3.3494  2.7809  0.2381
  145MOL     C120449   5.284   4.012   1.369  0.1538 -0.5446 -0.1565
  145MOL     C220450   5.375   4.103   1.297 -0.1866 -0.6241 -0.2860
  145MOL     O320451   5.347   4.099   1.161  0.7148 -1.0673 -0.2742
  145MOL     H420452   5.180   4.045   1.356  0.8425  1.5260 -0.6528
  145MOL     H520453   5.308   4.008   1.475 -0.4467 -0.2521 -0.0018
  145MOL     H620454   5.476   4.071   1.323 -0.9126 -1.6743  1.3060
  145MOL     H720455   5.365   4.200   1.346  0.7461 -0.4974 -0.3350
  145MOL     H820456   5.289   3.909   1.334 -0.7927 -0.9006  0.7174
  145MOL     C920457   5.442   4.153   1.074  0.3034  0.8697 -0.3862
  145MOL    C1020458   5.571   4.075   1.058  1.0484  0.0297 -0.2213
  145MOL    O1120459   5.610   4.105   0.922 -0.7679  0.2585 -0.3228
  145MOL    H1220460   5.384   4.132   0.984 -0.1759 -1.5700  0.4290
  145MOL    H1320461   5.453   4.260   1.090 -1.0969  1.0335 -0.4670
  145MOL    H1420462   5.545   3.969   1.063 -0.6067  0.4740  1.2945
  145MOL    H1520463   5.648   4.101   1.130 -2.0462  1.2041  2.8457
  145MOL    C1620464   5.732   4.037   0.886  0.0509 -0.4855  0.7386
  145MOL    C1720465   5.774   4.075   0.739  0.9656 -0.1587  0.6796
  145MOL    O1820466   5.833   4.209   0.736 -0.2281 -0.8050 -0.5241
  145MOL    H1920467   5.818   4.060   0.949  2.5247 -0.5454 -2.4997
  145MOL    H2020468   5.711   3.931   0.879 -0.8107 -0.3394  1.0803
  145MOL    H2120469   5.685   4.063   0.676  0.6390 -3.6919  1.6979
  145MOL    H2220470   5.845   4.010   0.690  2.9208  0.8925  2.0538
  145MOL    C2320471   5.763   4.328   0.779  0.5941  0.4138 -0.3934
  145MOL    C2420472   5.833   4.451   0.735 -0.1094 -0.1258  0.0134
  145MOL    O2520473   5.744   4.562   0.721  0.3540 -0.2328 -0.1919
  145MOL    H2620474   5.662   4.325   0.740  0.6663  0.8244 -0.6200
  145MOL    H2720475   5.752   4.334   0.887  2.5754  0.7528 -0.1794
  145MOL    H2820476   5.884   4.430   0.641  0.6163 -1.5992  0.7180
  145MOL    H2920477   5.916   4.483   0.798  0.8072 -0.1321 -1.1730
  145MOL    C3020478   5.806   4.679   0.671  0.0221 -0.7270 -0.4009
  145MOL    C3120479   5.691   4.779   0.670 -0.0262  0.4535 -0.3940
  145MOL    O3220480   5.617   4.775   0.554  0.2712  0.1023 -0.4845
  145MOL    H3320481   5.871   4.704   0.756  1.5632 -2.7509 -0.9544
  145MOL    H3420482   5.852   4.660   0.574  0.4144 -1.2958 -0.1023
  145MOL    H3520483   5.746   4.873   0.683  1.0742 -0.2754  0.2803
  145MOL    H3620484   5.623   4.781   0.755 -2.3122 -0.0755 -2.1517
  145MOL    C3720485   5.492   4.849   0.561 -0.6678 -0.2832 -0.1702
  145MOL    C3820486   5.388   4.760   0.628 -0.2275 -0.0737  0.4668
  145MOL    O3920487   5.383   4.786   0.766  0.5252  0.5549 -0.0339
  145MOL    H4020488   5.490   4.941   0.619 -0.9635  0.6988 -1.7004
  145MOL    H4120489   5.465   4.879   0.459 -1.5607 -2.0950 -0.4961
  145MOL    H4220490   5.383   4.658   0.589 -2.0253  0.0560  0.3148
  145MOL    H4320491   5.300   4.807   0.585 -0.4776  0.3444  1.4285
  145MOL    C4420492   5.263   4.731   0.827  0.3799 -0.0353  0.7378
  145MOL    C4520493   5.288   4.593   0.876 -0.5154 -0.4569 -0.1847
  145MOL    O4620494   5.297   4.503   0.765 -0.5094 -0.8639 -0.7148
  145MOL    H4720495   5.248   4.790   0.918 -1.3932  2.3935 -1.0636
  145MOL    H4820496   5.183   4.748   0.755  0.7700 -0.2056  0.2649
  145MOL    H4920497   5.210   4.557   0.944 -1.4916  0.3105 -0.8775
  145MOL    H5020498   5.382   4.578   0.929 -1.0794  1.3008  1.3642
  145MOL    C5120499   5.351   4.373   0.791  0.4193 -0.2885  0.5876
  145MOL    C5220500   5.366   4.300   0.663  0.1710  0.3681  0.0330
  145MOL    O5320501   5.244   4.255   0.616 -0.3151 -0.3183  0.0597
  145MOL    H5420502   5.451   4.386   0.832  0.2855 -1.1995  1.2296
  145MOL    H5520503   5.291   4.333   0.872 -2.3487  0.4697 -1.0314
  145MOL    H5620504   5.428   4.221   0.706  0.5850  1.1811  0.9348
  145MOL    H5720505   5.434   4.357   0.601  1.2059 -2.7797 -1.8423
  145MOL    C5820506   5.268   4.165   0.512 -0.0061  0.0824  0.1393
  145MOL    C5920507   5.268   4.020   0.560  0.6214  0.2426 -0.1422
  145MOL    O6020508   5.388   3.977   0.612 -0.0687  0.2535  0.0144
  145MOL    H6120509   5.177   4.177   0.452  1.1274 -4.4500 -2.7403
  145MOL    H6220510   5.350   4.190   0.446 -0.9782  2.7705 -0.1212
  145MOL    H6320511   5.244   3.966   0.469 -0.2160  0.2232  0.0907
  145MOL    H6420512   5.200   4.003   0.643  0.0824 -0.1478 -0.6659
  145MOL    C6520513   5.380   3.842   0.649 -0.1465 -0.5271  0.4916
  145MOL    C6620514   5.508   3.763   0.620 -0.6172 -0.1434  0.5202
  145MOL    O6720515   5.566   3.694   0.731  0.1445  0.7824  0.1196
  145MOL    H6820516   5.378   3.845   0.758  1.0991  0.2287  0.5123
  145MOL    H6920517   5.288   3.795   0.616 -0.3567  0.7760 -0.8534
  145MOL    H7020518   5.575   3.847   0.601 -2.5459  1.9723  2.6771
  145MOL    H7120519   5.505   3.704   0.529 -0.2955  0.1710  0.3016
  145MOL    C7220520   5.585   3.557   0.706  0.1301 -0.5622  0.5339
  145MOL    C7320521   5.620   3.483   0.832 -1.3250 -0.3494 -0.7846
  145MOL    O7420522   5.757   3.520   0.865  0.3245  0.1798 -0.3332
  145MOL    H7520523   5.490   3.517   0.670 -0.4043 -1.2902  2.6313
  145MOL    H7620524   5.667   3.539   0.637  0.7871 -1.8049  1.6073
  145MOL    H7720525   5.620   3.376   0.809 -4.1021 -0.6217  0.3758
  145MOL    H7820526   5.546   3.495   0.911  0.5047  1.1263  0.7584
  145MOL    C7920527   5.769   3.633   0.946  0.6592 -0.6960 -0.3948
  145MOL    C8020528   5.918   3.671   0.957 -0.9912  0.2793 -0.7179
  145MOL    O8120529   5.977   3.740   0.853 -0.1727 -0.4422  0.0864
  145MOL    H8220530   5.706   3.717   0.915  0.3067 -1.2229 -1.1345
  145MOL    H8320531   5.729   3.600   1.042 -0.2324 -0.0613 -0.5336
  145MOL    H8420532   5.982   3.586   0.983  0.8326  1.3765 -1.5248
  145MOL    H8520533   5.929   3.731   1.047  1.5196 -2.2371  0.7300
  145MOL    C8620534   5.992   3.669   0.732 -0.2609  0.2530 -0.5920
  145MOL    C8720535   6.094   3.738   0.633 -0.2668 -0.1511  0.2089
  145MOL    O8820536   6.228   3.721   0.679  0.1724  0.3889 -0.2641
  145MOL    H8920537   6.035   3.571   0.751  0.8956  0.5529 -1.5931
  145MOL    H9020538   5.893   3.658   0.686  0.7381 -1.3228 -2.4701
  145MOL    H9120539   6.070   3.842   0.613  0.2145  0.0424  0.6204
  145MOL    H9220540   6.099   3.701   0.531  1.0468  4.2443 -1.4246
  145MOL    C9320541   6.328   3.764   0.586 -0.3015  0.5023  0.2235
  145MOL    C9420542   6.469   3.772   0.645 -0.2174  0.1814  0.5646
  145MOL    O9520543   6.540   3.649   0.642  0.2153 -0.1285  0.7945
  145MOL    H9620544   6.321   3.699   0.499 -2.6660  1.5673 -0.4374
  145MOL    H9720545   6.305   3.864   0.549  1.1129  0.4230 -0.9059
  145MOL    H9820546   6.465   3.809   0.748 -0.4640  2.7233 -0.3349
  145MOL    H9920547   6.532   3.848   0.598  1.6676 -0.1779  2.3995
  145MOL   C10020548   6.662   3.661   0.713  0.0990  0.2609 -0.3305
  145MOL   C10120549   6.749   3.536   0.711 -0.4847 -0.4696  0.0910
  145MOL   O10220550   6.814   3.518   0.584  0.1425  0.5777 -0.0111
  145MOL   H10320551   6.718   3.750   0.683  0.6758  0.4704  1.2971
  145MOL   H10420552   6.638   3.678   0.818 -0.5513 -2.8356  0.0695
  145MOL   H10520553   6.690   3.449   0.739 -0.4732 -0.2828  0.7180
  145MOL   H10620554   6.828   3.541   0.787  0.4978  0.1398 -0.9490
  145MOL   C10720555   6.907   3.409   0.598 -0.5801 -0.2086  0.0089
  145MOL   C10820556   7.052   3.449   0.629  0.3405 -0.0398  0.3173
  145MOL   O10920557   7.067   3.488   0.766 -0.0431  0.3458  0.3755
  145MOL   H11020558   6.863   3.340   0.670 -2.7256 -0.3987 -1.4294
  145MOL   H11120559   6.917   3.352   0.505 -1.7659  0.5399 -0.5933
  145MOL   H11220560   7.072   3.539   0.571 -0.6100 -0.2880 -0.4280
  145MOL   H11320561   7.131   3.374   0.618  0.1659 -0.1984  0.1310
  145MOL   C11420562   7.194   3.531   0.795  0.0101  0.4060 -0.5208
  145MOL   C11520563   7.188   3.605   0.934  0.2456 -0.7158 -0.2018
  145MOL   O11620564   7.157   3.746   0.917 -0.1228  0.0326  0.5646
  145MOL   H11720565   7.243   3.435   0.803  0.1320  0.4532 -0.7122
  145MOL   H11820566   7.238   3.583   0.710 -0.7628  1.1775 -0.4610
  145MOL   H11920567   7.285   3.598   0.982 -0.5812  0.3911  1.6816
  145MOL   H12020568   7.113   3.567   1.003  1.1017 -0.4213  0.8908
  145MOL   C12120569   7.029   3.764   0.851  0.4982 -0.3122  0.7110
  145MOL   C12220570   6.988   3.913   0.842 -0.8116  0.3164 -0.5062
  145MOL   O12320571   7.080   3.999   0.775  0.1128 -0.4397 -0.5329
  145MOL   H12420572   7.033   3.733   0.747 -0.8420  1.6788  0.0455
  145MOL   H12520573   6.952   3.698   0.890 -1.5579  2.1005  0.9103
  145MOL   H12620574   6.966   3.949   0.942 -0.9085  1.0073 -0.7729
  145MOL   H12720575   6.902   3.922   0.775 -0.6777 -0.1590 -0.7496
  145MOL   C12820576   7.038   4.136   0.773  0.8010 -0.1378 -0.0839
  145MOL   C12920577   7.139   4.233   0.710 -0.6062  0.1442 -0.2008
  145MOL   O13020578   7.247   4.252   0.806 -0.3048  0.3413  0.4738
  145MOL   H13120579   6.943   4.144   0.719  1.8037 -1.0846 -2.0514
  145MOL   H13220580   7.009   4.179   0.869 -1.0255  1.0046 -1.1132
  145MOL   H13320581   7.091   4.329   0.693  0.5257  0.7029 -0.2833
  145MOL   H13420582   7.187   4.187   0.624 -0.4000 -1.7785  0.9057
  145MOL   C13520583   7.338   4.356   0.774 -0.1014 -0.3712 -0.0779
  145MOL   C13620584   7.453   4.347   0.877 -0.1640  0.1019  0.1855
  145MOL   O13720585   7.506   4.218   0.864 -0.4610  0.1375  0.0721
  145MOL   H13820586   7.379   4.363   0.673  0.6617  1.1728  0.3296
  145MOL   H13920587   7.286   4.450   0.785  1.4626  0.5127 -0.0921
  145MOL   H14020588   7.425   4.361   0.981 -0.1447 -3.0855  0.6752
  145MOL   H14120589   7.526   4.421   0.844 -1.3038  1.3119  0.3212
  145MOL   H14220590   7.446   4.162   0.818  0.9480 -1.6448  0.3657
  146MOL     C120591   1.861   1.580   2.256 -0.1587 -0.6382 -0.6157
  146MOL     C220592   1.816   1.730   2.258 -0.6829  0.3803  0.1671
  146MOL     O320593   1.733   1.770   2.149  0.5101 -0.0808 -0.0778
  146MOL     H420594   1.931   1.562   2.337 -0.5599  1.9218  0.3615
  146MOL     H520595   1.896   1.547   2.158  0.5965  0.4767 -0.7292
  146MOL     H620596   1.911   1.783   2.262 -1.9146  2.7554 -0.9953
  146MOL     H720597   1.771   1.756   2.354 -0.6721 -1.5289  0.7226
  146MOL     H820598   1.779   1.517   2.289 -0.9007  1.7655  2.3698
  146MOL     C920599   1.711   1.911   2.137 -0.3169 -0.1428  0.6989
  146MOL    C1020600   1.833   1.986   2.085  0.2069  0.0302 -0.1370
  146MOL    O1120601   1.884   2.066   2.181  0.1050 -0.1681  0.1610
  146MOL    H1220602   1.622   1.937   2.080 -0.7487 -0.3733  1.2572
  146MOL    H1320603   1.691   1.946   2.238  0.9522  1.1087  0.5361
  146MOL    H1420604   1.797   2.047   2.003 -1.1087 -0.4939  0.0400
  146MOL    H1520605   1.910   1.918   2.047  0.9785 -0.5406  2.2911
  146MOL    C1620606   1.992   2.146   2.127 -0.2956 -0.2633  0.8891
  146MOL    C1720607   2.017   2.270   2.212 -0.3373 -0.0191  0.8473
  146MOL    O1820608   2.067   2.226   2.336  0.0644  0.5135 -0.3362
  146MOL    H1920609   2.077   2.083   2.099 -1.4681 -0.7147 -1.8302
  146MOL    H2020610   1.955   2.192   2.036 -0.0737 -0.7588  0.5426
  146MOL    H2120611   1.929   2.333   2.211 -1.2531 -1.2818 -1.5780
  146MOL    H2220612   2.094   2.325   2.158  0.2785 -2.0846 -0.4349
  146MOL    C2320613   2.109   2.342   2.411 -0.5326 -0.2357 -0.4092
  146MOL    C2420614   2.074   2.308   2.560  0.1052  0.2530  0.6440
  146MOL    O2520615   1.945   2.348   2.605  0.3636  0.0742 -0.1186
  146MOL    H2620616   2.216   2.355   2.396 -0.2503 -0.1079  1.4889
  146MOL    H2720617   2.074   2.440   2.379  2.5034  0.0792 -2.9982
  146MOL    H2820618   2.156   2.348   2.621  0.5887  1.0329 -0.4864
  146MOL    H2920619   2.091   2.201   2.561  0.1341  0.2554  0.3244
  146MOL    C3020620   1.926   2.327   2.741 -0.7472 -0.1867  0.1049
  146MOL    C3120621   1.803   2.401   2.792 -0.0633  0.6306  0.2499
  146MOL    O3220622   1.839   2.542   2.799  0.2034 -0.3745 -0.4571
  146MOL    H3320623   1.908   2.221   2.761  0.1274 -0.4363 -0.4066
  146MOL    H3420624   2.021   2.350   2.790 -0.6079  1.1694 -0.7684
  146MOL    H3520625   1.783   2.365   2.893  0.5273  0.0986  0.1803
  146MOL    H3620626   1.713   2.377   2.735  0.0746  0.8293 -0.0559
  146MOL    C3720627   1.748   2.623   2.877 -0.5043  0.1837 -0.0920
  146MOL    C3820628   1.773   2.769   2.850 -0.3232  0.1314  0.0865
  146MOL    O3920629   1.693   2.843   2.948  0.2679 -0.2151  0.4663
  146MOL    H4020630   1.645   2.600   2.853 -0.6548 -1.9366  2.2807
  146MOL    H4120631   1.772   2.596   2.980  0.8655 -1.1155 -0.7290
  146MOL    H4220632   1.746   2.785   2.746 -1.7212  1.9699  0.7031
  146MOL    H4320633   1.880   2.787   2.865 -0.3278 -0.0079  0.2914
  146MOL    C4420634   1.682   2.972   2.904  0.3472  0.0658 -0.2466
  146MOL    C4520635   1.812   3.042   2.936 -0.0498 -0.2975  0.2351
  146MOL    O4620636   1.893   3.028   2.821 -0.1511  0.2204  0.6599
  146MOL    H4720637   1.663   2.981   2.798  2.1394 -2.1309 -0.8012
  146MOL    H4820638   1.599   3.027   2.949  0.0833  1.1688 -2.0672
  146MOL    H4920639   1.854   2.995   3.026  1.3755 -1.2160 -0.8870
  146MOL    H5020640   1.791   3.148   2.951 -1.4826 -0.8628  2.3434
  146MOL    C5120641   2.024   3.078   2.853  0.7823  0.6368 -0.3022
  146MOL    C5220642   2.039   3.234   2.832 -0.6742  0.3620  0.2546
  146MOL    O5320643   1.970   3.312   2.925 -0.3120  0.4235  0.1315
  146MOL    H5420644   2.046   3.041   2.954 -0.5727 -1.1596 -0.6474
  146MOL    H5520645   2.088   3.030   2.779  0.1974  0.4306 -0.6786
  146MOL    H5620646   2.016   3.260   2.729 -0.1388  0.5346  0.1795
  146MOL    H5720647   2.145   3.256   2.848 -1.1373  2.3715  0.6407
  146MOL    C5820648   1.986   3.455   2.890 -0.0147  0.9406 -0.3176
  146MOL    C5920649   1.933   3.560   2.989  0.2738  0.3557 -0.2578
  146MOL    O6020650   1.789   3.545   3.001 -0.4424 -0.3405 -0.1669
  146MOL    H6120651   2.092   3.477   2.877  0.3223  0.6494  1.8294
  146MOL    H6220652   1.926   3.472   2.800 -1.1710 -0.6853  0.1206
  146MOL    H6320653   1.956   3.660   2.951 -1.1900  0.5068 -0.7892
  146MOL    H6420654   1.989   3.542   3.080 -2.3017 -1.5505  1.0002
  146MOL    C6520655   1.717   3.658   3.056  0.0673  0.3397  0.2288
  146MOL    C6620656   1.657   3.764   2.959  0.3567  0.3607 -0.4908
  146MOL    O6720657   1.540   3.810   3.013  0.3108  0.0352 -0.3658
  146MOL    H6820658   1.643   3.624   3.128  0.1989  3.3580  1.8475
  146MOL    H6920659   1.781   3.715   3.123  1.1056 -1.3101  0.6892
  146MOL    H7020660   1.636   3.729   2.858  0.0659  1.9240 -0.9827
  146MOL    H7120661   1.737   3.838   2.951  0.9857 -0.2622 -0.1039
  146MOL    C7220662   1.549   3.921   3.105 -0.1600 -0.1457 -0.4134
  146MOL    C7320663   1.459   4.031   3.045 -0.8044  0.1282 -1.0874
  146MOL    O7420664   1.546   4.128   2.985  0.5447 -0.7062 -0.6731
  146MOL    H7520665   1.494   3.887   3.193  1.3850 -1.1431  0.1843
  146MOL    H7620666   1.642   3.966   3.139 -0.3156 -1.5379  1.9874
  146MOL    H7720667   1.399   4.076   3.124  1.2862  3.7248 -1.4574
  146MOL    H7820668   1.400   3.987   2.965 -0.8016 -1.0799 -0.4346
  146MOL    C7920669   1.476   4.239   2.921 -0.1125  0.8483 -0.6728
  146MOL    C8020670   1.569   4.312   2.829 -0.3975  0.5421 -0.4509
  146MOL    O8120671   1.682   4.371   2.908 -0.0935  0.8235  0.1369
  146MOL    H8220672   1.399   4.184   2.867  0.7854  0.5081 -1.6341
  146MOL    H8320673   1.430   4.299   2.999 -0.0979  0.9172 -0.7172
  146MOL    H8420674   1.507   4.386   2.778  0.1351  0.5968 -1.0204
  146MOL    H8520675   1.615   4.247   2.755  1.6834 -1.5502  2.5647
  146MOL    C8620676   1.776   4.441   2.834 -0.1822  0.2336 -0.2909
  146MOL    C8720677   1.875   4.349   2.768  0.6240 -0.3087 -1.0728
  146MOL    O8820678   1.984   4.421   2.710  0.3554  0.6106  0.5646
  146MOL    H8920679   1.726   4.506   2.763 -0.8250 -1.3722 -1.3557
  146MOL    H9020680   1.835   4.499   2.904 -0.2868 -2.6554  2.3178
  146MOL    H9120681   1.822   4.286   2.697 -2.2556 -0.2459  0.9454
  146MOL    H9220682   1.917   4.296   2.854 -0.6739 -1.1175 -0.9182
  146MOL    C9320683   2.048   4.374   2.598 -0.0050  0.0279 -0.2369
  146MOL    C9420684   2.186   4.441   2.588 -0.1633 -0.0403 -0.4211
  146MOL    O9520685   2.281   4.433   2.695 -0.1850 -0.0067  0.8156
  146MOL    H9620686   2.049   4.266   2.607  0.4630  0.0645  0.1779
  146MOL    H9720687   1.984   4.388   2.511 -0.8883 -3.1972 -0.1739
  146MOL    H9820688   2.178   4.549   2.573 -2.3551 -0.2873 -1.2103
  146MOL    H9920689   2.224   4.396   2.497 -1.5803 -1.3165 -0.3922
  146MOL   C10020690   2.413   4.462   2.650  0.0428 -0.7776  0.2739
  146MOL   C10120691   2.499   4.398   2.756  0.0187  0.4348 -0.5502
  146MOL   O10220692   2.637   4.432   2.734  0.3632  0.0555 -0.4453
  146MOL   H10320693   2.442   4.419   2.555 -2.2777 -0.2090 -0.7245
  146MOL   H10420694   2.422   4.569   2.629  3.3477 -1.1935 -0.6606
  146MOL   H10520695   2.487   4.290   2.760 -0.4924  0.3537 -3.4955
  146MOL   H10620696   2.476   4.429   2.858 -0.5424  0.7074 -0.7608
  146MOL   C10720697   2.720   4.423   2.842 -0.5957 -0.4826  0.4091
  146MOL   C10820698   2.867   4.382   2.795 -0.0226 -0.3175 -0.1239
  146MOL   O10920699   2.856   4.266   2.722  0.2829 -0.0676 -0.1361
  146MOL   H11020700   2.720   4.512   2.904 -0.6172  0.6342 -1.1791
  146MOL   H11120701   2.690   4.341   2.908  1.2266 -1.6223 -0.1197
  146MOL   H11220702   2.932   4.360   2.879  0.3907 -3.6331 -1.2395
  146MOL   H11320703   2.906   4.469   2.741 -3.0240  1.8842  1.0848
  146MOL   C11420704   2.979   4.203   2.679  0.2664 -0.1170  0.5580
  146MOL   C11520705   2.947   4.078   2.599  0.1778 -0.0360  0.2794
  146MOL   O11620706   3.051   4.035   2.511 -0.1868 -0.3491 -0.4995
  146MOL   H11720707   3.038   4.270   2.616  1.3230 -1.1679  0.4251
  146MOL   H11820708   3.042   4.177   2.764  2.0661 -0.3416 -0.8162
  146MOL   H11920709   2.854   4.088   2.544  1.4883 -0.8056 -2.1146
  146MOL   H12020710   2.923   4.009   2.680 -1.0892 -0.8192 -0.7500
  146MOL   C12120711   3.140   3.935   2.560  0.3816  0.1609  0.4420
  146MOL   C12220712   3.209   3.873   2.444 -0.2859  0.1350  0.3042
  146MOL   O12320713   3.145   3.767   2.382  0.1210 -0.3807 -0.8607
  146MOL   H12420714   3.220   3.977   2.621  0.1730  1.2066  0.0145
  146MOL   H12520715   3.087   3.860   2.618 -1.4682  0.8023 -0.3780
  146MOL   H12620716   3.304   3.832   2.478  0.8887  2.5656  0.0584
  146MOL   H12720717   3.235   3.950   2.371  1.0289 -0.0450  0.5557
  146MOL   C12820718   3.226   3.695   2.291  0.1145 -0.0303  0.2892
  146MOL   C12920719   3.136   3.601   2.203  0.5579 -1.3855  0.3535
  146MOL   O13020720   3.206   3.514   2.112 -0.2800  0.0186  0.1028
  146MOL   H13120721   3.277   3.767   2.228 -0.2480 -0.4401 -0.4814
  146MOL   H13220722   3.290   3.621   2.339 -2.0550 -1.5715  0.9059
  146MOL   H13320723   3.059   3.662   2.155  0.4078 -1.9798 -0.1668
  146MOL   H13420724   3.080   3.542   2.275 -0.7731  0.4894  0.8950
  146MOL   C13520725   3.263   3.589   2.008  0.6641 -0.5565  1.0846
  146MOL   C13620726   3.362   3.490   1.934  0.5136 -0.6286  0.2358
  146MOL   O13720727   3.479   3.484   2.009  0.1860  0.0146  0.1879
  146MOL   H13820728   3.183   3.609   1.937  1.1786  0.7037  0.8528
  146MOL   H13920729   3.312   3.685   2.019 -0.2530  0.0301  0.0760
  146MOL   H14020730   3.378   3.511   1.828  0.0831  1.5382  0.5706
  146MOL   H14120731   3.306   3.397   1.926 -0.6994  0.2011 -1.5993
  146MOL   H14220732   3.456   3.426   2.080 -1.7266 -2.0989 -2.0662
  147MOL     C120733   6.979   2.040   4.078  0.3292  0.0555 -0.9947
  147MOL     C220734   6.901   2.115   4.192 -0.1463 -0.3676 -0.2450
  147MOL     O320735   6.904   2.056   4.315  0.2501 -0.0605 -0.1974
  147MOL     H420736   6.998   2.098   3.987 -1.1865  2.2729  0.0678
  147MOL     H520737   6.932   1.946   4.049 -0.6546  0.5412 -0.9713
  147MOL     H620738   6.804   2.118   4.141 -0.9328  0.0360  1.2668
  147MOL     H720739   6.918   2.222   4.205  1.7482 -0.8987  1.7947
  147MOL     H820740   7.073   2.007   4.123 -0.4795 -2.6342 -1.1750
  147MOL     C920741   6.808   2.108   4.407 -0.3537  0.5553 -0.4622
  147MOL    C1020742   6.787   2.022   4.526 -0.2176 -0.1180  0.3754
  147MOL    O1120743   6.681   1.930   4.505  0.0771 -0.1528  0.1721
  147MOL    H1220744   6.853   2.198   4.449  0.4991  0.4499 -1.1334
  147MOL    H1320745   6.713   2.136   4.361  1.0191  1.4498 -2.8778
  147MOL    H1420746   6.760   2.088   4.609 -0.3393  1.5099 -0.9339
  147MOL    H1520747   6.888   1.982   4.538  0.6423  1.4821 -1.2425
  147MOL    C1620748   6.636   1.860   4.622 -0.6276  0.2685  0.2044
  147MOL    C1720749   6.748   1.759   4.665  0.6581 -0.1836  0.2518
  147MOL    O1820750   6.731   1.631   4.601 -0.5189 -0.1645  0.0777
  147MOL    H1920751   6.639   1.929   4.707 -0.2221  0.4987  0.0025
  147MOL    H2020752   6.541   1.807   4.611 -0.9962  1.2497 -1.3613
  147MOL    H2120753   6.748   1.738   4.772 -1.0145 -1.2763  0.0487
  147MOL    H2220754   6.843   1.807   4.640  0.0804  0.7829 -0.0926
  147MOL    C2320755   6.725   1.632   4.456  0.0933  0.0476  0.2483
  147MOL    C2420756   6.680   1.489   4.433  0.5044  0.5984 -0.4132
  147MOL    O2520757   6.655   1.482   4.294 -0.2876  0.3304  0.2335
  147MOL    H2620758   6.647   1.698   4.418  2.8296  3.3280  0.0558
  147MOL    H2720759   6.822   1.642   4.407  1.3212  1.8059  2.9538
  147MOL    H2820760   6.591   1.466   4.491  0.8200 -2.0250 -0.9177
  147MOL    H2920761   6.753   1.412   4.457  0.2744  0.3338 -0.5558
  147MOL    C3020762   6.583   1.371   4.245 -0.0557 -0.5582 -0.0965
  147MOL    C3120763   6.588   1.394   4.090 -0.1514  0.4702  0.2067
  147MOL    O3220764   6.688   1.331   4.021 -0.5103 -0.2476 -0.2562
  147MOL    H3320765   6.616   1.279   4.294  0.7885 -0.1054  0.1874
  147MOL    H3420766   6.478   1.376   4.272 -1.0541 -1.9919 -3.4278
  147MOL    H3520767   6.599   1.501   4.068  1.1423  0.9682  3.1683
  147MOL    H3620768   6.498   1.362   4.037  0.4804 -1.9954  0.6034
  147MOL    C3720769   6.827   1.342   4.068 -0.1668 -0.0421 -0.5632
  147MOL    C3820770   6.926   1.303   3.954  0.5386  0.3657  0.0641
  147MOL    O3920771   6.947   1.164   3.955  0.0027  0.4455  0.1253
  147MOL    H4020772   6.844   1.447   4.089  1.2784 -0.9008  2.7928
  147MOL    H4120773   6.853   1.289   4.160  1.2678  0.7138 -0.5090
  147MOL    H4220774   7.026   1.347   3.952  1.2258 -1.1721  0.0810
  147MOL    H4320775   6.878   1.331   3.860 -0.4190 -0.9989  0.1375
  147MOL    C4420776   6.842   1.086   3.899  0.0900 -0.0682  0.8577
  147MOL    C4520777   6.864   0.935   3.919  0.4649 -0.0524  0.3992
  147MOL    O4620778   6.877   0.894   4.055  0.0787  0.2922  0.1344
  147MOL    H4720779   6.744   1.108   3.941 -0.2210 -0.5871  0.4084
  147MOL    H4820780   6.836   1.104   3.792 -0.2583 -0.3898  0.8227
  147MOL    H4920781   6.956   0.917   3.863  0.9479  4.4362 -0.4084
  147MOL    H5020782   6.784   0.878   3.872  0.2020  0.8249 -0.2396
  147MOL    C5120783   6.928   0.752   4.058  0.8363 -0.6854  0.1628
  147MOL    C5220784   6.910   0.685   4.191 -0.2669  0.2852  1.4870
  147MOL    O5320785   6.779   0.674   4.245  0.5844  0.2446  0.2664
  147MOL    H5420786   6.892   0.677   3.987 -1.1294  1.3934 -1.1193
  147MOL    H5520787   7.032   0.758   4.027  0.4339  3.3855 -0.7566
  147MOL    H5620788   6.968   0.736   4.267  3.5886  0.6970 -1.5714
  147MOL    H5720789   6.957   0.586   4.187 -1.2851 -0.1633  0.1323
  147MOL    C5820790   6.689   0.614   4.149 -0.3962  0.5643  0.6999
  147MOL    C5920791   6.567   0.556   4.226  0.0830 -0.0642 -0.2964
  147MOL    O6020792   6.597   0.434   4.289  0.4190  0.4659 -0.4675
  147MOL    H6120793   6.663   0.693   4.079 -0.5971  1.0442  1.3032
  147MOL    H6220794   6.747   0.538   4.096 -0.4479  1.5236 -0.7437
  147MOL    H6320795   6.481   0.535   4.162  1.2837 -1.4907 -1.4504
  147MOL    H6420796   6.525   0.632   4.293  0.8191 -1.2950  1.6244
  147MOL    C6520797   6.482   0.396   4.367  0.2976  0.2020  0.2889
  147MOL    C6620798   6.507   0.258   4.432  0.2917 -0.1687 -0.4013
  147MOL    O6720799   6.548   0.264   4.565  0.4542 -0.0026  0.1360
  147MOL    H6820800   6.469   0.477   4.438  0.2753  0.5627 -0.1199
  147MOL    H6920801   6.390   0.394   4.308  0.5960 -2.4344 -0.1659
  147MOL    H7020802   6.547   0.180   4.367  1.4822  1.1004 -1.2023
  147MOL    H7120803   6.412   0.204   4.436  0.2725 -0.0281  1.1661
  147MOL    C7220804   6.598   0.142   4.612  0.2434  0.0418 -0.6537
  147MOL    C7320805   6.575   0.151   4.761 -0.2813  0.0386  0.3610
  147MOL    O7420806   6.438   0.150   4.790  0.0269  0.3111  0.0418
  147MOL    H7520807   6.542   0.052   4.587 -0.1624 -0.2855  1.3700
  147MOL    H7620808   6.700   0.131   4.574 -0.2499  0.9439 -2.3263
  147MOL    H7720809   6.634   0.233   4.801 -0.6508  0.9079 -0.8608
  147MOL    H7820810   6.618   0.060   4.803 -1.2820  0.1212  1.6093
  147MOL    C7920811   6.416   0.153   4.923  0.4316 -0.3743  0.0155
  147MOL    C8020812   6.262   0.152   4.943 -0.0772  0.6761  0.5594
  147MOL    O8120813   6.199   0.270   4.902  0.3530 -0.1457 -0.2969
  147MOL    H8220814   6.473   0.071   4.966  0.0952  0.7779  2.7475
  147MOL    H8320815   6.446   0.252   4.958 -1.0145  0.1308 -0.1720
  147MOL    H8420816   6.243   0.122   5.046 -2.5257  1.2443  0.3042
  147MOL    H8520817   6.224   0.065   4.890  0.3003  1.4337 -0.9630
  147MOL    C8620818   6.064   0.270   4.935 -0.2924  0.8203 -0.0419
  147MOL    C8720819   6.007   0.408   4.899  0.0944  0.2353  0.0479
  147MOL    O8820820   5.957   0.426   4.768  0.2110  0.0313 -0.0029
  147MOL    H8920821   6.013   0.195   4.875 -1.7657  2.9836 -1.5844
  147MOL    H9020822   6.056   0.252   5.042  1.5472  0.3851  0.0446
  147MOL    H9120823   6.080   0.488   4.911  0.9654 -0.5608  0.1934
  147MOL    H9220824   5.917   0.424   4.959 -0.6709 -1.6060 -0.5793
  147MOL    C9320825   6.048   0.458   4.667 -0.0005 -0.8053  0.5435
  147MOL    C9420826   5.972   0.520   4.549 -0.1990  0.0108 -0.0035
  147MOL    O9520827   5.888   0.429   4.470 -0.1678 -0.1471 -0.4457
  147MOL    H9620828   6.121   0.535   4.692 -0.1737 -1.3694  2.8633
  147MOL    H9720829   6.103   0.368   4.639  1.4490  0.5994 -1.2448
  147MOL    H9820830   6.033   0.585   4.487 -0.2295 -1.1064 -1.2129
  147MOL    H9920831   5.908   0.595   4.595  0.7358  0.4239  0.6401
  147MOL   C10020832   5.824   0.497   4.360  0.3319  0.5194  0.2464
  147MOL   C10120833   5.914   0.552   4.249 -0.3074 -0.0067 -1.4741
  147MOL   O10220834   5.968   0.449   4.169 -1.0853  0.1134  0.3201
  147MOL   H10320835   5.770   0.414   4.313 -0.1838 -0.6713  2.8797
  147MOL   H10420836   5.763   0.575   4.406  0.2653  0.5991  0.0237
  147MOL   H10520837   5.990   0.625   4.280 -1.7171  0.7111  0.3586
  147MOL   H10620838   5.855   0.601   4.172 -1.1245  2.5374  0.6766
  147MOL   C10720839   6.100   0.410   4.216 -0.1790 -0.7011  0.8046
  147MOL   C10820840   6.142   0.287   4.134 -0.5259  0.0904 -0.0608
  147MOL   O10920841   6.172   0.327   3.994  0.0425  0.0634  0.6353
  147MOL   H11020842   6.168   0.491   4.189  0.7933 -1.6009  0.5131
  147MOL   H11120843   6.100   0.393   4.324  1.3206 -0.7618  0.8109
  147MOL   H11220844   6.072   0.204   4.131 -0.7189  0.2674 -0.4952
  147MOL   H11320845   6.230   0.260   4.192  0.6817  2.3193 -0.8203
  147MOL   C11420846   6.230   0.216   3.930 -0.5038  0.3916 -0.6588
  147MOL   C11520847   6.331   0.264   3.833 -0.0749  0.1251 -0.0783
  147MOL   O11620848   6.274   0.349   3.728 -0.6873  0.4896 -0.0479
  147MOL   H11720849   6.273   0.144   4.000 -0.1852 -0.8589 -2.1063
  147MOL   H11820850   6.146   0.173   3.874 -1.6833 -2.0759  2.8007
  147MOL   H11920851   6.361   0.168   3.791 -2.2139 -0.1818 -0.9109
  147MOL   H12020852   6.407   0.316   3.892 -0.2630  0.8307 -0.4506
  147MOL   C12120853   6.350   0.361   3.609 -0.4685 -0.3669  0.0139
  147MOL   C12220854   6.264   0.437   3.501  0.2460  0.5983  0.8499
  147MOL   O12320855   6.255   0.574   3.533  0.2751 -0.2961 -0.0547
  147MOL   H12420856   6.437   0.422   3.635  0.0467 -1.3992  0.7553
  147MOL   H12520857   6.385   0.266   3.569  0.7257 -0.6061  1.5668
  147MOL   H12620858   6.166   0.388   3.500  0.5007  0.0952 -1.8090
  147MOL   H12720859   6.322   0.430   3.409  2.5109 -1.3362  2.3696
  147MOL   C12820860   6.188   0.646   3.433 -0.1848  0.3016 -0.0528
  147MOL   C12920861   6.170   0.798   3.463  0.0626  1.0028  0.4411
  147MOL   O13020862   6.294   0.870   3.463 -0.2473 -0.3268  0.5799
  147MOL   H13120863   6.230   0.617   3.337 -1.1771 -2.6307  0.3413
  147MOL   H13220864   6.084   0.614   3.441  0.4175 -2.5886 -2.7210
  147MOL   H13320865   6.128   0.805   3.564  1.7431 -0.4465  1.2869
  147MOL   H13420866   6.094   0.834   3.395  1.2576  1.7574 -0.5257
  147MOL   C13520867   6.280   1.007   3.509  0.6926 -0.0330  0.3779
  147MOL   C13620868   6.415   1.088   3.488  0.8744 -0.2274  0.0112
  147MOL   O13720869   6.390   1.226   3.507  0.4007  0.2342 -0.6604
  147MOL   H13820870   6.195   1.053   3.459 -0.2264 -2.6079 -0.5010
  147MOL   H13920871   6.256   0.991   3.614 -1.2610 -0.0985 -0.0569
  147MOL   H14020872   6.462   1.076   3.390 -0.2980 -0.8874 -0.4868
  147MOL   H14120873   6.488   1.052   3.560 -0.2122 -1.6479  0.4255
  147MOL   H14220874   6.303   1.241   3.542 -1.2652  0.0096 -4.4630
  148MOL     C120875   0.985   5.872   1.462  0.2574  0.1382  0.0140
  148MOL     C220876   0.978   5.907   1.310  0.4010  0.3535 -0.2193
  148MOL     O320877   1.076   6.001   1.275  0.2971 -0.2501 -0.2796
  148MOL     H420878   0.912   5.795   1.488  0.9731 -0.5518 -0.0036
  148MOL     H520879   0.977   5.955   1.531  0.6238  0.0724  0.1376
  148MOL     H620880   0.884   5.958   1.290  0.2093 -0.7602 -2.2747
  148MOL     H720881   0.990   5.823   1.242  0.2823 -0.2697  0.5279
  148MOL     H820882   1.080   5.832   1.497  0.7074  1.2625  0.0975
  148MOL     C920883   1.075   6.034   1.135 -0.2148 -0.3056  0.1049
  148MOL    C1020884   1.155   6.161   1.097 -0.3953 -0.8227 -0.5708
  148MOL    O1120885   1.293   6.107   1.097 -0.2290  0.0514 -0.3180
  148MOL    H1220886   1.104   5.948   1.076 -1.3556  1.5938 -3.3944
  148MOL    H1320887   0.973   6.063   1.108 -0.1371  0.4845  0.6197
  148MOL    H1420888   1.149   6.231   1.181 -2.4940 -0.4925 -0.9657
  148MOL    H1520889   1.131   6.201   0.999  1.7945  0.5895 -0.5670
  148MOL    C1620890   1.391   6.206   1.105  0.2384  0.4805  0.3087
  148MOL    C1720891   1.534   6.145   1.097 -0.5875 -0.0217  0.4718
  148MOL    O1820892   1.557   6.074   0.979  0.2443 -0.0998 -0.3276
  148MOL    H1920893   1.362   6.265   1.018 -1.9402 -1.6051 -0.4467
  148MOL    H2020894   1.381   6.266   1.195 -1.4736  0.7436 -0.0551
  148MOL    H2120895   1.554   6.079   1.181  2.8189 -2.2630 -1.9505
  148MOL    H2220896   1.608   6.224   1.101  0.2271 -0.8774  4.2038
  148MOL    C2320897   1.515   5.938   0.967  0.2310 -0.2841 -0.6922
  148MOL    C2420898   1.549   5.894   0.827  0.2854 -0.1737 -0.3498
  148MOL    O2520899   1.456   5.929   0.724 -0.3697 -0.1038  0.4701
  148MOL    H2620900   1.569   5.877   1.039 -0.2137  0.0354 -0.0804
  148MOL    H2720901   1.409   5.934   0.993  0.4934  0.9350  0.6105
  148MOL    H2820902   1.551   5.785   0.828  0.3972 -0.1864 -1.6306
  148MOL    H2920903   1.653   5.921   0.810  0.4944  0.1068  1.3096
  148MOL    C3020904   1.472   6.058   0.669  0.3796  0.0989  0.3916
  148MOL    C3120905   1.354   6.143   0.707  0.0667 -0.2447  0.6635
  148MOL    O3220906   1.247   6.122   0.618 -0.4964 -0.1404  0.1772
  148MOL    H3320907   1.565   6.109   0.695 -0.0330 -0.2566  2.6834
  148MOL    H3420908   1.465   6.042   0.562 -1.8011 -1.5260  0.7367
  148MOL    H3520909   1.385   6.247   0.699  1.5055 -0.7999 -1.4564
  148MOL    H3620910   1.337   6.139   0.814  2.9183  1.8600  1.2690
  148MOL    C3720911   1.124   6.189   0.652  0.2590  0.8657  0.1295
  148MOL    C3820912   1.017   6.179   0.539  0.4795  0.2457  0.8018
  148MOL    O3920913   0.988   6.305   0.481 -0.9065 -0.3403  0.3166
  148MOL    H4020914   1.077   6.147   0.741 -0.4002  0.3050 -0.4766
  148MOL    H4120915   1.145   6.295   0.664  0.3717  1.1124 -2.0487
  148MOL    H4220916   0.919   6.138   0.564 -0.3566  1.1442 -0.9200
  148MOL    H4320917   1.038   6.116   0.453 -2.9260  1.5948 -1.1006
  148MOL    C4420918   1.088   6.347   0.385  0.7078 -0.7630 -0.4810
  148MOL    C4520919   1.057   6.498   0.349  0.0512 -0.4326  0.3520
  148MOL    O4620920   1.096   6.515   0.216 -0.8979 -0.0846 -0.0959
  148MOL    H4720921   1.186   6.328   0.429  0.8807 -0.1006 -0.5797
  148MOL    H4820922   1.073   6.285   0.297 -0.1277 -0.9860 -0.1865
  148MOL    H4920923   1.099   6.577   0.411 -2.7176  1.3645  0.0524
  148MOL    H5020924   0.950   6.517   0.361  0.2912  1.2546 -0.0947
  148MOL    C5120925   1.052   6.633   0.150  0.4205  0.3449 -0.5107
  148MOL    C5220926   1.110   6.656   0.012  0.1790 -0.3863 -0.4127
  148MOL    O5320927   1.246   6.695   0.038 -0.5093 -0.4549 -0.0197
  148MOL    H5420928   0.943   6.629   0.147  0.3898 -1.2541  1.5845
  148MOL    H5520929   1.069   6.716   0.218  0.2662 -0.1555  0.1435
  148MOL    H5620930   1.056   6.734   7.728  2.4007  1.7244  0.2847
  148MOL    H5720931   1.100   6.562   7.730  2.2435  0.0744 -1.6874
  148MOL    C5820932   1.337   6.657   7.716 -0.7208  0.7054  0.3265
  148MOL    C5920933   1.477   6.705   7.759 -0.0769 -1.0651  0.1528
  148MOL    O6020934   1.591   6.623   7.724 -0.0506 -0.3136  0.9458
  148MOL    H6120935   1.340   6.548   7.720 -0.1794  0.7561  1.5336
  148MOL    H6220936   1.318   6.700   7.618 -1.1190 -1.3166 -0.5162
  148MOL    H6320937   1.482   6.710   0.096 -1.0162  1.2006  0.1375
  148MOL    H6420938   1.491   6.809   7.730  0.6717 -1.4156 -0.7552
  148MOL    C6520939   1.600   6.615   7.583  0.2695 -0.5251 -0.4084
  148MOL    C6620940   1.750   6.576   7.564  0.5624  0.0561 -0.0247
  148MOL    O6720941   1.819   6.702   7.586  0.4946 -0.3896  0.1598
  148MOL    H6820942   1.530   6.540   7.546 -2.0026  1.7394 -0.7935
  148MOL    H6920943   1.591   6.703   7.520  2.3951  0.0775  0.0690
  148MOL    H7020944   1.770   6.544   7.462 -4.0048  2.5576 -1.9012
  148MOL    H7120945   1.786   6.505   7.638  0.1484 -2.9259 -2.5879
  148MOL    C7220946   1.956   6.686   7.547  0.7994  0.0690 -0.0982
  148MOL    C7320947   2.035   6.821   7.542 -0.0179 -0.5643  0.6802
  148MOL    O7420948   2.142   6.829   7.442 -0.4298  0.3922  0.0867
  148MOL    H7520949   2.013   6.623   7.615  0.2863  0.6672  0.8883
  148MOL    H7620950   1.959   6.640   7.448 -0.0469 -0.0914 -0.0531
  148MOL    H7720951   2.078   6.832   7.642  1.5186  0.9507 -0.1415
  148MOL    H7820952   1.975   6.907   7.514  0.5562 -0.4594 -0.2066
  148MOL    C7920953   2.235   6.941   7.457 -0.1911 -0.0465  0.1678
  148MOL    C8020954   2.343   6.926   7.355  0.1489 -1.2655 -0.1009
  148MOL    O8120955   2.445   7.027   7.362  0.2116  0.4916  0.1731
  148MOL    H8220956   2.186   7.037   7.440 -1.4780 -0.5631  0.8758
  148MOL    H8320957   2.282   6.933   7.555 -0.7570  0.4638  0.4878
  148MOL    H8420958   2.299   6.918   7.256  1.8906 -0.6959 -0.9324
  148MOL    H8520959   2.390   6.829   7.365  0.7660 -1.0635 -1.0262
  148MOL    C8620960   2.536   7.013   7.262 -0.4671  0.4314  0.6705
  148MOL    C8720961   2.609   7.152   7.249  0.4470 -0.4085  0.3815
  148MOL    O8820962   2.523   7.250   7.200  0.1063  0.4319 -0.2607
  148MOL    H8920963   2.605   6.939   7.301 -1.3027 -0.5120  0.3699
  148MOL    H9020964   2.496   6.973   7.169 -1.9863 -1.4264  2.0844
  148MOL    H9120965   2.702   7.143   7.193  0.6167  0.0721  0.5881
  148MOL    H9220966   2.633   7.174   7.352  1.1478  1.4693 -0.1724
  148MOL    C9320967   2.589   7.383   7.186 -0.3278  0.8389 -0.4024
  148MOL    C9420968   2.489   7.489   7.161  1.1131 -0.6298 -0.0465
  148MOL    O9520969   2.416   7.513   7.286 -0.0531  0.0992 -0.5407
  148MOL    H9620970   2.649   7.408   7.273 -0.2550 -0.5390 -0.0513
  148MOL    H9720971   2.654   7.379   7.098  1.7083 -1.7423  1.1718
  148MOL    H9820972   2.425   7.452   7.080  0.8149  0.1627 -0.1834
  148MOL    H9920973   2.535   7.584   7.131  2.1657 -0.9259  0.5971
  148MOL   C10020974   2.303   7.586   7.251 -0.4571  0.0356 -0.2203
  148MOL   C10120975   2.234   7.599   7.392  0.3041 -0.5772  0.0089
  148MOL   O10220976   2.192   7.739   7.424  0.1221  0.4471 -0.3417
  148MOL   H10320977   2.356   7.676   7.221 -0.3458 -0.9288 -3.0770
  148MOL   H10420978   2.233   7.548   7.176 -0.3510  1.3990 -1.0357
  148MOL   H10520979   2.311   7.578   7.466  1.4236  1.3769 -0.5523
  148MOL   H10620980   2.149   7.531   7.405 -0.5747  0.5231  0.1008
  148MOL   C10720981   2.113   7.746   7.547  0.0281  0.1960 -0.3464
  148MOL   C10820982   2.191   7.732   7.674 -0.9818 -0.1697 -0.5088
  148MOL   O10920983   2.206   7.603   7.720  0.3636  0.5483 -0.2043
  148MOL   H11020984   2.057   0.069   7.546  0.1488  0.2683 -0.2366
  148MOL   H11120985   2.031   7.675   7.555  0.0608  0.3716  1.6379
  148MOL   H11220986   2.129   0.005   7.752 -0.3413 -0.2127  0.0313
  148MOL   H11320987   2.276   0.028   7.663  0.3830 -1.8695 -0.5150
  148MOL   C11420988   2.304   7.598   0.054 -0.5839 -0.4709 -0.6228
  148MOL   C11520989   2.252   7.657   0.188  0.5308 -0.4440  0.5677
  148MOL   O11620990   2.264   0.024   0.179 -0.1809  0.0352 -0.5500
  148MOL   H11720991   2.327   7.492   0.060 -2.7730 -1.0166 -1.2785
  148MOL   H11820992   2.390   7.657   0.021 -2.0562  3.5294  2.2696
  148MOL   H11920993   2.295   7.613   0.278  0.8243  0.5280  0.9072
  148MOL   H12020994   2.146   7.631   0.191  0.6738 -0.9098  1.9517
  148MOL   C12120995   2.383   0.074   0.234  0.3507  0.4912  0.6540
  148MOL   C12220996   2.353   0.207   0.291 -0.4342 -0.4923  0.1969
  148MOL   O12320997   2.322   0.209   0.427 -0.1168  0.4438  0.4591
  148MOL   H12420998   2.434   0.013   0.308 -0.1340  1.3710  1.7243
  148MOL   H12520999   2.450   0.085   0.149 -0.2269 -0.4523  0.0698
  148MOL   H12621000   2.277   0.271   0.246 -0.6665  0.5342  1.9874
  148MOL   H12721001   2.447   0.261   0.283  0.7096 -2.3169  0.9703
  148MOL   C12821002   2.192   0.157   0.457 -0.7990 -0.8697  0.9061
  148MOL   C12921003   2.211   0.011   0.509 -0.2976  0.3083  0.0401
  148MOL   O13021004   2.230   0.016   0.650  0.9470  0.2359  0.5373
  148MOL   H13121005   2.149   0.224   0.532 -0.8309 -0.6868  0.7229
  148MOL   H13221006   2.129   0.158   0.368 -0.2943 -1.3948  0.5387
  148MOL   H13321007   2.298   7.738   0.460 -0.4487  0.3248 -0.2455
  148MOL   H13421008   2.123   7.722   0.487 -0.6856  1.0399 -0.4154
  148MOL   C13521009   2.243   7.665   0.714 -0.0263  0.2512  0.2131
  148MOL   C13621010   2.327   7.691   0.841  0.8048  0.2194  0.0462
  148MOL   O13721011   2.464   7.711   0.825 -0.2149 -0.3938  0.0297
  148MOL   H13821012   2.145   7.633   0.750  1.3460 -1.2748  2.7500
  148MOL   H13921013   2.274   7.580   0.652  0.5544  0.1465  0.6434
  148MOL   H14021014   2.318   7.622   0.924 -1.3469 -0.1814 -0.4874
  148MOL   H14121015   2.278   7.771   0.897 -1.3244 -0.4864 -0.7689
  148MOL   H14221016   2.481   0.016   0.772 -2.4422 -0.0906 -0.2911
  149MOL     C121017   5.005   4.789   5.953  0.4095  0.2311 -0.2942
  149MOL     C221018   4.874   4.856   5.957  0.0328 -1.0142 -0.0752
  149MOL     O321019   4.765   4.767   5.971 -0.2647 -0.2641  0.4820
  149MOL     H421020   5.025   4.737   5.859  2.6302  0.4746  0.0107
  149MOL     H521021   5.017   4.715   6.032  1.0854 -0.2072 -0.7967
  149MOL     H621022   4.857   4.911   5.864 -1.5890  0.6813  1.1848
  149MOL     H721023   4.891   4.929   6.036  0.3602 -0.1615 -0.9312
  149MOL     H821024   5.079   4.863   5.983  0.8839 -0.6103  0.6402
  149MOL     C921025   4.649   4.833   6.024 -0.2096  0.3320  0.4009
  149MOL    C1021026   4.556   4.725   6.080  0.3685 -0.3400  0.0622
  149MOL    O1121027   4.495   4.668   5.961  0.3404  0.6319  0.5546
  149MOL    H1221028   4.680   4.908   6.098 -0.6739  1.2337 -0.3007
  149MOL    H1321029   4.606   4.880   5.936 -0.1335  1.0468  0.7375
  149MOL    H1421030   4.492   4.755   6.163 -0.6749  1.0436 -1.2142
  149MOL    H1521031   4.621   4.656   6.133  2.7470  3.3959  2.2119
  149MOL    C1621032   4.398   4.572   5.988 -0.3200 -0.6542 -0.2332
  149MOL    C1721033   4.276   4.639   6.063 -0.0417 -0.0063 -0.1622
  149MOL    O1821034   4.290   4.623   6.208 -0.4759 -0.8952  0.5110
  149MOL    H1921035   4.375   4.530   5.890 -0.0664  1.6503 -1.2876
  149MOL    H2021036   4.445   4.494   6.049  2.1148 -0.2039 -1.4731
  149MOL    H2121037   4.195   4.581   6.018 -0.1599  0.8626 -1.0710
  149MOL    H2221038   4.267   4.744   6.036 -0.1201 -0.0775 -0.4176
  149MOL    C2321039   4.196   4.710   6.268  0.0431  0.9196 -0.3017
  149MOL    C2421040   4.188   4.697   6.417 -0.0919 -0.4828 -0.0216
  149MOL    O2521041   4.182   4.558   6.440  0.2459  0.1347  0.2298
  149MOL    H2621042   4.202   4.813   6.232  0.2814  0.0573 -2.8533
  149MOL    H2721043   4.105   4.664   6.229 -0.1803  0.9905  0.1289
  149MOL    H2821044   4.086   4.732   6.433  0.0158  0.5174 -1.3866
  149MOL    H2921045   4.261   4.752   6.475  0.0031 -1.7115  1.0390
  149MOL    C3021046   4.203   4.512   6.574 -0.0057 -0.2941 -0.0192
  149MOL    C3121047   4.125   4.389   6.612  0.4548 -0.1633 -0.4802
  149MOL    O3221048   3.986   4.412   6.640  0.4665 -0.6314 -0.5302
  149MOL    H3321049   4.308   4.498   6.598  0.1458 -0.4574 -0.7620
  149MOL    H3421050   4.184   4.591   6.647  0.6305 -1.1150  1.0369
  149MOL    H3521051   4.165   4.345   6.704  2.0484  1.5739 -0.3234
  149MOL    H3621052   4.140   4.310   6.539  3.4279  1.8068 -2.1045
  149MOL    C3721053   3.906   4.294   6.636 -0.5110 -0.2157 -0.5114
  149MOL    C3821054   3.769   4.321   6.710  0.5834  0.1537 -0.3637
  149MOL    O3921055   3.667   4.373   6.629  0.1350 -0.2227 -0.0201
  149MOL    H4021056   3.899   4.253   6.535  0.2490  0.7146 -0.9413
  149MOL    H4121057   3.954   4.214   6.692 -0.0758  0.0964 -0.4381
  149MOL    H4221058   3.790   4.373   6.803 -0.1013 -2.6802  1.4625
  149MOL    H4321059   3.731   4.222   6.737 -1.6794  1.1757  0.2209
  149MOL    C4421060   3.548   4.408   6.714 -0.6183 -0.2072  0.2363
  149MOL    C4521061   3.437   4.470   6.629  0.0811  0.0490 -0.2421
  149MOL    O4621062   3.384   4.379   6.536 -0.8200  0.1492  1.3579
  149MOL    H4721063   3.511   4.322   6.770 -0.3724  0.2543  1.1162
  149MOL    H4821064   3.563   4.491   6.784  0.9044 -0.6211  0.4275
  149MOL    H4921065   3.496   4.546   6.578 -0.0604  0.2013 -0.1784
  149MOL    H5021066   3.361   4.523   6.687  0.7569  0.3191  0.4047
  149MOL    C5121067   3.269   4.305   6.566 -0.5647  0.4575  0.2586
  149MOL    C5221068   3.135   4.370   6.533  0.0834 -0.7451  0.3781
  149MOL    O5321069   3.071   4.302   6.427  0.4709 -0.2994 -0.0015
  149MOL    H5421070   3.276   4.207   6.520  0.6165 -0.0752  1.5111
  149MOL    H5521071   3.268   4.284   6.673 -0.9312  1.1191  0.3883
  149MOL    H5621072   3.145   4.477   6.515 -0.7020 -0.6614  0.4412
  149MOL    H5721073   3.066   4.370   6.618 -2.0152  1.6587 -1.2483
  149MOL    C5821074   2.963   4.375   6.378 -0.7111  0.4533  0.2314
  149MOL    C5921075   2.908   4.283   6.267  0.0751 -0.3156 -0.0217
  149MOL    O6021076   2.933   4.336   6.128  0.5539 -0.3177 -0.3303
  149MOL    H6121077   2.885   4.394   6.451 -1.1142  0.9470 -0.3191
  149MOL    H6221078   2.998   4.469   6.335  1.1724 -0.3271  0.0336
  149MOL    H6321079   2.801   4.266   6.277  0.0723 -1.1929 -1.3747
  149MOL    H6421080   2.943   4.181   6.286 -0.9623 -0.7669 -0.4909
  149MOL    C6521081   2.904   4.233   6.034  0.3082 -1.0221  0.3268
  149MOL    C6621082   2.928   4.302   5.893 -0.5270  0.2008 -0.2154
  149MOL    O6721083   2.859   4.425   5.881  0.3255  0.3821 -0.3922
  149MOL    H6821084   2.969   4.148   6.053  0.5516 -0.7359  0.7763
  149MOL    H6921085   2.800   4.201   6.043  1.0316 -3.6577 -0.2070
  149MOL    H7021086   2.895   4.234   5.814 -2.3430 -2.3544  2.6354
  149MOL    H7121087   3.031   4.335   5.895 -0.3341 -0.4216  0.3048
  149MOL    C7221088   2.883   4.487   5.755 -0.1869 -0.1273  0.1032
  149MOL    C7321089   2.804   4.622   5.737  0.3199  0.1832 -0.2459
  149MOL    O7421090   2.712   4.611   5.632 -0.0998  0.4712 -0.0875
  149MOL    H7521091   2.990   4.490   5.737 -0.0484  1.4532  1.0811
  149MOL    H7621092   2.839   4.422   5.679 -2.0049 -0.3064  1.2894
  149MOL    H7721093   2.877   4.700   5.716 -0.9669  1.3183 -0.6366
  149MOL    H7821094   2.757   4.657   5.828 -0.0249 -1.5978  0.2793
  149MOL    C7921095   2.620   4.719   5.622  0.2518  0.0138  0.7382
  149MOL    C8021096   2.512   4.676   5.515  0.1075 -0.1155  0.1265
  149MOL    O8121097   2.444   4.570   5.577  0.2179  0.3391  0.1938
  149MOL    H8221098   2.571   4.742   5.716 -1.0696  0.0940  0.0503
  149MOL    H8321099   2.677   4.807   5.592 -0.1336  0.3325  0.9352
  149MOL    H8421100   2.560   4.625   5.431 -0.8430 -0.0242 -0.4788
  149MOL    H8521101   2.449   4.760   5.486 -2.4701 -0.8719  3.3328
  149MOL    C8621102   2.331   4.525   5.497 -0.0300  0.2042 -0.1554
  149MOL    C8721103   2.261   4.399   5.537  0.1478  0.1749  0.5049
  149MOL    O8821104   2.135   4.426   5.598 -0.0101  0.5437 -0.5120
  149MOL    H8921105   2.253   4.602   5.492 -0.8546 -0.7117 -1.7244
  149MOL    H9021106   2.362   4.503   5.395  0.6430 -0.6581  0.2327
  149MOL    H9121107   2.326   4.343   5.604 -0.2793 -1.0585 -0.0949
  149MOL    H9221108   2.257   4.334   5.449 -0.0062 -1.9527  2.0409
  149MOL    C9321109   2.076   4.302   5.652  0.6293  0.3886 -0.5104
  149MOL    C9421110   1.924   4.325   5.688 -0.0935  0.1913  0.3455
  149MOL    O9521111   1.904   4.349   5.828  0.8396 -0.1790 -0.2673
  149MOL    H9621112   2.074   4.234   5.567  2.5137  0.0710 -0.3205
  149MOL    H9721113   2.130   4.239   5.722 -1.5810 -2.7019 -1.4609
  149MOL    H9821114   1.878   4.226   5.679 -1.5947  0.9732 -0.8060
  149MOL    H9921115   1.869   4.395   5.625 -3.0101 -1.2318  1.1840
  149MOL   C10021116   1.769   4.394   5.838  0.9318  0.3058 -0.1615
  149MOL   C10121117   1.737   4.429   5.985 -0.1718  0.3000 -0.3558
  149MOL   O10221118   1.769   4.569   6.007  0.2003  0.0018  0.4751
  149MOL   H10321119   1.754   4.487   5.784 -1.5316 -0.9326 -1.7119
  149MOL   H10421120   1.698   4.319   5.802  2.9082 -1.1143 -1.1733
  149MOL   H10521121   1.789   4.357   6.048  0.1804  0.7308 -0.1527
  149MOL   H10621122   1.630   4.427   6.008 -0.2312  0.3995 -0.6184
  149MOL   C10721123   1.909   4.593   6.012  0.2405 -0.3587  0.1572
  149MOL   C10821124   1.941   4.713   6.090 -0.6932 -0.7431  0.0196
  149MOL   O10921125   2.085   4.717   6.090  0.0746  0.0526  0.1594
  149MOL   H11021126   1.963   4.511   6.058 -0.9417 -1.3318 -0.1548
  149MOL   H11121127   1.961   4.611   5.917  3.0270 -1.5564  1.4156
  149MOL   H11221128   1.903   4.714   6.192 -0.8146 -1.0440 -0.0217
  149MOL   H11321129   1.899   4.800   6.038  0.4272  1.2040  2.2784
  149MOL   C11421130   2.156   4.822   6.148  0.1892 -0.5882 -0.7633
  149MOL   C11521131   2.312   4.815   6.118 -0.8331 -0.4078 -0.2300
  149MOL   O11621132   2.356   4.916   6.024  0.2637 -0.2836  0.3361
  149MOL   H11721133   2.118   4.917   6.110 -0.0778  0.0398  1.0278
  149MOL   H11821134   2.132   4.827   6.254 -2.9750  2.4438 -1.5235
  149MOL   H11921135   2.345   4.721   6.073  1.6612  0.3506 -0.0624
  149MOL   H12021136   2.351   4.837   6.217  1.0779 -0.7391 -0.8882
  149MOL   C12121137   2.496   4.901   5.986 -0.0562  0.3310  0.4041
  149MOL   C12221138   2.547   5.037   5.941  0.1160  0.2676  0.4605
  149MOL   O12321139   2.505   5.135   6.024  0.3027 -0.2571  0.7671
  149MOL   H12421140   2.555   4.867   6.071  0.9137  0.4315 -0.2184
  149MOL   H12521141   2.508   4.815   5.920  0.3651  2.2756 -2.1366
  149MOL   H12621142   2.492   5.048   5.847 -2.3728 -0.7040  1.7627
  149MOL   H12721143   2.655   5.044   5.929  0.0461  0.4237 -0.1320
  149MOL   C12821144   2.524   5.268   5.982 -0.0494  0.8789  0.2223
  149MOL   C12921145   2.466   5.305   5.849  0.0977 -0.3017  0.7754
  149MOL   O13021146   2.569   5.275   5.762  0.3469 -0.5948  0.3884
  149MOL   H13121147   2.474   5.326   6.059 -0.4969  0.7267  0.0475
  149MOL   H13221148   2.631   5.291   5.979  0.5427 -1.8082 -0.9683
  149MOL   H13321149   2.429   5.407   5.843  1.4713  0.1065 -1.1771
  149MOL   H13421150   2.373   5.251   5.830 -0.1758  1.1819 -2.4622
  149MOL   C13521151   2.529   5.274   5.626  0.1011  0.8378 -0.1736
  149MOL   C13621152   2.527   5.129   5.577 -0.3522  0.1689 -0.4677
  149MOL   O13721153   2.651   5.056   5.594 -0.4011 -0.3017 -0.2370
  149MOL   H13821154   2.428   5.316   5.617 -1.0718 -1.2432  2.4655
  149MOL   H13921155   2.599   5.342   5.578 -0.8812  1.4075 -0.8284
  149MOL   H14021156   2.513   5.125   5.469 -1.7639 -1.4036 -0.2485
  149MOL   H14121157   2.449   5.060   5.610  0.2278 -1.1326 -1.7677
  149MOL   H14221158   2.717   5.122   5.586 -0.1470 -0.6125 -0.7314
  150MOL     C121159   6.740   4.671   3.712  0.2323  0.0377 -0.4576
  150MOL     C221160   6.679   4.687   3.576  0.9253 -0.0676 -0.2475
  150MOL     O321161   6.643   4.825   3.568  0.6084 -0.3403 -0.5980
  150MOL     H421162   6.844   4.702   3.711  0.4758 -0.8144 -2.0948
  150MOL     H521163   6.746   4.565   3.738  1.3004 -0.4717 -2.6600
  150MOL     H621164   6.588   4.630   3.557  0.9319  0.0661 -0.6917
  150MOL     H721165   6.751   4.658   3.500  0.3745 -0.5978 -0.5649
  150MOL     H821166   6.697   4.722   3.798  0.6179  1.0265 -0.8478
  150MOL     C921167   6.586   4.874   3.445 -0.1795  0.7117  0.1306
  150MOL    C1021168   6.524   5.005   3.484  0.8075 -0.3906  0.6485
  150MOL    O1121169   6.453   5.077   3.381 -0.5436  0.0957  0.2994
  150MOL    H1221170   6.663   4.896   3.370  1.6238 -2.2889  1.0502
  150MOL    H1321171   6.524   4.802   3.393  0.6246 -1.3220  1.9347
  150MOL    H1421172   6.589   5.070   3.542  0.1300 -0.4109  1.4339
  150MOL    H1521173   6.449   4.982   3.560 -1.6021  0.2672 -1.4716
  150MOL    C1621174   6.550   5.156   3.313  0.4621  0.0368 -0.4356
  150MOL    C1721175   6.477   5.261   3.231  0.8364 -0.0516 -0.1475
  150MOL    O1821176   6.425   5.362   3.328 -0.1806  0.0692  0.5388
  150MOL    H1921177   6.623   5.210   3.372 -1.1337  0.9025  0.7783
  150MOL    H2021178   6.610   5.104   3.238  1.3605  2.0804 -1.1733
  150MOL    H2121179   6.395   5.211   3.181  0.4523  1.2818 -0.8835
  150MOL    H2221180   6.536   5.304   3.149  2.9485 -0.6530  1.0218
  150MOL    C2321181   6.371   5.478   3.259  0.2584 -0.3840  0.0449
  150MOL    C2421182   6.434   5.608   3.309 -0.2632 -0.0906  0.1222
  150MOL    O2521183   6.547   5.634   3.229  0.6141  0.2369 -0.3767
  150MOL    H2621184   6.379   5.472   3.151 -1.5291  0.8562 -0.1928
  150MOL    H2721185   6.267   5.492   3.288  0.3523  1.7015 -0.5715
  150MOL    H2821186   6.464   5.589   3.412 -0.0485 -1.1768 -0.1329
  150MOL    H2921187   6.367   5.694   3.309  0.7602  0.7303 -2.1654
  150MOL    C3021188   6.643   5.723   3.283 -0.4453 -0.5893 -0.7283
  150MOL    C3121189   6.770   5.715   3.206 -0.0073  0.4946 -0.0427
  150MOL    O3221190   6.840   5.596   3.230 -0.4147  0.5303 -0.1145
  150MOL    H3321191   6.604   5.825   3.271 -0.4761 -0.2358  2.0727
  150MOL    H3421192   6.652   5.713   3.391  0.8055  1.6199 -0.5962
  150MOL    H3521193   6.836   5.797   3.235 -0.5900  0.4844  1.3510
  150MOL    H3621194   6.736   5.724   3.103 -2.0912 -0.0911  0.5790
  150MOL    C3721195   6.963   5.585   3.154  0.0773 -0.2931 -0.2005
  150MOL    C3821196   7.003   5.437   3.161 -0.7407  0.0414  0.3445
  150MOL    O3921197   6.955   5.354   3.065 -0.4882 -0.5037 -0.5691
  150MOL    H4021198   6.957   5.612   3.049 -0.9244  3.2238  0.6878
  150MOL    H4121199   7.043   5.645   3.196 -1.5234  0.7649  1.3890
  150MOL    H4221200   6.974   5.405   3.261 -1.5893  1.3738  0.5504
  150MOL    H4321201   7.110   5.431   3.145 -0.6479  2.5751 -0.2888
  150MOL    C4421202   6.811   5.359   3.062 -0.1883  0.3038  0.9117
  150MOL    C4521203   6.766   5.251   2.967  0.6497  0.5610 -0.3254
  150MOL    O4621204   6.631   5.258   2.946  0.5413  0.6229  0.7304
  150MOL    H4721205   6.764   5.333   3.157  0.1505 -0.6162  0.8288
  150MOL    H4821206   6.771   5.457   3.037 -0.2869 -0.0450 -0.3055
  150MOL    H4921207   6.800   5.159   3.013  0.4041  0.9048  0.5609
  150MOL    H5021208   6.820   5.255   2.872  0.4636  1.1261 -0.4123
  150MOL    C5121209   6.590   5.170   2.837 -0.0505  0.0802 -0.2610
  150MOL    C5221210   6.571   5.031   2.892 -0.2686  0.0188  0.6478
  150MOL    O5321211   6.691   4.970   2.843 -0.2968 -0.2385 -0.0479
  150MOL    H5421212   6.492   5.207   2.806 -0.4744 -1.0495 -0.2855
  150MOL    H5521213   6.656   5.177   2.751 -0.2582 -0.0953 -0.4328
  150MOL    H5621214   6.490   4.976   2.845  0.1781 -1.0791  1.1399
  150MOL    H5721215   6.565   5.023   3.000  1.5933 -2.7795  0.6247
  150MOL    C5821216   6.715   4.849   2.904  0.0809  0.3417  0.2327
  150MOL    C5921217   6.813   4.773   2.810  0.9228 -0.1660  0.6545
  150MOL    O6021218   6.817   4.634   2.842  0.1306 -0.0626 -0.3434
  150MOL    H6121219   6.759   4.861   3.003 -0.6377  0.9403  0.4768
  150MOL    H6221220   6.625   4.787   2.902 -0.0179  0.4290  1.5775
  150MOL    H6321221   6.915   4.809   2.820  1.3924 -1.5099  0.8391
  150MOL    H6421222   6.789   4.790   2.706  2.0980 -0.1842  0.3760
  150MOL    C6521223   6.892   4.561   2.752 -0.0713 -0.2082 -0.4015
  150MOL    C6621224   6.945   4.432   2.821 -0.8746  0.6495 -0.5656
  150MOL    O6721225   7.044   4.469   2.912 -0.1515  0.4167  0.6141
  150MOL    H6821226   6.826   4.523   2.674 -0.5762 -0.1709  0.0055
  150MOL    H6921227   6.979   4.605   2.703 -0.1310  0.0621 -0.2656
  150MOL    H7021228   6.982   4.363   2.745 -5.2516 -2.1784 -0.3331
  150MOL    H7121229   6.865   4.385   2.879 -0.0542 -0.8484 -0.6113
  150MOL    C7221230   7.093   4.364   2.987 -0.5322  0.5418 -0.4399
  150MOL    C7321231   7.217   4.412   3.071  0.5538  0.2763  0.3989
  150MOL    O7421232   7.276   4.317   3.160 -0.2710  0.4157  0.4348
  150MOL    H7521233   7.019   4.324   3.056  1.5135 -1.3646  0.7143
  150MOL    H7621234   7.110   4.272   2.931  0.7758 -0.8362  2.1561
  150MOL    H7721235   7.176   4.494   3.131  0.0746  1.5252 -1.5758
  150MOL    H7821236   7.293   4.463   3.013  0.5740  0.3130  0.4575
  150MOL    C7921237   7.192   4.282   3.270  0.6399  0.3046  0.1022
  150MOL    C8021238   7.264   4.194   3.376  0.6486  0.7535 -0.1221
  150MOL    O8121239   7.330   4.265   3.478 -0.4197  0.1725  0.2117
  150MOL    H8221240   7.142   4.369   3.313 -1.3264 -0.1506 -1.1978
  150MOL    H8321241   7.113   4.222   3.225 -0.2329  2.0940 -0.7888
  150MOL    H8421242   7.342   4.126   3.342  0.3572  1.4827 -2.3305
  150MOL    H8521243   7.189   4.131   3.424 -1.3583  3.2882  0.1600
  150MOL    C8621244   7.376   4.185   3.577  0.4023  0.0339 -0.0989
  150MOL    C8721245   7.461   4.243   3.683  0.2770 -0.8510  0.7249
  150MOL    O8821246   7.484   4.146   3.778 -0.0035  0.3213 -0.4674
  150MOL    H8921247   7.288   4.148   3.630  0.7466  1.5954  1.6072
  150MOL    H9021248   7.432   4.105   3.528 -0.0738 -0.6051  0.3837
  150MOL    H9121249   7.418   4.325   3.741  0.2054 -0.3519 -0.0172
  150MOL    H9221250   7.560   4.273   3.646  0.3421 -1.5610  0.3142
  150MOL    C9321251   7.552   4.195   3.895  0.5648  0.1015  0.1337
  150MOL    C9421252   7.558   4.080   4.002  0.5260  0.0586  0.4959
  150MOL    O9521253   7.427   4.067   4.073  0.5006  0.1559  0.4167
  150MOL    H9621254   7.652   4.223   3.862 -0.7235  3.1715 -1.4230
  150MOL    H9721255   7.511   4.290   3.930  2.3440  1.7089 -2.0071
  150MOL    H9821256   7.634   4.117   4.071  1.0456 -0.8928  0.4481
  150MOL    H9921257   7.585   3.988   3.949 -0.1867 -0.9228  1.7914
  150MOL   C10021258   7.321   4.010   3.993 -0.2189 -0.0439  0.6099
  150MOL   C10121259   7.208   3.976   4.093 -0.2536 -0.5736  0.8147
  150MOL   O10221260   7.153   4.103   4.134  0.7865  0.0590  0.1721
  150MOL   H10321261   7.281   4.084   3.925  0.5604  0.3864  0.6181
  150MOL   H10421262   7.356   3.925   3.935 -2.1690 -0.3980 -0.0837
  150MOL   H10521263   7.232   3.903   4.172 -4.1326 -0.9005  1.8193
  150MOL   H10621264   7.140   3.919   4.030  0.1077 -0.7562  0.5875
  150MOL   C10721265   7.029   4.095   4.207 -0.3026  0.1352 -0.6807
  150MOL   C10821266   7.003   4.232   4.277  0.0562 -0.3647  0.1239
  150MOL   O10921267   6.931   4.326   4.191 -0.1020 -0.0598  0.0140
  150MOL   H11021268   6.942   4.071   4.145 -0.4765  0.2156 -0.4686
  150MOL   H11121269   7.044   4.021   4.285 -0.8635  1.8647  1.0941
  150MOL   H11221270   7.096   4.270   4.317  1.1251  1.0192 -3.5174
  150MOL   H11321271   6.939   4.201   4.360 -0.6804  0.7299 -0.0203
  150MOL   C11421272   6.813   4.386   4.248 -0.4533  0.1245 -0.1404
  150MOL   C11521273   6.701   4.283   4.216  0.1519 -0.3762 -0.1742
  150MOL   O11621274   6.689   4.191   4.313 -0.0952  0.0019  0.2023
  150MOL   H11721275   6.816   4.407   4.355 -2.4461  0.2266 -0.0948
  150MOL   H11821276   6.788   4.470   4.184  0.6669  1.1866  0.7942
  150MOL   H11921277   6.721   4.234   4.121 -0.8917 -1.1710  0.0082
  150MOL   H12021278   6.613   4.345   4.202  0.0105 -0.7277 -0.8273
  150MOL   C12121279   6.619   4.075   4.286 -0.9752  0.2351  0.3697
  150MOL   C12221280   6.605   3.976   4.407  0.1401 -0.3278  0.6753
  150MOL   O12321281   6.721   3.893   4.414 -0.3065  0.2380  0.8959
  150MOL   H12421282   6.521   4.087   4.240 -0.6526 -1.0731 -0.6897
  150MOL   H12521283   6.672   4.026   4.204 -1.3188 -1.8311  1.3464
  150MOL   H12621284   6.523   3.911   4.379  0.6991 -0.7738  0.0721
  150MOL   H12721285   6.577   4.029   4.499 -0.8709  0.1754  0.0878
  150MOL   C12821286   6.818   3.949   4.504  0.0112  0.2251  0.4395
  150MOL   C12921287   6.947   3.859   4.533  0.4513 -0.7304  0.2493
  150MOL   O13021288   6.910   3.729   4.555 -0.2652  0.1674  0.1731
  150MOL   H13121289   6.855   4.049   4.479 -0.4553 -0.2499 -2.3114
  150MOL   H13221290   6.764   3.963   4.597 -0.1099  0.1375  0.3817
  150MOL   H13321291   7.002   3.897   4.619 -0.0950  0.5945  0.0161
  150MOL   H13421292   7.004   3.863   4.440  1.5066 -0.1139  0.9193
  150MOL   C13521293   7.034   3.648   4.575  0.4958 -0.2147  0.1610
  150MOL   C13621294   7.007   3.501   4.548 -0.5852 -0.6432 -0.1443
  150MOL   O13721295   6.984   3.490   4.412  0.1119  0.2349  0.2020
  150MOL   H13821296   7.121   3.684   4.521 -0.2463 -0.4014 -1.1902
  150MOL   H13921297   7.066   3.650   4.679  0.3800  1.0206  0.1777
  150MOL   H14021298   6.924   3.470   4.612  0.1803  0.9140  1.6666
  150MOL   H14121299   7.092   3.443   4.583  0.6476  1.6427  0.7469
  150MOL   H14221300   6.929   3.565   4.393 -0.6671 -0.5013 -0.5217
  151MOL     C121301   5.165   1.028   6.932  0.7199  0.3660 -0.2939
  151MOL     C221302   5.140   0.915   6.836 -0.3021 -0.0483  0.2533
  151MOL     O321303   5.017   0.921   6.776 -0.0299 -0.8535  0.2387
  151MOL     H421304   5.263   1.020   6.980  0.5252  2.3873  0.5013
  151MOL     H521305   5.097   1.037   7.017  1.6458  0.3922  0.4589
  151MOL     H621306   5.159   0.817   6.879 -1.3884  0.1616  1.2429
  151MOL     H721307   5.214   0.919   6.756 -1.1516  1.6059 -0.4846
  151MOL     H821308   5.155   1.127   6.886 -0.5828 -0.0570 -0.9442
  151MOL     C921309   4.992   0.815   6.687  0.6389  0.6702 -0.3133
  151MOL    C1021310   4.841   0.812   6.641  0.2342  0.2227  0.1744
  151MOL    O1121311   4.774   0.708   6.718  0.2052 -0.5638 -0.1921
  151MOL    H1221312   5.044   0.827   6.592 -1.6050 -0.1637 -1.6748
  151MOL    H1321313   5.016   0.715   6.721 -0.1963  0.8548  0.8434
  151MOL    H1421314   4.831   0.796   6.534  1.0916 -1.6419  0.3495
  151MOL    H1521315   4.798   0.911   6.654  0.3323  0.2787  0.0685
  151MOL    C1621316   4.640   0.672   6.680 -0.5995 -0.3713 -0.3040
  151MOL    C1721317   4.530   0.781   6.678  0.7619 -0.1062 -0.1533
  151MOL    O1821318   4.563   0.890   6.588 -0.5574  0.0008  0.4340
  151MOL    H1921319   4.652   0.607   6.594  0.6399 -1.0043  0.3322
  151MOL    H2021320   4.616   0.615   6.770  0.1069 -0.8936 -0.4513
  151MOL    H2121321   4.521   0.824   6.778  1.3350 -1.1458  0.3456
  151MOL    H2221322   4.443   0.723   6.647 -1.6272  3.1161  0.1581
  151MOL    C2321323   4.453   0.979   6.571 -0.1653  0.5353  0.4681
  151MOL    C2421324   4.504   1.077   6.463  0.2806  0.3795  0.5072
  151MOL    O2521325   4.564   1.193   6.530  0.7991  0.3022 -0.4104
  151MOL    H2621326   4.365   0.925   6.538  0.1879  0.4736 -0.3988
  151MOL    H2721327   4.419   1.035   6.658 -0.7513  0.4081  0.3243
  151MOL    H2821328   4.412   1.104   6.411  1.6852 -0.6117 -2.5995
  151MOL    H2921329   4.565   1.020   6.394  0.1798  2.1242 -1.0760
  151MOL    C3021330   4.623   1.272   6.422  0.8870 -0.2078  1.0367
  151MOL    C3121331   4.707   1.392   6.465 -0.1809 -0.2142 -0.0389
  151MOL    O3221332   4.636   1.489   6.549 -0.1092  0.1373 -0.1622
  151MOL    H3321333   4.681   1.211   6.353 -0.0938  1.8570 -1.6667
  151MOL    H3421334   4.541   1.312   6.363  0.6232 -1.0131  0.8547
  151MOL    H3521335   4.756   1.445   6.383  1.7572  0.4229  1.4785
  151MOL    H3621336   4.794   1.348   6.514  0.2337 -1.3885 -1.7697
  151MOL    C3721337   4.730   1.581   6.597  0.2525  0.6819  0.1279
  151MOL    C3821338   4.683   1.693   6.689 -0.0575  0.5349  0.2799
  151MOL    O3921339   4.597   1.781   6.619  0.1138 -0.1338 -0.1898
  151MOL    H4021340   4.814   1.529   6.643 -0.6437 -1.6306 -0.7771
  151MOL    H4121341   4.770   1.618   6.503 -0.7782  0.3765 -0.4395
  151MOL    H4221342   4.771   1.739   6.734  1.7384 -1.4466 -1.0875
  151MOL    H4321343   4.628   1.653   6.775  0.7846  1.0029  1.0448
  151MOL    C4421344   4.545   1.875   6.714 -0.0374  0.2085 -0.4276
  151MOL    C4521345   4.614   2.014   6.709  0.1900 -0.6291  0.4726
  151MOL    O4621346   4.749   1.998   6.754 -0.2883  0.0881  0.1130
  151MOL    H4721347   4.441   1.904   6.699  0.0570  1.1047  0.5759
  151MOL    H4821348   4.546   1.852   6.821 -1.2000 -3.3843 -1.1423
  151MOL    H4921349   4.555   2.084   6.768  0.9877  1.0112 -0.6369
  151MOL    H5021350   4.632   2.056   6.610 -0.5528  0.9794  1.0011
  151MOL    C5121351   4.806   2.120   6.791  0.2551  0.2933  0.1436
  151MOL    C5221352   4.954   2.094   6.823 -1.8464 -0.1301 -0.1717
  151MOL    O5321353   5.034   2.201   6.868  0.1097  0.5067  0.0267
  151MOL    H5421354   4.802   2.189   6.707  5.0092 -1.9787 -2.2019
  151MOL    H5521355   4.751   2.164   6.874  0.8496  1.4396 -0.0586
  151MOL    H5621356   4.995   2.057   6.728 -0.6315  0.7734 -0.0122
  151MOL    H5721357   4.968   2.003   6.882  0.9831  0.9409  0.8957
  151MOL    C5821358   5.164   2.147   6.902  0.3824 -0.0726 -0.2150
  151MOL    C5921359   5.264   2.255   6.944  0.0960  1.0262 -0.3804
  151MOL    O6021360   5.321   2.302   6.826 -0.2341  0.5079 -0.2191
  151MOL    H6121361   5.161   2.076   6.985 -2.9784 -0.7219 -0.8194
  151MOL    H6221362   5.203   2.099   6.812 -1.3924 -0.0188 -1.0312
  151MOL    H6321363   5.353   2.206   6.983  0.9753  1.6907 -1.4950
  151MOL    H6421364   5.226   2.338   7.004  0.9786 -0.7746  2.7376
  151MOL    C6521365   5.442   2.371   6.841 -0.2294  0.0361 -0.2339
  151MOL    C6621366   5.493   2.434   6.707 -0.5862  0.4676  1.4214
  151MOL    O6721367   5.423   2.557   6.672  0.3439  0.4161 -0.4658
  151MOL    H6821368   5.435   2.444   6.922  1.2855 -1.5602  1.3857
  151MOL    H6921369   5.519   2.300   6.872 -2.0887 -1.1473  1.8469
  151MOL    H7021370   5.482   2.363   6.625 -0.4895  1.7425  0.2827
  151MOL    H7121371   5.598   2.461   6.717 -0.9376  1.9648  1.2678
  151MOL    C7221372   5.460   2.603   6.538  0.1128 -0.1296 -0.5769
  151MOL    C7321373   5.361   2.704   6.488  0.3316  0.4724  0.7235
  151MOL    O7421374   5.428   2.803   6.423 -0.2551  0.2048 -0.6136
  151MOL    H7521375   5.549   2.657   6.570 -0.6981  0.1144  1.2986
  151MOL    H7621376   5.490   2.528   6.464  0.6269 -0.3175 -0.1817
  151MOL    H7721377   5.303   2.754   6.566  2.0304  2.1844  0.9298
  151MOL    H7821378   5.293   2.652   6.421  0.0093  0.9323  0.6897
  151MOL    C7921379   5.342   2.909   6.374  0.3416 -0.2442 -0.0033
  151MOL    C8021380   5.436   3.020   6.328 -0.7775  0.2262 -0.0354
  151MOL    O8121381   5.497   2.984   6.210  0.2439  0.2288 -0.9692
  151MOL    H8221382   5.280   2.872   6.293  0.2954 -2.0298  0.7946
  151MOL    H8321383   5.282   2.949   6.455 -0.6563 -1.2109 -0.2493
  151MOL    H8421384   5.508   3.058   6.400  0.7404 -0.4018 -1.1993
  151MOL    H8521385   5.367   3.101   6.302 -2.3100 -1.4915 -1.4601
  151MOL    C8621386   5.570   3.095   6.153  0.2099 -1.0099 -0.3740
  151MOL    C8721387   5.625   3.051   6.014 -0.2791 -0.2026 -0.2813
  151MOL    O8821388   5.718   3.147   5.971 -0.0968 -0.3798  0.4340
  151MOL    H8921389   5.500   3.176   6.132 -0.0771 -1.0062  0.5661
  151MOL    H9021390   5.649   3.132   6.219 -0.4164 -1.7116  0.7819
  151MOL    H9121391   5.540   3.041   5.946 -0.1990 -0.0183 -0.4062
  151MOL    H9221392   5.676   2.955   6.011 -0.5888 -0.4814  2.1479
  151MOL    C9321393   5.797   3.103   5.859  0.2308  0.9859  0.2707
  151MOL    C9421394   5.914   3.212   5.845  0.2398  0.0473 -0.2858
  151MOL    O9521395   5.901   3.288   5.730  0.0696  0.2627 -0.1242
  151MOL    H9621396   5.846   3.007   5.876 -1.4552 -0.1047 -0.8390
  151MOL    H9721397   5.734   3.090   5.770  3.1029 -4.9100 -1.1640
  151MOL    H9821398   6.012   3.166   5.858 -0.2199 -0.8173  0.1680
  151MOL    H9921399   5.906   3.286   5.924 -1.8108 -0.2507 -0.1723
  151MOL   C10021400   6.020   3.366   5.709  0.1760 -1.0937 -0.6617
  151MOL   C10121401   5.989   3.457   5.588 -0.2980  0.1013  0.5808
  151MOL   O10221402   6.020   3.398   5.463 -0.1879  0.5300  0.7118
  151MOL   H10321403   6.043   3.426   5.797 -1.1341  0.1119 -1.1189
  151MOL   H10421404   6.102   3.298   5.685  0.5648 -1.2432  1.0071
  151MOL   H10521405   6.049   3.547   5.598  0.3428 -0.0970 -1.4042
  151MOL   H10621406   5.883   3.485   5.589 -0.2315  0.3634  0.1977
  151MOL   C10721407   5.993   3.493   5.358 -0.5734 -0.0672  0.3061
  151MOL   C10821408   6.085   3.458   5.244  0.3992 -0.0387  0.1786
  151MOL   O10921409   6.208   3.522   5.272 -0.1833  0.5884  0.9284
  151MOL   H11021410   5.893   3.473   5.320 -1.6679  1.9217  2.0427
  151MOL   H11121411   6.007   3.598   5.385  0.0029 -0.2374  0.6795
  151MOL   H11221412   6.035   3.506   5.160 -2.7568  0.3937  2.2050
  151MOL   H11321413   6.108   3.355   5.220  3.3878  0.6262  0.0422
  151MOL   C11421414   6.259   3.572   5.148  0.3086 -0.8605 -0.1060
  151MOL   C11521415   6.409   3.612   5.161 -0.4962  0.3110 -0.3364
  151MOL   O11621416   6.428   3.755   5.158  0.4876  0.4400 -0.2897
  151MOL   H11721417   6.260   3.487   5.080 -0.8549 -1.7771  1.0258
  151MOL   H11821418   6.201   3.656   5.109  0.0140 -0.1133  1.8681
  151MOL   H11921419   6.473   3.565   5.086 -1.8377 -0.9689 -0.7011
  151MOL   H12021420   6.442   3.573   5.257 -0.6843 -0.1728 -0.4655
  151MOL   C12121421   6.554   3.788   5.216 -0.2780  1.2063  0.1529
  151MOL   C12221422   6.577   3.937   5.219 -0.1613  0.6083  0.0356
  151MOL   O12321423   6.521   4.001   5.333 -0.7385  0.0120  0.0023
  151MOL   H12421424   6.561   3.743   5.315  0.9848  0.8874 -0.0651
  151MOL   H12521425   6.630   3.731   5.161  0.2152  0.9906  1.0441
  151MOL   H12621426   6.540   3.967   5.121 -1.9659 -0.4900  0.3579
  151MOL   H12721427   6.683   3.959   5.214 -0.5240  2.2580 -0.7219
  151MOL   C12821428   6.469   4.129   5.312 -0.2640  0.0533 -0.3687
  151MOL   C12921429   6.573   4.235   5.288 -0.1175 -0.0842  0.2720
  151MOL   O13021430   6.623   4.214   5.156 -0.6191  0.1197  0.0536
  151MOL   H13121431   6.402   4.124   5.226  1.7653  1.4495 -2.0937
  151MOL   H13221432   6.406   4.155   5.397 -0.9170 -1.2588 -0.4375
  151MOL   H13321433   6.643   4.245   5.371  1.3312  2.3360 -1.2010
  151MOL   H13421434   6.518   4.329   5.289 -1.4752 -0.8458 -0.5524
  151MOL   C13521435   6.737   4.300   5.135 -0.0924  0.2132 -0.0787
  151MOL   C13621436   6.783   4.280   4.989 -0.2915 -0.1441 -0.2890
  151MOL   O13721437   6.864   4.159   4.963 -0.3067  0.1295  0.1521
  151MOL   H13821438   6.709   4.403   5.155  0.2604  0.1531  0.7752
  151MOL   H13921439   6.820   4.265   5.198  0.5545 -0.1317 -1.1089
  151MOL   H14021440   6.838   4.363   4.945  0.3742 -1.6971 -2.4731
  151MOL   H14121441   6.700   4.275   4.919 -0.8285 -1.6193  0.4362
  151MOL   H14221442   6.921   4.152   5.038  2.1370 -0.2234 -1.6790
  152MOL     C121443   2.763   4.402   6.699 -0.2664 -0.2965  0.3373
  152MOL     C221444   2.643   4.317   6.666 -0.4292 -0.3705  0.3559
  152MOL     O321445   2.665   4.179   6.676  0.3889 -0.6090  0.0867
  152MOL     H421446   2.786   4.404   6.806 -1.9074 -2.6660  0.7805
  152MOL     H521447   2.749   4.506   6.667 -0.6563 -0.0954  1.1363
  152MOL     H621448   2.606   4.339   6.566  0.5237  1.2600  0.3449
  152MOL     H721449   2.562   4.352   6.730 -0.7235 -0.0483 -0.1908
  152MOL     H821450   2.853   4.371   6.647 -0.4243 -0.1107 -0.0484
  152MOL     C921451   2.554   4.095   6.646  0.0958 -0.5138 -0.1440
  152MOL    C1021452   2.577   3.943   6.667  0.1664  0.3294  0.9502
  152MOL    O1121453   2.562   3.909   6.801 -0.0922  0.0450 -0.6207
  152MOL    H1221454   2.461   4.129   6.691 -0.5187 -2.1057 -0.1848
  152MOL    H1321455   2.548   4.110   6.538  1.3409 -1.4468 -0.3521
  152MOL    H1421456   2.677   3.920   6.631 -0.9174 -3.3738  0.0331
  152MOL    H1521457   2.505   3.893   6.601 -0.9320  1.1346  1.5311
  152MOL    C1621458   2.665   3.827   6.859 -0.0976 -0.1032  0.0745
  152MOL    C1721459   2.633   3.818   7.005  0.4129 -0.4280  0.5360
  152MOL    O1821460   2.677   3.698   7.070 -0.4889  0.0177 -0.4768
  152MOL    H1921461   2.668   3.732   6.806 -2.0594 -0.7206  1.0462
  152MOL    H2021462   2.767   3.867   6.851 -0.5052  0.7254 -1.2044
  152MOL    H2121463   2.527   3.820   7.026  0.8166  2.3088  2.5963
  152MOL    H2221464   2.677   3.907   7.050  0.5629  0.3359 -1.0753
  152MOL    C2321465   2.818   3.685   7.063  0.3223  0.0637 -0.2862
  152MOL    C2421466   2.860   3.569   7.147  0.3154  0.2543 -0.3686
  152MOL    O2521467   2.796   3.592   7.278 -0.3776  0.0515  0.0664
  152MOL    H2621468   2.853   3.669   6.961 -1.8027 -2.9431 -0.6129
  152MOL    H2721469   2.869   3.769   7.110  3.7710 -1.6590 -0.7540
  152MOL    H2821470   2.968   3.565   7.159  0.1428 -0.5734  1.0281
  152MOL    H2921471   2.831   3.477   7.097 -1.0518  0.5209 -0.1054
  152MOL    C3021472   2.805   3.479   7.362  0.2849  0.3378  0.3141
  152MOL    C3121473   2.877   3.509   7.494 -0.2018  0.1711  0.8377
  152MOL    O3221474   3.015   3.534   7.467 -0.3054  0.4799  0.3124
  152MOL    H3321475   2.705   3.439   7.372 -0.0226  1.0046 -0.0626
  152MOL    H3421476   2.860   3.395   7.321 -1.1667 -0.4144 -0.0925
  152MOL    H3521477   2.860   3.424   7.560 -0.1659 -0.5694 -0.0946
  152MOL    H3621478   2.827   3.596   7.536  0.5205  1.9039 -1.7655
  152MOL    C3721479   3.082   3.589   7.586  0.7989  0.0538  0.4290
  152MOL    C3821480   3.226   3.602   7.540 -0.1984 -0.5986 -0.4602
  152MOL    O3921481   3.217   3.688   7.427 -0.7064 -0.5278  0.3297
  152MOL    H4021482   3.043   3.686   7.616 -1.3451 -0.8483  0.6998
  152MOL    H4121483   3.072   3.518   7.668 -2.3179  1.3265  1.2550
  152MOL    H4221484   3.258   3.502   7.513 -0.5598 -0.9566  0.4255
  152MOL    H4321485   3.280   3.642   7.626 -0.6501 -1.6617  0.3254
  152MOL    C4421486   3.351   3.744   7.396 -0.9130  0.2259 -0.4827
  152MOL    C4521487   3.340   3.851   7.284 -0.3811  0.1839 -0.0229
  152MOL    O4621488   3.359   3.795   7.152 -0.6267 -0.7616  0.0212
  152MOL    H4721489   3.393   3.781   7.490 -1.6671  0.1819 -0.1283
  152MOL    H4821490   3.426   3.670   7.366 -1.0715 -0.1248 -0.0148
  152MOL    H4921491   3.418   3.926   7.295  0.2377 -0.5602  0.8726
  152MOL    H5021492   3.247   3.900   7.310  1.7976  3.2271  2.4185
  152MOL    C5121493   3.244   3.721   7.108  0.3239  0.6058  0.5125
  152MOL    C5221494   3.267   3.671   6.965 -0.2036  0.4107  0.1325
  152MOL    O5321495   3.137   3.640   6.911 -0.0071 -0.1071  0.1218
  152MOL    H5421496   3.219   3.636   7.172 -0.1681 -1.7443 -2.7044
  152MOL    H5521497   3.154   3.781   7.102  1.1944  1.9597  0.6081
  152MOL    H5621498   3.330   3.582   6.958 -1.7155 -0.8238  1.7691
  152MOL    H5721499   3.323   3.748   6.911  1.2557 -0.1428  0.8459
  152MOL    C5821500   3.135   3.633   6.768  0.1618  0.4735  0.5854
  152MOL    C5921501   2.993   3.601   6.708  0.2859  0.6301 -0.1954
  152MOL    O6021502   2.954   3.477   6.758 -0.0257  0.2536 -0.8611
  152MOL    H6121503   3.170   3.724   6.719  1.3229 -1.1857 -1.7448
  152MOL    H6221504   3.204   3.558   6.729 -1.7584  0.0151 -2.0245
  152MOL    H6321505   2.980   3.609   6.600  0.1307  0.6837 -0.1735
  152MOL    H6421506   2.923   3.680   6.738 -1.8790 -0.7275 -1.5017
  152MOL    C6521507   2.824   3.426   6.710  0.6806 -0.3633 -0.5925
  152MOL    C6621508   2.793   3.291   6.782 -0.1511  0.5905  0.6451
  152MOL    O6721509   2.749   3.316   6.915 -0.1813  0.9771 -0.2106
  152MOL    H6821510   2.749   3.502   6.733 -0.1211 -1.6392  1.1316
  152MOL    H6921511   2.845   3.410   6.604  0.7265 -0.4675 -0.5682
  152MOL    H7021512   2.873   3.219   6.792  0.6988  1.2506 -1.1494
  152MOL    H7121513   2.719   3.248   6.714  0.2693 -1.5101  1.4770
  152MOL    C7221514   2.615   3.366   6.930 -0.0452  0.3349  0.2261
  152MOL    C7321515   2.573   3.352   7.076  0.1598 -0.2616  0.6517
  152MOL    O7421516   2.459   3.276   7.097  0.0186  0.3819 -0.1783
  152MOL    H7521517   2.604   3.473   6.911  2.4401  0.4655 -0.7645
  152MOL    H7621518   2.554   3.300   6.870  1.4672 -0.7251 -0.1800
  152MOL    H7721519   2.559   3.450   7.122  1.4966  1.8395 -3.2173
  152MOL    H7821520   2.656   3.303   7.126  0.5959  0.9549  1.1555
  152MOL    C7921521   2.403   3.302   7.223  0.8407  0.1887 -0.1842
  152MOL    C8021522   2.301   3.193   7.244 -0.1133  0.3039  0.0473
  152MOL    O8121523   2.368   3.074   7.261 -0.3788 -0.8682  0.2336
  152MOL    H8221524   2.478   3.281   7.299 -0.5160  0.5788  1.2917
  152MOL    H8321525   2.355   3.399   7.237 -1.9377 -0.9773 -1.3058
  152MOL    H8421526   2.238   3.197   7.156  2.1673  0.8114 -1.6079
  152MOL    H8521527   2.229   3.215   7.323 -0.6588  1.3468 -0.7457
  152MOL    C8621528   2.284   2.963   7.299 -0.6415 -0.1945  0.4779
  152MOL    C8721529   2.363   2.837   7.291  0.0106 -0.4547 -0.2270
  152MOL    O8821530   2.353   2.769   7.416 -0.1098  0.0066  0.3888
  152MOL    H8921531   2.236   2.986   7.395 -2.3588  1.8229 -0.8145
  152MOL    H9021532   2.201   2.958   7.229  0.1535 -0.3376 -0.4533
  152MOL    H9121533   2.469   2.849   7.271 -0.0767  3.8102  1.4282
  152MOL    H9221534   2.317   2.775   7.214 -1.7480 -0.7789  1.0304
  152MOL    C9321535   2.226   2.722   7.460 -0.1522 -0.0002 -0.3725
  152MOL    C9421536   2.246   2.606   7.558 -0.1695  0.1672  0.5019
  152MOL    O9521537   2.295   2.486   7.493  0.1005  0.4076  0.4827
  152MOL    H9621538   2.184   2.805   7.517 -2.3188  2.4232 -5.2194
  152MOL    H9721539   2.163   2.693   7.376  0.3308 -1.5922 -0.2079
  152MOL    H9821540   2.146   2.581   7.594 -1.4731  2.0274 -1.6712
  152MOL    H9921541   2.305   2.644   7.642 -0.6593  0.5940  0.6579
  152MOL   C10021542   2.340   2.395   7.589 -0.8212  0.1710 -0.0907
  152MOL   C10121543   2.370   2.260   7.521 -1.1412 -0.3406  0.3573
  152MOL   O10221544   2.467   2.275   7.416 -0.1840  0.3667 -0.3783
  152MOL   H10321545   2.436   2.420   7.634 -2.3819  1.4262  2.6735
  152MOL   H10421546   2.264   2.380   7.666 -2.9647 -0.4299 -2.2612
  152MOL   H10521547   2.283   2.210   7.480  0.4530 -2.0419 -1.0037
  152MOL   H10621548   2.406   2.190   7.597  2.3360 -0.9388 -1.7622
  152MOL   C10721549   2.433   2.200   7.303  0.6331 -0.5601 -0.0223
  152MOL   C10821550   2.464   2.046   7.321  0.4118 -0.5341  0.0309
  152MOL   O10921551   2.366   1.975   7.400 -0.5673 -0.6265  0.0810
  152MOL   H11021552   2.334   2.225   7.266  0.8999  1.3497  0.4876
  152MOL   H11121553   2.502   2.242   7.229  1.5399  0.9279  1.6317
  152MOL   H11221554   2.557   2.032   7.375  0.1919 -1.9593  0.0514
  152MOL   H11321555   2.474   2.000   7.223 -1.9090 -1.8529  0.3697
  152MOL   C11421556   2.378   1.835   7.401  0.5593  0.0134 -0.0858
  152MOL   C11521557   2.237   1.773   7.428  0.1289 -0.2669  0.0886
  152MOL   O11621558   2.202   1.761   7.567 -0.0738 -0.3020  0.2967
  152MOL   H11721559   2.411   1.802   7.302 -0.1237  2.0413 -1.0099
  152MOL   H11821560   2.450   1.796   7.473 -1.5206 -1.9507  1.0144
  152MOL   H11921561   2.242   1.671   7.391  0.0769 -1.0291  2.1316
  152MOL   H12021562   2.170   1.839   7.372 -0.1442 -0.8942 -0.3407
  152MOL   C12121563   2.079   1.693   7.566 -0.1887  0.1182 -0.1452
  152MOL   C12221564   2.017   1.662   7.709  0.4310  0.3055  0.7049
  152MOL   O12321565   2.104   1.577   0.011 -0.7630 -0.3084 -0.0551
  152MOL   H12421566   2.004   1.754   7.515  1.6234  0.9894 -1.8608
  152MOL   H12521567   2.083   1.598   7.512  0.6596  0.4893 -0.7455
  152MOL   H12621568   1.925   1.604   7.697  0.1142  0.7288  1.0795
  152MOL   H12721569   1.985   1.757   7.752  1.0115 -0.6181  3.2710
  152MOL   C12821570   2.045   1.516   0.123 -0.7612  0.3612 -0.5262
  152MOL   C12921571   2.160   1.441   0.195  0.1241  0.3231  0.0599
  152MOL   O13021572   2.204   1.334   0.114  0.1752  0.3619 -0.6967
  152MOL   H13121573   1.995   1.591   0.185 -0.5718 -3.2435  4.3419
  152MOL   H13221574   1.961   1.451   0.100 -0.9866  0.4748 -0.0301
  152MOL   H13321575   2.117   1.410   0.291  0.3467 -1.1896 -0.3242
  152MOL   H13421576   2.246   1.506   0.211  0.0106  1.1437 -2.4519
  152MOL   C13521577   2.287   1.250   0.196 -0.1509  0.5830 -0.0181
  152MOL   C13621578   2.365   1.157   0.097  0.1883 -0.2200  0.8314
  152MOL   O13721579   2.273   1.056   0.060  0.1206  0.3615  0.4027
  152MOL   H13821580   2.360   1.307   0.254 -0.5952  1.9374 -0.7689
  152MOL   H13921581   2.235   1.182   0.264  1.2660  0.7387  1.2439
  152MOL   H14021582   2.451   1.106   0.139  0.4536 -1.2129 -0.8998
  152MOL   H14121583   2.397   1.215   0.010 -0.0042 -0.4006  0.6404
  152MOL   H14221584   2.218   1.101   7.768  1.6879 -0.3279 -1.5060
  153MOL     C121585   6.537   5.882   2.544 -0.1193  0.1023 -0.8217
  153MOL     C221586   6.686   5.908   2.578  0.0949 -0.5032  0.2052
  153MOL     O321587   6.745   5.985   2.470  0.3520  0.0738 -0.4054
  153MOL     H421588   6.527   5.812   2.461 -0.7087  0.2873 -0.9069
  153MOL     H521589   6.487   5.975   2.516 -2.4634 -0.3715  1.6058
  153MOL     H621590   6.731   5.809   2.584 -1.3070 -1.1683  0.0525
  153MOL     H721591   6.697   5.961   2.673 -0.2552 -1.6092  0.8727
  153MOL     H821592   6.476   5.835   2.621  1.4712 -0.8196 -0.0868
  153MOL     C921593   6.713   6.127   2.475 -0.3001 -0.1179  0.1261
  153MOL    C1021594   6.765   6.206   2.344  0.8658  0.2957 -0.4461
  153MOL    O1121595   6.885   6.272   2.369  0.9183  0.0450  0.0785
  153MOL    H1221596   6.604   6.134   2.475 -0.1959  1.8984  1.1066
  153MOL    H1321597   6.747   6.169   2.569 -0.2160  2.2484 -0.9023
  153MOL    H1421598   6.692   6.279   2.309  1.6285 -0.0051 -2.7394
  153MOL    H1521599   6.788   6.150   2.253  0.0946 -1.1035  0.2054
  153MOL    C1621600   6.879   6.380   2.466 -0.5304 -0.0181  0.0025
  153MOL    C1721601   6.923   6.514   2.391  0.5508  0.7038  0.3994
  153MOL    O1821602   6.809   6.566   2.322  0.4141  0.1011  0.0209
  153MOL    H1921603   6.775   6.395   2.496 -1.2799  1.0286 -2.8842
  153MOL    H2021604   6.950   6.354   2.544 -0.0817 -1.4004 -0.8407
  153MOL    H2121605   7.012   6.499   2.330  0.4096  0.5453  0.2337
  153MOL    H2221606   6.949   6.585   2.470 -0.1996 -0.2015  1.4668
  153MOL    C2321607   6.820   6.698   2.282  0.5339  0.5152 -0.3982
  153MOL    C2421608   6.688   6.750   2.229 -0.4939 -0.3146 -0.0794
  153MOL    O2521609   6.702   6.879   2.167  0.5649 -0.3782  0.2045
  153MOL    H2621610   6.868   6.762   2.357  3.2372  0.4322 -1.9719
  153MOL    H2721611   6.886   6.694   2.196 -0.8818 -1.3405 -1.4201
  153MOL    H2821612   6.616   6.759   2.311 -0.2110 -0.7155  0.2145
  153MOL    H2921613   6.640   6.690   2.152 -0.6884  1.3512 -1.2883
  153MOL    C3021614   6.591   6.928   2.088  0.4099  0.2661  0.4109
  153MOL    C3121615   6.587   7.081   2.084 -0.1644  0.0141  0.4567
  153MOL    O3221616   6.530   7.142   2.197 -0.6073  0.3563  0.0679
  153MOL    H3321617   6.593   6.882   1.990 -1.0624  2.4332 -0.6721
  153MOL    H3421618   6.498   6.887   2.128  0.5966  0.1062  0.6882
  153MOL    H3521619   6.529   7.100   1.993  1.8771 -0.6883 -1.0441
  153MOL    H3621620   6.678   7.131   2.051 -0.4705 -0.5270 -1.3055
  153MOL    C3721621   6.568   7.280   2.217  0.0064 -0.0545  0.0983
  153MOL    C3821622   6.490   7.379   2.131  0.4912 -0.6466 -0.2992
  153MOL    O3921623   6.527   7.368   1.998 -0.3507  0.4048 -0.0381
  153MOL    H4021624   6.544   7.307   2.320 -1.4442 -1.4273  0.1462
  153MOL    H4121625   6.675   7.291   2.204 -0.0313 -0.8456 -0.9277
  153MOL    H4221626   6.519   7.479   2.163 -0.2335 -1.0294  1.6217
  153MOL    H4321627   6.383   7.369   2.146  0.6641 -1.3884  0.4602
  153MOL    C4421628   6.465   7.471   1.919  0.1573  0.3062 -0.6481
  153MOL    C4521629   6.512   7.478   1.780 -0.7552  0.0978  0.3969
  153MOL    O4621630   6.452   7.384   1.697 -0.1700 -0.5275 -0.7467
  153MOL    H4721631   6.357   7.471   1.937  0.2431 -0.2890 -0.1249
  153MOL    H4821632   6.494   7.567   1.961  2.3075 -0.9344  0.7861
  153MOL    H4921633   6.619   7.486   1.762 -0.4991 -0.9828  1.3711
  153MOL    H5021634   6.465   7.569   1.742 -0.3756  0.8095  1.5921
  153MOL    C5121635   6.492   7.395   1.561 -0.3745  0.2833 -0.9214
  153MOL    C5221636   6.382   7.351   1.474  0.5368  0.2427  0.0038
  153MOL    O5321637   6.295   7.462   1.436 -0.1954 -0.0774  0.0252
  153MOL    H5421638   6.535   7.493   1.538  2.2351 -0.7508 -0.6108
  153MOL    H5521639   6.562   7.314   1.543 -0.3572  0.3241 -1.0332
  153MOL    H5621640   6.331   7.267   1.522  1.9608 -0.0901  0.9455
  153MOL    H5721641   6.419   7.311   1.380  0.5530  0.1735  0.0397
  153MOL    C5821642   6.191   7.414   1.352  0.8735  0.3662  1.1631
  153MOL    C5921643   6.130   7.542   1.286 -0.0861 -0.2723  0.5737
  153MOL    O6021644   5.998   7.511   1.242  0.2457 -0.2936 -0.6072
  153MOL    H6121645   6.235   7.357   1.271  0.4391  1.2294  0.3082
  153MOL    H6221646   6.117   7.350   1.401  0.5408 -1.0976 -1.1920
  153MOL    H6321647   6.184   7.574   1.198 -1.5485  0.9776  0.1042
  153MOL    H6421648   6.131   7.628   1.354 -1.1136  0.7597 -0.6948
  153MOL    C6521649   5.951   7.609   1.151  0.3215  0.5547  0.2278
  153MOL    C6621650   5.804   7.631   1.141  0.1432 -0.5989  0.3341
  153MOL    O6721651   5.762   7.720   1.248  0.7101  0.0129 -0.0149
  153MOL    H6821652   5.997   7.706   1.171  1.0487  0.4823 -1.0544
  153MOL    H6921653   5.979   7.574   1.052 -1.0452  0.6383 -0.2053
  153MOL    H7021654   5.742   7.541   1.137 -0.5731 -0.0480 -1.6975
  153MOL    H7121655   5.787   7.683   1.047  2.3722  1.2900  0.9461
  153MOL    C7221656   5.747   7.665   1.377  0.4873 -0.1343 -0.5026
  153MOL    C7321657   5.652   7.769   1.443 -0.3109  0.7072 -0.2398
  153MOL    O7421658   5.707   0.128   1.467 -0.3593  0.6962 -0.0074
  153MOL    H7521659   5.707   7.564   1.379  0.6984 -0.2127 -0.2578
  153MOL    H7621660   5.839   7.670   1.435 -0.7338 -0.8092  1.5645
  153MOL    H7721661   5.636   7.734   1.544 -1.1999  1.3170 -0.1616
  153MOL    H7821662   5.558   7.763   1.386  0.0212 -0.7711 -0.6508
  153MOL    C7921663   5.616   0.224   1.516  0.1591 -0.1414  0.0095
  153MOL    C8021664   5.669   0.365   1.552  0.3442 -0.3088 -0.6987
  153MOL    O8121665   5.759   0.349   1.663  0.2021 -0.1757  0.2543
  153MOL    H8221666   5.549   0.231   1.431 -0.0425 -1.7135  0.0122
  153MOL    H8321667   5.570   0.190   1.609 -0.8392 -0.5621 -0.6383
  153MOL    H8421668   5.582   0.428   1.571  0.3425 -0.8287  1.1653
  153MOL    H8521669   5.720   0.402   1.463 -0.0091 -1.3325 -1.3380
  153MOL    C8621670   5.778   0.474   1.736 -0.7799 -0.8384  0.2824
  153MOL    C8721671   5.869   0.575   1.661  0.4165  1.0076  0.5084
  153MOL    O8821672   5.794   0.658   1.574 -0.1629 -0.7695 -0.1967
  153MOL    H8921673   5.687   0.523   1.772 -0.1884  0.2916  0.2408
  153MOL    H9021674   5.834   0.448   1.826  0.8710  1.2361 -0.1047
  153MOL    H9121675   5.951   0.525   1.609  0.2121  0.3457  0.8253
  153MOL    H9221676   5.930   0.627   1.735 -1.7245  1.1083  2.2598
  153MOL    C9321677   5.874   0.722   1.482 -0.5778 -0.0710 -0.2362
  153MOL    C9421678   5.794   0.763   1.359  0.5139 -0.2124  0.4268
  153MOL    O9521679   5.721   0.879   1.400  0.4967 -0.0549 -0.2255
  153MOL    H9621680   5.926   0.805   1.529  2.0415 -0.8138 -1.6836
  153MOL    H9721681   5.952   0.652   1.450 -1.2444 -1.2864  0.7380
  153MOL    H9821682   5.733   0.681   1.321 -0.9849  1.7734 -1.6199
  153MOL    H9921683   5.856   0.807   1.281  1.1274 -0.0096  1.0325
  153MOL   C10021684   5.604   0.913   1.325 -0.6712  0.5771 -0.2838
  153MOL   C10121685   5.489   0.814   1.349 -0.3267 -0.2006 -0.2468
  153MOL   O10221686   5.419   0.844   1.466  0.0533  0.0191 -0.2164
  153MOL   H10321687   5.561   1.010   1.349 -0.5225  0.1975  1.5974
  153MOL   H10421688   5.630   0.906   1.220 -1.6809  2.5532 -0.6880
  153MOL   H10521689   5.517   0.709   1.343  0.0403 -0.2051  1.2319
  153MOL   H10621690   5.412   0.817   1.273 -1.5936  0.9629  1.0643
  153MOL   C10721691   5.428   0.738   1.564 -0.2351  0.2560  0.0116
  153MOL   C10821692   5.309   0.645   1.566  0.5121  0.3062  0.4020
  153MOL   O10921693   5.321   0.564   1.454  0.2991 -0.1585  0.4404
  153MOL   H11021694   5.521   0.683   1.553 -0.1770  0.7283 -2.1037
  153MOL   H11121695   5.433   0.789   1.661  0.8401 -0.4771  0.3505
  153MOL   H11221696   5.225   0.715   1.565 -0.6178 -1.0336 -0.7716
  153MOL   H11321697   5.320   0.588   1.658  0.3029 -0.8609 -0.2983
  153MOL   C11421698   5.203   0.488   1.442  0.4772 -0.4687  0.5715
  153MOL   C11521699   5.222   0.381   1.328  0.1612 -0.0704  0.3941
  153MOL   O11621700   5.284   0.266   1.384 -0.4384  0.3081 -0.3154
  153MOL   H11721701   5.181   0.435   1.534 -0.5979  1.2093  1.3061
  153MOL   H11821702   5.117   0.554   1.429 -0.1121 -0.8429  2.5036
  153MOL   H11921703   5.259   0.419   1.234  0.4148  1.3224  1.0492
  153MOL   H12021704   5.125   0.343   1.297  0.4709  0.7332 -1.5795
  153MOL   C12121705   5.298   0.145   1.309  0.3838 -0.6810 -0.4390
  153MOL   C12221706   5.167   0.068   1.330 -0.1492  0.0244  0.6011
  153MOL   O12321707   5.194   7.707   1.381 -0.4264  0.1556  0.1520
  153MOL   H12421708   5.324   0.172   1.206 -0.9035 -0.3835 -0.7034
  153MOL   H12521709   5.379   0.081   1.344 -1.1963 -1.1607  2.5265
  153MOL   H12621710   5.111   0.062   1.237  1.2365 -0.9071 -0.1918
  153MOL   H12721711   5.101   0.119   1.400 -0.4571 -0.4798  0.6798
  153MOL   C12821712   5.095   7.618   1.345  0.2669  0.7267 -0.1798
  153MOL   C12921713   5.128   7.475   1.389 -0.3984 -0.2193  0.2863
  153MOL   O13021714   5.093   7.452   1.529  0.0704 -0.4224  0.5748
  153MOL   H13121715   4.996   7.640   1.387  0.8668  0.9750  1.1380
  153MOL   H13221716   5.074   7.619   1.238 -0.6365  2.2011 -0.0121
  153MOL   H13321717   5.236   7.462   1.376 -0.6376 -1.7183 -0.1714
  153MOL   H13421718   5.069   7.416   1.320  0.4285  2.1636 -2.5809
  153MOL   C13521719   5.132   7.325   1.580  0.1444 -0.0752 -0.4922
  153MOL   C13621720   5.163   7.334   1.729 -0.7509  0.6739 -0.5812
  153MOL   O13721721   5.194   7.205   1.779 -0.2548  0.8057  0.0545
  153MOL   H13821722   5.046   7.258   1.572  0.3154 -0.3042 -0.4229
  153MOL   H13921723   5.218   7.276   1.535  1.5041  0.9796  0.9430
  153MOL   H14021724   5.080   7.364   1.794  0.1879  2.0113  0.0170
  153MOL   H14121725   5.244   7.405   1.744 -0.1224  0.1218 -1.3261
  153MOL   H14221726   5.261   7.157   1.733  0.3737 -0.2921  2.0628
  154MOL     C121727   6.238   5.836   0.445  0.5150  0.5418  0.1012
  154MOL     C221728   6.267   5.980   0.489 -0.5714 -0.1836 -0.2109
  154MOL     O321729   6.192   6.005   0.606  0.5383 -0.1081 -0.7328
  154MOL     H421730   6.280   5.815   0.347 -1.1115  1.9070 -0.9164
  154MOL     H521731   6.138   5.794   0.437  0.8734 -0.2480 -0.3024
  154MOL     H621732   6.252   6.054   0.410  0.9960  2.1105  1.5672
  154MOL     H721733   6.374   5.986   0.511 -0.3906 -4.5974  0.4518
  154MOL     H821734   6.269   5.766   0.522 -1.3831 -1.7221 -1.1493
  154MOL     C921735   6.233   6.122   0.679  0.2571 -0.1012 -0.5358
  154MOL    C1021736   6.166   6.139   0.821  0.3078  0.3022  0.3197
  154MOL    O1121737   6.204   6.031   0.899 -0.0186 -0.2418 -0.3607
  154MOL    H1221738   6.341   6.125   0.699  0.3720 -0.1628 -1.1414
  154MOL    H1321739   6.211   6.211   0.619  0.0745 -1.0526 -1.8952
  154MOL    H1421740   6.057   6.137   0.811  0.0932 -0.2472  2.3993
  154MOL    H1521741   6.185   6.233   0.872 -2.9486  2.1909 -1.7754
  154MOL    C1621742   6.184   6.042   1.036  0.1512  0.3894  1.0397
  154MOL    C1721743   6.179   5.910   1.111  0.1291 -0.0397  0.0989
  154MOL    O1821744   6.038   5.862   1.103 -0.0834 -0.3587 -0.1588
  154MOL    H1921745   6.269   6.107   1.060 -1.0373  1.9705  1.0739
  154MOL    H2021746   6.094   6.103   1.048  0.1984  0.0990  3.0931
  154MOL    H2121747   6.214   5.922   1.214 -0.5982  0.6929  0.2702
  154MOL    H2221748   6.250   5.839   1.069 -0.6604 -1.1077  0.5481
  154MOL    C2321749   6.028   5.724   1.143 -0.5681  0.1483  0.2933
  154MOL    C2421750   6.027   5.694   1.299 -0.2452 -0.2159  0.4693
  154MOL    O2521751   5.999   5.557   1.324  0.0057  0.0892  0.6260
  154MOL    H2621752   5.932   5.691   1.104 -0.4708 -0.4390  0.5502
  154MOL    H2721753   6.101   5.659   1.095 -0.7636 -0.2498  0.5312
  154MOL    H2821754   5.958   5.760   1.350  1.3642  0.2403  2.1352
  154MOL    H2921755   6.126   5.717   1.338  0.4697  1.1502 -2.0228
  154MOL    C3021756   6.003   5.521   1.454 -0.0492 -0.4473 -0.4923
  154MOL    C3121757   5.959   5.370   1.463 -0.3970 -0.2224 -0.6199
  154MOL    O3221758   6.061   5.275   1.439 -0.2511  0.5071 -1.2400
  154MOL    H3321759   6.105   5.542   1.486 -0.9420  1.9972  0.8789
  154MOL    H3421760   5.943   5.583   1.521  0.7791  1.1129 -1.1592
  154MOL    H3521761   5.871   5.345   1.404 -0.4782  1.6293 -1.3205
  154MOL    H3621762   5.917   5.358   1.563 -1.1998 -0.2258 -0.9525
  154MOL    C3721763   6.124   5.278   1.311 -0.1054  1.2254 -0.4081
  154MOL    C3821764   6.225   5.167   1.306 -0.2468  0.1505  0.0217
  154MOL    O3921765   6.157   5.047   1.273 -0.0446 -0.3974  0.6008
  154MOL    H4021766   6.048   5.273   1.233 -1.9311 -0.0769  1.3834
  154MOL    H4121767   6.185   5.365   1.288  0.0791  1.3424  0.5228
  154MOL    H4221768   6.292   5.163   1.391  0.4281  0.6655 -0.4825
  154MOL    H4321769   6.294   5.186   1.224  0.1124  3.2222  0.9750
  154MOL    C4421770   6.244   4.931   1.293  0.7643 -0.3540  0.0112
  154MOL    C4521771   6.173   4.801   1.256  0.1375  0.4245  0.8053
  154MOL    O4621772   6.088   4.761   1.357 -0.0820  0.1669 -0.2175
  154MOL    H4721773   6.330   4.947   1.228  2.3765  1.0605  2.4292
  154MOL    H4821774   6.262   4.945   1.400 -0.3187 -0.3451  0.2011
  154MOL    H4921775   6.248   4.726   1.229 -1.7978 -1.7550  1.2558
  154MOL    H5021776   6.116   4.812   1.163 -0.5890  0.9035  1.3057
  154MOL    C5121777   6.018   4.636   1.337  0.1655 -0.7200  0.3942
  154MOL    C5221778   5.907   4.665   1.235  0.5065 -0.4029  0.3236
  154MOL    O5321779   5.850   4.541   1.200  0.1207 -0.0633 -0.1625
  154MOL    H5421780   6.084   4.556   1.304 -0.5570 -1.5517  0.9341
  154MOL    H5521781   5.968   4.596   1.425 -0.2683 -1.4586 -0.1834
  154MOL    H5621782   5.947   4.699   1.140 -1.3081 -0.7004 -0.5780
  154MOL    H5721783   5.835   4.737   1.274  1.6820 -0.1642  2.0977
  154MOL    C5821784   5.739   4.558   1.117  0.4261 -0.0828 -0.0351
  154MOL    C5921785   5.630   4.457   1.125 -0.9768 -0.2741  0.1983
  154MOL    O6021786   5.567   4.451   1.252  0.4478 -0.3658 -0.6447
  154MOL    H6121787   5.691   4.655   1.124 -2.4890 -1.4985  0.5086
  154MOL    H6221788   5.775   4.569   1.015  0.4610  0.3279  0.0222
  154MOL    H6321789   5.675   4.360   1.102 -1.5335 -0.4917  0.0018
  154MOL    H6421790   5.565   4.481   1.041  1.5564 -0.3425 -1.8558
  154MOL    C6521791   5.507   4.571   1.295  0.4167 -0.2096  0.1620
  154MOL    C6621792   5.417   4.545   1.420  0.0982  0.2396 -0.1123
  154MOL    O6721793   5.293   4.497   1.368  0.3803  0.0111 -0.5443
  154MOL    H6821794   5.584   4.643   1.323 -0.7398  1.1760 -0.2269
  154MOL    H6921795   5.450   4.618   1.215 -0.1813  2.2895  1.9914
  154MOL    H7021796   5.396   4.636   1.476  0.5256 -0.5747  1.3848
  154MOL    H7121797   5.468   4.480   1.491  0.1266 -0.6744 -0.9662
  154MOL    C7221798   5.214   4.421   1.457  0.2131 -0.2556  0.1001
  154MOL    C7321799   5.094   4.372   1.374  0.0565  0.1976 -0.3504
  154MOL    O7421800   5.000   4.470   1.334  0.2423  0.3434  0.5072
  154MOL    H7521801   5.272   4.340   1.502  0.1599  0.1717  0.9271
  154MOL    H7621802   5.171   4.481   1.537  0.8551 -0.5744  0.6864
  154MOL    H7721803   5.052   4.297   1.441  1.4061 -0.0700  0.2001
  154MOL    H7821804   5.131   4.329   1.281  0.1153 -0.5284  0.0045
  154MOL    C7921805   4.898   4.434   1.239 -0.0936  0.1121 -0.5734
  154MOL    C8021806   4.897   4.521   1.121  0.6120 -0.0089  1.1302
  154MOL    O8121807   4.883   4.660   1.163  0.3064 -0.3107  0.1628
  154MOL    H8221808   4.896   4.327   1.219 -3.9745  0.0342 -0.1465
  154MOL    H8321809   4.807   4.447   1.297  0.3577  0.7245  0.0174
  154MOL    H8421810   4.820   4.487   1.052  1.1060  0.1618  0.4946
  154MOL    H8521811   4.986   4.496   1.063 -0.5064 -2.1027  0.2974
  154MOL    C8621812   4.942   4.755   1.078 -0.4513  0.2343  0.8954
  154MOL    C8721813   4.863   4.777   0.948  0.0615  0.7196 -0.1833
  154MOL    O8821814   4.770   4.889   0.965  0.2694 -0.7121  0.5051
  154MOL    H8921815   4.964   4.856   1.113  2.0172 -1.2749  3.9115
  154MOL    H9021816   5.042   4.722   1.051 -1.4927 -0.5544 -2.2297
  154MOL    H9121817   4.810   4.685   0.925  0.7585  0.3473 -0.3240
  154MOL    H9221818   4.928   4.799   0.863 -0.0753  1.8525 -0.0007
  154MOL    C9321819   4.655   4.854   1.039 -0.3427  0.9067  0.4291
  154MOL    C9421820   4.570   4.975   1.072 -0.5941 -0.0988 -0.5668
  154MOL    O9521821   4.660   5.067   1.134 -0.3879  0.9080  0.6593
  154MOL    H9621822   4.607   4.796   0.959  2.8246 -1.0720 -0.1209
  154MOL    H9721823   4.673   4.783   1.120  1.7934 -1.2243 -1.7709
  154MOL    H9821824   4.497   4.943   1.146  1.4971  0.5497  1.8688
  154MOL    H9921825   4.519   5.013   0.985 -3.7855  0.9486  1.6864
  154MOL   C10021826   4.602   5.190   1.167  0.2031 -0.5913 -0.6906
  154MOL   C10121827   4.713   5.283   1.226  0.5458 -0.1307  0.1221
  154MOL   O10221828   4.727   5.246   1.366  0.1472  0.3282 -0.3464
  154MOL   H10321829   4.571   5.229   1.070 -2.7850 -1.2241 -0.0136
  154MOL   H10421830   4.519   5.179   1.236 -0.0958 -0.1937 -0.9887
  154MOL   H10521831   4.688   5.388   1.213 -0.2172 -0.2760  0.3504
  154MOL   H10621832   4.799   5.253   1.167  0.4626  0.5168 -0.3340
  154MOL   C10721833   4.796   5.350   1.436  0.6127 -0.2371  0.1652
  154MOL   C10821834   4.793   5.300   1.578  0.1172 -0.1221  0.4535
  154MOL   O10921835   4.661   5.301   1.632 -0.3429 -0.2073  0.4709
  154MOL   H11021836   4.896   5.368   1.398  0.1066 -0.0795 -1.1317
  154MOL   H11121837   4.740   5.443   1.425 -0.8420 -1.0993  0.0693
  154MOL   H11221838   4.856   5.366   1.638 -0.5996 -0.3622  1.4853
  154MOL   H11321839   4.836   5.200   1.576  1.2322  0.3272  1.3871
  154MOL   C11421840   4.664   5.246   1.767 -0.2134 -0.7072  0.6797
  154MOL   C11521841   4.532   5.264   1.858 -0.4892 -0.3976  0.0176
  154MOL   O11621842   4.421   5.208   1.786 -0.0180  0.0130 -0.1940
  154MOL   H11721843   4.691   5.141   1.759 -1.0077 -0.8000 -1.0397
  154MOL   H11821844   4.742   5.280   1.835  1.5796  0.3853 -1.8731
  154MOL   H11921845   4.503   5.365   1.885 -0.0252 -0.7091  1.7065
  154MOL   H12021846   4.558   5.212   1.950  0.0688  0.6309  0.4441
  154MOL   C12121847   4.397   5.078   1.816 -0.1737 -0.6466  1.2267
  154MOL   C12221848   4.330   5.007   1.699  1.0978  0.4250 -0.0532
  154MOL   O12321849   4.420   4.926   1.631  0.5616 -0.4506 -0.2070
  154MOL   H12421850   4.489   5.024   1.835  0.2779  0.2834  1.7402
  154MOL   H12521851   4.334   5.080   1.906 -3.2216 -3.2127 -0.7287
  154MOL   H12621852   4.260   5.064   1.638 -0.0238  0.1011  0.9001
  154MOL   H12721853   4.259   4.932   1.735  1.1566 -0.7310 -2.3111
  154MOL   C12821854   4.496   4.993   1.529 -0.0246 -0.6622 -0.1032
  154MOL   C12921855   4.598   4.910   1.457  0.0971 -0.0729 -0.6566
  154MOL   O13021856   4.693   4.876   1.555  0.0108  0.9107 -0.6983
  154MOL   H13121857   4.422   5.027   1.456 -0.1475 -0.1306  0.2628
  154MOL   H13221858   4.541   5.084   1.570 -0.1857 -1.2609  1.4465
  154MOL   H13321859   4.630   4.966   1.370 -0.9871  0.6435 -0.5947
  154MOL   H13421860   4.539   4.824   1.424  1.7246 -1.1845 -0.7724
  154MOL   C13521861   4.798   4.794   1.510 -0.0581  0.2757  0.1415
  154MOL   C13621862   4.912   4.870   1.433 -0.2236  0.0311  0.4932
  154MOL   O13721863   5.037   4.814   1.449  0.5319  0.4138 -0.1126
  154MOL   H13821864   4.846   4.760   1.602 -0.4800 -2.8522 -0.7293
  154MOL   H13921865   4.763   4.698   1.470 -0.6340 -1.2431  4.0816
  154MOL   H14021866   4.917   4.965   1.488 -1.2016  1.1890 -1.3578
  154MOL   H14121867   4.879   4.894   1.332 -0.2730 -3.4392 -0.3610
  154MOL   H14221868   5.057   4.755   1.378 -1.2267 -0.1890 -0.1334
  155MOL     C121869   5.330   6.508   7.391 -0.2308 -0.0766 -0.1417
  155MOL     C221870   5.197   6.574   7.360  0.5354  0.7194 -0.1573
  155MOL     O321871   5.088   6.490   7.402  0.6406 -0.0902 -0.5303
  155MOL     H421872   5.353   6.519   7.497 -0.3346 -0.3348 -0.0900
  155MOL     H521873   5.421   6.558   7.359  1.5826 -2.8772  0.4329
  155MOL     H621874   5.182   6.592   7.253 -1.1429  0.8659  0.0882
  155MOL     H721875   5.191   6.670   7.411  0.9177  0.1090  1.0383
  155MOL     H821876   5.337   6.401   7.372  1.9873 -0.1678  1.0483
  155MOL     C921877   4.956   6.554   7.394 -0.4639  0.1549  0.6345
  155MOL    C1021878   4.869   6.494   7.503 -0.2014  0.3718  0.6642
  155MOL    O1121879   4.900   6.515   7.639 -0.2589  0.0083  0.0523
  155MOL    H1221880   4.969   6.662   7.394 -2.2245  0.3917  0.0022
  155MOL    H1321881   4.898   6.534   7.303  0.9903  0.2088 -0.3240
  155MOL    H1421882   4.865   6.385   7.501  1.1307  0.3172  0.8898
  155MOL    H1521883   4.766   6.526   7.487  0.6339  1.9631 -1.7650
  155MOL    C1621884   4.874   6.660   7.675 -0.1548  0.6334  0.4726
  155MOL    C1721885   4.913   6.700   0.043  0.5879  0.0877 -0.1490
  155MOL    O1821886   5.047   6.744   0.055 -0.1139 -0.3198  0.0573
  155MOL    H1921887   4.935   6.723   7.611  0.4808 -0.3195  0.1251
  155MOL    H2021888   4.769   6.686   7.659 -0.5449 -0.9961  0.1863
  155MOL    H2121889   4.876   6.620   0.108 -2.4045  0.4024 -1.3961
  155MOL    H2221890   4.858   6.790   0.071 -0.6182 -0.2470 -1.3748
  155MOL    C2321891   5.144   6.642   0.030  0.4110  0.1617 -0.8551
  155MOL    C2421892   5.281   6.697   0.056 -0.0136 -1.5397  0.3327
  155MOL    O2521893   5.347   6.765   7.721  0.1225  0.4339  0.0651
  155MOL    H2621894   5.120   6.570   0.108 -1.5124  1.9303  0.2529
  155MOL    H2721895   5.145   6.601   7.700  0.2681 -1.4417 -0.2128
  155MOL    H2821896   5.347   6.611   0.068  2.1347  0.0052 -0.0458
  155MOL    H2921897   5.272   6.749   0.151  0.8202 -1.2612  0.2637
  155MOL    C3021898   5.321   6.906   7.713  0.3425  0.1141  0.1929
  155MOL    C3121899   5.425   6.967   7.619  0.0199 -0.0159  0.5410
  155MOL    O3221900   5.381   7.101   7.586 -0.8245 -0.8782 -0.0773
  155MOL    H3321901   5.224   6.930   7.668  1.0548  1.4968 -0.6267
  155MOL    H3421902   5.317   6.942   0.045  3.1467  1.2646 -0.0846
  155MOL    H3521903   5.424   6.910   7.527  1.6877 -0.5532  0.8353
  155MOL    H3621904   5.520   6.970   7.673  0.9859  2.7089 -1.1721
  155MOL    C3721905   5.466   7.177   7.501 -0.3030 -0.2903  0.6107
  155MOL    C3821906   5.551   7.294   7.567  0.1830  0.2210  0.3059
  155MOL    O3921907   5.664   7.226   7.629  0.3558  0.0787  0.1715
  155MOL    H4021908   5.520   7.103   7.442 -0.0470  0.5236 -0.1838
  155MOL    H4121909   5.413   7.227   7.420  2.5650  0.0379 -1.1494
  155MOL    H4221910   5.489   7.353   7.633 -0.6608 -1.2257  0.8325
  155MOL    H4321911   5.590   7.366   7.495  0.1471 -0.1217 -0.0573
  155MOL    C4421912   5.762   7.309   7.692 -0.3747  0.7608  0.1402
  155MOL    C4521913   5.866   7.223   7.764 -0.0833  0.7174  0.0974
  155MOL    O4621914   5.968   7.172   7.685 -0.5762  0.0927 -0.0670
  155MOL    H4721915   5.814   7.375   7.621  1.7241 -0.4830  0.4757
  155MOL    H4821916   5.710   7.371   7.764 -3.4758 -2.3220  0.6782
  155MOL    H4921917   5.820   7.137   0.041  0.7857  1.4569  2.3041
  155MOL    H5021918   5.898   7.284   0.077  0.6181  0.6265 -0.1018
  155MOL    C5121919   6.070   7.106   7.761 -0.1839  0.5008 -0.6402
  155MOL    C5221920   6.137   7.010   7.669 -0.1559 -0.3337 -0.6926
  155MOL    O5321921   6.059   6.895   7.676  0.4238  0.2531 -0.2650
  155MOL    H5421922   6.133   7.186   0.029  0.9376 -0.5523 -0.2696
  155MOL    H5521923   6.034   7.039   0.068  1.6870 -0.8890 -0.9253
  155MOL    H5621924   6.237   6.985   7.703 -1.1022  0.0858  2.6285
  155MOL    H5721925   6.138   7.044   7.566 -0.3572 -2.2314 -1.3443
  155MOL    C5821926   6.112   6.784   7.611 -0.0664 -0.2689 -0.4811
  155MOL    C5921927   6.220   6.718   7.703  0.3255  0.6625  0.4222
  155MOL    O6021928   6.344   6.717   7.631 -0.5171  0.2591 -0.4538
  155MOL    H6121929   6.029   6.712   7.608  0.7596 -1.3752  1.7238
  155MOL    H6221930   6.145   6.803   7.509 -2.0803  0.2014 -1.0659
  155MOL    H6321931   6.183   6.619   7.729  1.9401  0.1685  0.8752
  155MOL    H6421932   6.236   6.777   0.022  0.9660  2.1463 -0.6351
  155MOL    C6521933   6.459   6.684   7.711 -0.1063  0.4454  0.1187
  155MOL    C6621934   6.576   6.648   7.615  0.4428 -0.7003 -0.7076
  155MOL    O6721935   6.609   6.774   7.556 -0.1721  0.6502  0.8592
  155MOL    H6821936   6.489   6.765   0.006  0.2167 -0.9391  1.6887
  155MOL    H6921937   6.425   6.598   7.769  0.2359  0.9152  1.0164
  155MOL    H7021938   6.549   6.568   7.546  1.0041 -0.7259 -0.9019
  155MOL    H7121939   6.660   6.607   7.671  0.5969 -1.7635 -1.7069
  155MOL    C7221940   6.693   6.764   7.441  0.3803  0.8610  0.0386
  155MOL    C7321941   6.622   6.721   7.313  0.0117 -0.2315  0.3885
  155MOL    O7421942   6.533   6.816   7.260  0.0721 -0.1459 -0.9721
  155MOL    H7521943   6.738   6.861   7.420  0.7833  0.1216 -2.6398
  155MOL    H7621944   6.784   6.705   7.455 -0.5665 -0.7943 -0.6170
  155MOL    H7721945   6.565   6.628   7.310  0.7700 -0.6503 -1.2172
  155MOL    H7821946   6.697   6.711   7.235  0.8708 -0.0582  1.1915
  155MOL    C7921947   6.411   6.847   7.339  0.6607  0.0648  0.3623
  155MOL    C8021948   6.316   6.919   7.251 -0.2732 -0.3465 -0.4848
  155MOL    O8121949   6.367   7.050   7.238 -0.3365 -0.2701 -0.2950
  155MOL    H8221950   6.380   6.749   7.374 -0.5234  0.0672 -0.6649
  155MOL    H8321951   6.441   6.905   7.426  2.8079  2.2581 -1.7478
  155MOL    H8421952   6.215   6.936   7.290 -0.0157  0.4229 -0.1313
  155MOL    H8521953   6.310   6.864   7.158 -3.4346 -1.8576  0.5493
  155MOL    C8621954   6.293   7.146   7.165 -0.2017  0.0541 -0.3590
  155MOL    C8721955   6.298   7.116   7.018  0.8717 -0.1092  0.1355
  155MOL    O8821956   6.205   7.202   6.955 -0.1954  0.3066  0.2169
  155MOL    H8921957   6.189   7.162   7.194 -0.4827  1.6523 -2.1633
  155MOL    H9021958   6.340   7.242   7.187  0.7166 -0.3679 -0.4499
  155MOL    H9121959   6.272   7.015   6.986  0.2067  0.4821 -1.1919
  155MOL    H9221960   6.397   7.136   6.977  1.9450 -1.0970  2.1163
  155MOL    C9321961   6.204   7.184   6.812 -0.1095  0.4710  0.7629
  155MOL    C9421962   6.076   7.242   6.753  0.2124 -0.6447 -0.2125
  155MOL    O9521963   6.101   7.378   6.747  0.9980 -0.7615  0.2272
  155MOL    H9621964   6.295   7.213   6.760 -1.2091 -0.2536 -1.6400
  155MOL    H9721965   6.200   7.078   6.788  1.8030  0.0792  2.0417
  155MOL    H9821966   5.984   7.223   6.809 -0.6205  0.7000 -1.0994
  155MOL    H9921967   6.070   7.200   6.653 -1.3654  0.1375 -0.4681
  155MOL   C10021968   6.001   7.452   6.688  0.6988 -0.0950 -0.8731
  155MOL   C10121969   6.066   7.581   6.631  0.6139 -0.5362  0.0354
  155MOL   O10221970   6.127   7.568   6.503  0.2533 -0.3070 -0.3091
  155MOL   H10321971   5.956   7.390   6.611  1.5805 -2.1798  0.2446
  155MOL   H10421972   5.929   7.465   6.769  0.4328  1.3691 -1.3283
  155MOL   H10521973   6.136   7.628   6.701 -0.2134  2.3704 -1.0075
  155MOL   H10621974   5.984   7.653   6.625 -0.4294 -1.7950 -0.8927
  155MOL   C10721975   6.261   7.520   6.500  0.7452 -0.3260  0.0594
  155MOL   C10821976   6.307   7.494   6.358 -0.3970 -0.0086 -0.9528
  155MOL   O10921977   6.276   7.358   6.315  0.3112 -0.0807  0.0994
  155MOL   H11021978   6.329   7.590   6.549  0.0185  0.6340 -0.2904
  155MOL   H11121979   6.279   7.421   6.543 -2.2397 -1.0657 -0.2941
  155MOL   H11221980   6.416   7.499   6.355 -0.2975 -1.8913 -0.8693
  155MOL   H11321981   6.270   7.570   6.289 -2.0347  1.9445  1.9556
  155MOL   C11421982   6.269   7.351   6.174  0.1856 -0.4702 -0.2130
  155MOL   C11521983   6.407   7.351   6.103  0.2016  0.1166  0.4011
  155MOL   O11621984   6.454   7.490   6.116 -0.0170 -0.1514  0.0089
  155MOL   H11721985   6.216   7.256   6.162  0.7115 -1.1040  2.2504
  155MOL   H11821986   6.191   7.422   6.146 -2.3658 -1.8550  3.1056
  155MOL   H11921987   6.399   7.331   5.996  1.5442  1.8319 -0.0367
  155MOL   H12021988   6.480   7.285   6.150  2.1370  1.6974 -0.3419
  155MOL   C12121989   6.569   7.521   6.034  0.8864 -0.0585  0.2005
  155MOL   C12221990   6.627   7.660   6.062  0.4454  0.1530 -0.4995
  155MOL   O12321991   6.546   7.765   6.013 -0.1697  0.0206  0.0291
  155MOL   H12421992   6.647   7.444   6.033 -0.6869 -1.7319  2.3261
  155MOL   H12521993   6.520   7.515   5.937  0.0776 -0.2398  0.6188
  155MOL   H12621994   6.722   7.674   6.010  0.4485 -0.4878 -0.6700
  155MOL   H12721995   6.649   7.665   6.168  1.2763  0.2100 -0.6648
  155MOL   C12821996   6.447   0.038   6.105 -0.3980 -0.2366 -0.7562
  155MOL   C12921997   6.350   0.118   6.021  0.5286 -0.2015  0.6676
  155MOL   O13021998   6.393   0.259   6.008 -0.1770 -0.1120  0.4782
  155MOL   H13121999   6.396   7.719   6.140 -0.9232  0.9722  1.6833
  155MOL   H13222000   6.493   0.090   6.189 -1.1575 -1.2766  0.3123
  155MOL   H13322001   6.250   0.108   6.064  0.3993  0.3602  0.4988
  155MOL   H13422002   6.361   0.071   5.924  0.8955 -1.1429  1.1604
  155MOL   C13522003   6.320   0.320   5.903  0.2937  0.0830  0.5679
  155MOL   C13622004   6.358   0.461   5.868  0.6121 -0.2441  0.4401
  155MOL   O13722005   6.475   0.472   5.786 -0.6217  0.1291 -0.4442
  155MOL   H13822006   6.313   0.252   5.818  1.8478 -2.2933  2.3001
  155MOL   H13922007   6.221   0.321   5.949  1.6622  0.4031  3.6220
  155MOL   H14022008   6.365   0.527   5.955  0.3139  0.6840 -0.2294
  155MOL   H14122009   6.275   0.494   5.805  0.6857  3.2627  2.0676
  155MOL   H14222010   6.545   0.439   5.841  0.7135  0.4760 -1.9150
  156MOL     C122011   2.493   2.588   2.623  0.1702  0.2379 -0.3896
  156MOL     C222012   2.344   2.590   2.643  0.5358  0.4199  0.7379
  156MOL     O322013   2.310   2.703   2.730  0.1737 -0.4462 -0.0058
  156MOL     H422014   2.522   2.686   2.585  1.6324 -0.4477 -1.1115
  156MOL     H522015   2.520   2.504   2.558  1.5686 -0.6666  1.3170
  156MOL     H622016   2.313   2.497   2.690  1.1558 -0.1522  0.0275
  156MOL     H722017   2.297   2.608   2.546  1.3483  0.1356  0.2863
  156MOL     H822018   2.535   2.573   2.722  2.5922  0.3246 -1.3449
  156MOL     C922019   2.190   2.678   2.808 -0.0201 -0.1017 -0.2179
  156MOL    C1022020   2.211   2.773   2.925  0.0918 -0.3783  0.0678
  156MOL    O1122021   2.306   2.710   3.011 -0.2701 -0.3106 -0.5830
  156MOL    H1222022   2.098   2.699   2.755  0.0112 -0.9793 -0.6330
  156MOL    H1322023   2.189   2.577   2.851 -2.0223 -0.4923 -1.1279
  156MOL    H1422024   2.127   2.780   2.994 -0.5322  1.4873 -0.8479
  156MOL    H1522025   2.239   2.873   2.891 -0.6633 -0.3375 -0.4485
  156MOL    C1622026   2.353   2.796   3.113 -0.2966 -0.0818 -0.4760
  156MOL    C1722027   2.465   2.715   3.174  0.2965  0.4869 -0.4981
  156MOL    O1822028   2.590   2.721   3.109  0.1741 -0.2841  0.0295
  156MOL    H1922029   2.391   2.889   3.071  1.3068 -1.1773 -1.5721
  156MOL    H2022030   2.281   2.834   3.184  1.3475  1.0668  0.6021
  156MOL    H2122031   2.430   2.612   3.183 -2.0981  1.4512  2.3262
  156MOL    H2222032   2.491   2.758   3.270 -0.9380  0.6077 -0.1984
  156MOL    C2322033   2.603   2.639   2.995 -0.2324  0.4725  1.0504
  156MOL    C2422034   2.749   2.660   2.941 -0.0568 -0.5623  0.2853
  156MOL    O2522035   2.854   2.605   3.023 -0.1195 -0.9079  0.1096
  156MOL    H2622036   2.590   2.532   3.012 -1.7732  0.4918  0.0975
  156MOL    H2722037   2.527   2.668   2.923  1.7528  2.1779 -0.4327
  156MOL    H2822038   2.765   2.766   2.960 -0.3682 -0.6087  0.8085
  156MOL    H2922039   2.750   2.630   2.836 -0.3312 -0.8975  0.3786
  156MOL    C3022040   2.974   2.597   2.955 -0.8675 -0.2620 -0.0628
  156MOL    C3122041   3.087   2.532   3.044  0.4541 -0.4912 -0.2453
  156MOL    O3222042   3.060   2.393   3.060 -1.2049  0.0758 -0.7461
  156MOL    H3322043   2.954   2.540   2.864  2.3362 -0.5910 -0.6090
  156MOL    H3422044   3.009   2.697   2.928 -1.9697  0.2657  0.4025
  156MOL    H3522045   3.100   2.590   3.136 -1.1276  2.4402 -1.8326
  156MOL    H3622046   3.179   2.544   2.986  0.4534 -0.3817 -0.2243
  156MOL    C3722047   3.118   2.335   3.168  0.0911 -0.2637  0.0904
  156MOL    C3822048   3.140   2.188   3.134 -0.3891  0.2658 -0.0624
  156MOL    O3922049   3.246   2.157   3.039 -0.1518  0.2450 -0.7390
  156MOL    H4022050   3.212   2.387   3.186 -0.1891  0.9767 -1.8179
  156MOL    H4122051   3.063   2.348   3.262 -2.4512 -0.2512 -1.3459
  156MOL    H4222052   3.049   2.134   3.108 -1.4397  1.6920  0.5935
  156MOL    H4322053   3.200   2.142   3.212  0.6074 -1.2666 -1.6885
  156MOL    C4422054   3.202   2.173   2.901 -0.1274 -0.2585  0.2940
  156MOL    C4522055   3.311   2.145   2.800  0.3063 -0.0019  0.2329
  156MOL    O4622056   3.319   2.014   2.758  0.1408 -0.6247 -0.0856
  156MOL    H4722057   3.114   2.111   2.888  0.5224 -1.0987 -0.1096
  156MOL    H4822058   3.166   2.276   2.889  2.2824  0.9204  2.5002
  156MOL    H4922059   3.404   2.177   2.848 -2.0258  2.6565  3.1777
  156MOL    H5022060   3.280   2.198   2.710 -0.3285 -0.1927  0.3376
  156MOL    C5122061   3.370   1.919   2.857 -0.0497  0.0472  0.2658
  156MOL    C5222062   3.434   1.803   2.776 -0.1811 -0.8986 -0.2857
  156MOL    O5322063   3.555   1.840   2.710  1.0261  0.2804  0.7061
  156MOL    H5422064   3.449   1.972   2.909 -0.9718 -0.4153  2.2023
  156MOL    H5522065   3.290   1.868   2.912  0.1391  0.5583  1.0161
  156MOL    H5622066   3.358   1.757   2.713 -0.4798 -2.7807  1.3986
  156MOL    H5722067   3.454   1.722   2.846 -1.6698 -1.7404 -0.7928
  156MOL    C5822068   3.527   1.835   2.571  0.4030  0.1718 -0.4288
  156MOL    C5922069   3.659   1.869   2.493  0.0113 -0.5979  0.1011
  156MOL    O6022070   3.683   2.002   2.463  0.3299 -0.4199  0.2156
  156MOL    H6122071   3.498   1.734   2.543  1.3657 -0.4506  0.7638
  156MOL    H6222072   3.450   1.900   2.530 -0.9744 -1.0976  0.0899
  156MOL    H6322073   3.649   1.827   2.393  1.1711  0.3253 -0.4158
  156MOL    H6422074   3.750   1.825   2.535 -0.0700 -0.9991 -0.1375
  156MOL    C6522075   3.799   2.049   2.532 -0.3736  0.0125 -0.1614
  156MOL    C6622076   3.843   2.195   2.480  0.3742  0.1063 -0.1938
  156MOL    O6722077   3.959   2.238   2.553 -0.4539  0.1263  0.6013
  156MOL    H6822078   3.780   2.050   2.640  1.4500 -0.2524  0.1722
  156MOL    H6922079   3.878   1.977   2.510  0.1809  1.2645 -2.4423
  156MOL    H7022080   3.752   2.249   2.506  0.8569  1.1008 -0.5440
  156MOL    H7122081   3.868   2.198   2.374  1.3029  1.6227  0.0535
  156MOL    C7222082   3.981   2.372   2.525 -0.1219 -0.6202  0.0258
  156MOL    C7322083   4.106   2.424   2.592 -0.7269  0.2686  0.3220
  156MOL    O7422084   4.210   2.367   2.523  0.0338 -0.0890 -0.5372
  156MOL    H7522085   3.986   2.392   2.418  1.3341  0.4223  0.2804
  156MOL    H7622086   3.894   2.429   2.557  0.5575  1.2166 -1.2867
  156MOL    H7722087   4.112   2.412   2.700  1.0040  0.8079  0.3028
  156MOL    H7822088   4.102   2.532   2.580  0.3026  0.5986  2.5702
  156MOL    C7922089   4.335   2.423   2.571  0.7962 -0.4515  0.0078
  156MOL    C8022090   4.454   2.372   2.484 -0.3899 -0.7666  0.1249
  156MOL    O8122091   4.479   2.461   2.375  0.3392  0.6049 -0.2539
  156MOL    H8222092   4.342   2.531   2.563  2.2159 -0.6512 -1.8790
  156MOL    H8322093   4.353   2.402   2.676 -0.2697 -0.6194  0.1645
  156MOL    H8422094   4.442   2.267   2.459 -3.0083 -0.8455  1.4870
  156MOL    H8522095   4.552   2.369   2.531 -1.0769  3.2110  2.0161
  156MOL    C8622096   4.568   2.411   2.273 -0.0058  0.3406  0.2149
  156MOL    C8722097   4.622   2.532   2.203 -0.3086  0.1565  0.6422
  156MOL    O8822098   4.712   2.581   2.295  0.6252 -0.3709  0.4386
  156MOL    H8922099   4.647   2.346   2.310  1.9996  2.7952  0.3424
  156MOL    H9022100   4.504   2.349   2.209 -0.3015  1.7005 -0.8363
  156MOL    H9122101   4.550   2.610   2.179  0.9097  0.3652 -2.5479
  156MOL    H9222102   4.669   2.493   2.112 -1.1894 -1.7656  0.9806
  156MOL    C9322103   4.812   2.670   2.239  0.4108 -0.2899  0.2777
  156MOL    C9422104   4.758   2.806   2.210  0.4269 -0.0871  0.0667
  156MOL    O9522105   4.664   2.799   2.106  0.0674  0.0519 -0.2587
  156MOL    H9622106   4.892   2.678   2.312 -1.1166  0.0030  1.9494
  156MOL    H9722107   4.863   2.642   2.147  0.8854  0.6846  0.2338
  156MOL    H9822108   4.843   2.868   2.180  1.4540 -1.0075  1.0090
  156MOL    H9922109   4.706   2.859   2.290  0.0479 -1.1907  0.5548
  156MOL   C10022110   4.652   2.932   2.054 -0.1329 -0.3508 -0.6478
  156MOL   C10122111   4.521   2.939   1.960  0.2003 -0.1095  0.0857
  156MOL   O10222112   4.575   2.900   1.837  0.2725  0.7095 -0.7341
  156MOL   H10322113   4.625   2.991   2.141 -1.1487 -0.5711 -0.8058
  156MOL   H10422114   4.741   2.982   2.016  0.2386  0.2936  1.0166
  156MOL   H10522115   4.484   3.041   1.966  2.0671  0.6229 -0.4186
  156MOL   H10622116   4.442   2.882   2.008 -1.1875  0.9720 -0.8800
  156MOL   C10722117   4.475   2.881   1.733  0.0569 -0.0648 -0.5445
  156MOL   C10822118   4.380   2.996   1.716 -0.0876 -0.3385  0.2940
  156MOL   O10922119   4.258   2.987   1.797  0.5141 -0.0255 -0.1417
  156MOL   H11022120   4.537   2.865   1.645  0.5516 -0.8730 -0.0611
  156MOL   H11122121   4.421   2.788   1.747 -1.9996  1.3128  0.9033
  156MOL   H11222122   4.346   2.990   1.612 -2.7137 -1.4192  1.1682
  156MOL   H11322123   4.441   3.086   1.717 -0.4189 -0.1178  2.4004
  156MOL   C11422124   4.159   3.076   1.757  0.3889  0.2315  0.6551
  156MOL   C11522125   4.176   3.223   1.811  0.1034 -0.0623 -0.0633
  156MOL   O11622126   4.290   3.277   1.749 -0.6219  0.1165 -0.1260
  156MOL   H11722127   4.134   3.071   1.651 -1.2714 -0.7469  1.0656
  156MOL   H11822128   4.070   3.036   1.806 -1.3816  2.3584 -0.7274
  156MOL   H11922129   4.186   3.232   1.919  0.8277  2.6895 -0.3312
  156MOL   H12022130   4.090   3.278   1.775  0.6207 -0.8411 -2.6026
  156MOL   C12122131   4.354   3.383   1.818 -0.2597 -0.3883 -0.5430
  156MOL   C12222132   4.302   3.524   1.785  0.9426  0.3648  0.5580
  156MOL   O12322133   4.173   3.536   1.840  0.0871  0.2320  0.8460
  156MOL   H12422134   4.349   3.353   1.922 -1.6568  2.7751  0.3594
  156MOL   H12522135   4.457   3.391   1.782 -0.5981 -0.8118 -1.6208
  156MOL   H12622136   4.301   3.547   1.678 -0.7835 -1.5873  0.1432
  156MOL   H12722137   4.372   3.588   1.840  2.5177 -0.4049 -0.4926
  156MOL   C12822138   4.117   3.666   1.828  0.0223 -0.4627 -0.3504
  156MOL   C12922139   3.987   3.661   1.897 -0.1523 -0.5862  0.2555
  156MOL   O13022140   3.877   3.620   1.807 -0.3097 -0.1493  0.4192
  156MOL   H13122141   4.182   3.736   1.880  1.4587 -1.0571 -1.2909
  156MOL   H13222142   4.101   3.693   1.723 -0.6523  0.8555  0.0901
  156MOL   H13322143   3.970   3.762   1.933  2.2947 -0.5136  1.3554
  156MOL   H13422144   3.984   3.588   1.979 -1.9969 -1.0781 -0.2278
  156MOL   C13522145   3.743   3.624   1.867 -0.1988 -0.4250 -0.3416
  156MOL   C13622146   3.656   3.626   1.741  0.0216 -0.0000  0.5051
  156MOL   O13722147   3.638   3.493   1.692  0.5162  0.2436  0.2352
  156MOL   H13822148   3.732   3.534   1.928 -0.9807  1.3255  2.1875
  156MOL   H13922149   3.730   3.705   1.939 -1.3619 -0.6891 -0.2522
  156MOL   H14022150   3.712   3.676   1.662  2.2437 -1.1795  1.2595
  156MOL   H14122151   3.554   3.662   1.738 -0.7139 -2.0216  0.7955
  156MOL   H14222152   3.602   3.445   1.765  0.7974  0.8966  0.8188
  157MOL     C122153   3.110   6.619   2.991 -0.6046  0.7860 -0.1291
  157MOL     C222154   3.097   6.764   2.927 -0.4890  0.3421  0.0252
  157MOL     O322155   3.090   6.869   3.019  0.1159  0.0507  0.3817
  157MOL     H422156   3.013   6.607   3.039  0.5524 -0.1829  2.0193
  157MOL     H522157   3.197   6.604   3.055 -0.9766  2.6063  0.8414
  157MOL     H622158   3.005   6.767   2.870 -0.2398 -1.3814 -0.4997
  157MOL     H722159   3.179   6.765   2.855 -0.5831 -1.9898 -0.1641
  157MOL     H822160   3.116   6.546   2.911  0.2122  0.8110 -0.0889
  157MOL     C922161   3.110   7.003   2.965  0.1824 -0.5399 -0.3326
  157MOL    C1022162   3.161   7.096   3.084 -0.4994  0.3272 -0.1318
  157MOL    O1122163   3.059   7.133   3.171  0.0763  0.1771 -0.1984
  157MOL    H1222164   3.175   7.004   2.877  1.2223  1.5109  0.4219
  157MOL    H1322165   3.014   7.041   2.932 -0.6872 -2.4994 -0.1494
  157MOL    H1422166   3.211   7.189   3.055 -0.9460  0.6362  0.0801
  157MOL    H1522167   3.243   7.042   3.130 -0.1917  0.4106 -0.5825
  157MOL    C1622168   3.112   7.184   3.298  0.0700  0.0507 -0.4183
  157MOL    C1722169   2.994   7.206   3.393 -0.3862 -0.3359 -0.2120
  157MOL    O1822170   3.010   7.322   3.483 -0.5139 -0.4129 -0.1957
  157MOL    H1922171   3.187   7.120   3.344  0.8318  1.3793  0.2134
  157MOL    H2022172   3.170   7.274   3.274 -0.8531  1.2104  1.5688
  157MOL    H2122173   2.985   7.109   3.442  1.3337  0.2201  1.2560
  157MOL    H2222174   2.908   7.229   3.330  0.4683 -0.3715 -1.4127
  157MOL    C2322175   3.062   7.299   3.620 -0.1525  0.4770  0.1196
  157MOL    C2422176   2.971   7.242   3.730 -0.0860  0.1520 -0.2879
  157MOL    O2522177   2.849   7.324   3.762 -0.7487 -0.1026 -0.4139
  157MOL    H2622178   3.145   7.230   3.609  2.3541  3.3934  0.1324
  157MOL    H2722179   3.096   7.399   3.648  3.5460 -0.1695 -1.8365
  157MOL    H2822180   3.026   7.232   3.824 -0.1204  0.6709 -0.2094
  157MOL    H2922181   2.937   7.142   3.703 -0.9897  0.4897 -0.4216
  157MOL    C3022182   2.772   7.283   3.876  0.6338 -0.1495  0.6615
  157MOL    C3122183   2.655   7.196   3.834 -0.4067 -0.4782  0.0928
  157MOL    O3222184   2.717   7.076   3.788  0.4561  0.2372 -0.6574
  157MOL    H3322185   2.841   7.238   3.947  1.0264 -0.1456  0.2829
  157MOL    H3422186   2.736   7.373   3.926 -1.2150  2.0867 -4.3201
  157MOL    H3522187   2.587   7.235   3.758  0.0097 -0.7738 -0.4352
  157MOL    H3622188   2.595   7.176   3.923 -2.1166  2.4742 -0.3378
  157MOL    C3722189   2.614   6.979   3.776 -1.0796  0.4324  0.0249
  157MOL    C3822190   2.685   6.840   3.746 -0.3427 -0.1400 -0.1523
  157MOL    O3922191   2.695   6.759   3.862 -0.3703 -1.0303  0.0951
  157MOL    H4022192   2.565   6.965   3.873 -0.5829  0.3475  0.2634
  157MOL    H4122193   2.550   7.012   3.694  1.4819  2.2432 -1.3126
  157MOL    H4222194   2.789   6.852   3.717  0.0496 -1.6966  0.5857
  157MOL    H4322195   2.633   6.803   3.658 -2.0005  1.3987  0.1350
  157MOL    C4422196   2.674   6.624   3.821 -0.0700  0.5276  0.2581
  157MOL    C4522197   2.524   6.591   3.838  0.5065 -0.4418 -0.5489
  157MOL    O4622198   2.436   6.653   3.746  0.2276 -0.2351 -0.5641
  157MOL    H4722199   2.695   6.602   3.716  1.5295 -1.2153  0.9146
  157MOL    H4822200   2.725   6.555   3.889  0.3868  0.7632  0.1521
  157MOL    H4922201   2.498   6.611   3.942  2.2807  0.8217 -0.3306
  157MOL    H5022202   2.514   6.484   3.821  1.7279 -0.5432 -0.6877
  157MOL    C5122203   2.311   6.675   3.800 -0.2200 -0.0532  0.2232
  157MOL    C5222204   2.227   6.546   3.809  0.5868 -0.0974 -0.0422
  157MOL    O5322205   2.275   6.472   3.923 -0.9394 -0.1122 -0.0025
  157MOL    H5422206   2.308   6.736   3.890 -1.8678 -0.5992  0.5521
  157MOL    H5522207   2.262   6.729   3.719  0.9020  1.5049  0.5742
  157MOL    H5622208   2.231   6.484   3.720 -1.0106  0.2892 -0.4066
  157MOL    H5722209   2.122   6.565   3.832  0.8503  1.2300  0.1222
  157MOL    C5822210   2.189   6.365   3.961  0.0360  0.8152 -0.2147
  157MOL    C5922211   2.257   6.273   4.063  0.0010  0.3833 -0.0705
  157MOL    O6022212   2.159   6.197   4.145 -0.0858 -0.3264 -0.0582
  157MOL    H6122213   2.093   6.396   4.004 -0.3749 -1.0343  0.2406
  157MOL    H6222214   2.160   6.308   3.873 -1.0067 -0.3326  0.8444
  157MOL    H6322215   2.321   6.337   4.123 -3.1149  1.8684  1.7142
  157MOL    H6422216   2.320   6.210   3.999 -1.5336 -1.9853  0.6661
  157MOL    C6522217   2.219   6.108   4.236 -0.7961 -1.0539  0.2986
  157MOL    C6622218   2.334   6.162   4.317 -0.0540 -0.5982 -0.4609
  157MOL    O6722219   2.294   6.267   4.405 -0.0117  0.1914  0.4497
  157MOL    H6822220   2.143   6.064   4.301 -0.4800 -0.7114  0.8920
  157MOL    H6922221   2.245   6.026   4.169  1.0391  0.2353 -0.5897
  157MOL    H7022222   2.424   6.181   4.259  0.7522 -2.7422  0.0233
  157MOL    H7122223   2.357   6.073   4.376 -0.3036  0.4960  1.3380
  157MOL    C7222224   2.380   6.291   4.517 -0.8094 -0.2461  0.3555
  157MOL    C7322225   2.528   6.323   4.489 -0.8714 -0.6035 -0.0783
  157MOL    O7422226   2.595   6.209   4.451 -0.4054 -0.2231  0.3247
  157MOL    H7522227   2.338   6.375   4.571 -0.0652  0.4456 -0.1312
  157MOL    H7622228   2.383   6.206   4.585  0.6140 -0.5563 -0.0738
  157MOL    H7722229   2.575   6.355   4.583 -1.0641  1.7442 -0.7607
  157MOL    H7822230   2.535   6.407   4.419  1.0375  0.0883  0.9040
  157MOL    C7922231   2.738   6.229   4.460 -0.2486 -0.0130  0.2810
  157MOL    C8022232   2.812   6.097   4.444 -0.2840  0.3380  0.0749
  157MOL    O8122233   2.804   6.008   4.553  0.2425  1.0127  0.3324
  157MOL    H8222234   2.773   6.303   4.387  0.3152 -1.3463 -0.8276
  157MOL    H8322235   2.775   6.284   4.547  0.9856 -0.6739  0.1977
  157MOL    H8422236   2.915   6.118   4.418 -0.4473 -0.5290 -1.3114
  157MOL    H8522237   2.788   6.039   4.356  0.5250 -1.2910  0.8911
  157MOL    C8622238   2.841   5.878   4.516  1.2196 -0.5051 -0.1533
  157MOL    C8722239   2.926   5.818   4.630 -0.1940 -0.2832  0.9892
  157MOL    O8822240   3.034   5.902   4.670  0.2366  0.5712  0.0302
  157MOL    H8922241   2.752   5.817   4.500  1.2642 -0.5223 -0.3382
  157MOL    H9022242   2.897   5.873   4.423  0.3772  0.1011 -0.6976
  157MOL    H9122243   2.958   5.715   4.613 -1.0413 -0.4934  0.6591
  157MOL    H9222244   2.852   5.806   4.710 -0.8010  1.4101  0.6934
  157MOL    C9322245   3.116   5.843   4.768  0.0628 -0.0565  0.4836
  157MOL    C9422246   3.187   5.955   4.847 -0.6029 -0.5278  0.1170
  157MOL    O9522247   3.236   5.892   4.964  0.4594  0.6167  0.6312
  157MOL    H9622248   3.050   5.780   4.827  0.4507 -1.3505 -0.4258
  157MOL    H9722249   3.192   5.784   4.717 -0.6164  1.0844 -1.9188
  157MOL    H9822250   3.114   6.032   4.871 -0.5056  0.1560 -1.6623
  157MOL    H9922251   3.274   5.997   4.797 -0.9047  1.2446  1.0496
  157MOL   C10022252   3.280   5.973   5.064 -0.1182 -0.0410 -0.3907
  157MOL   C10122253   3.351   5.888   5.173 -0.6747  0.3444  0.8327
  157MOL   O10222254   3.262   5.802   5.249  0.0376  0.1560 -0.5031
  157MOL   H10322255   3.353   6.044   5.026 -1.6389  1.7973  0.0118
  157MOL   H10422256   3.201   6.035   5.107  0.2984 -1.3926  2.4615
  157MOL   H10522257   3.413   5.959   5.229 -1.0552 -0.1250  1.8555
  157MOL   H10622258   3.415   5.825   5.111 -0.3865  1.0283  0.4147
  157MOL   C10722259   3.202   5.875   5.355  0.6613  0.3371  0.0128
  157MOL   C10822260   3.155   5.792   5.469 -0.0485  0.0203 -0.4409
  157MOL   O10922261   3.273   5.746   5.535 -0.1085 -0.2042  0.2608
  157MOL   H11022262   3.265   5.944   5.410 -0.7259  1.0959  0.6716
  157MOL   H11122263   3.132   5.946   5.311  0.6678  0.4031  0.1119
  157MOL   H11222264   3.089   5.709   5.441 -0.9994  1.5250 -2.8711
  157MOL   H11322265   3.106   5.847   5.549  0.7749 -0.1463  0.1807
  157MOL   C11422266   3.245   5.620   5.593  0.7726  0.6229  0.1137
  157MOL   C11522267   3.283   5.517   5.483  0.5168  0.4799 -0.0892
  157MOL   O11622268   3.170   5.479   5.406 -0.0337  0.2355 -0.1405
  157MOL   H11722269   3.306   5.620   5.683  3.2667  0.8376 -1.5427
  157MOL   H11822270   3.144   5.594   5.627  2.6618 -3.1700  3.2493
  157MOL   H11922271   3.319   5.428   5.535 -0.1248  0.2791  0.0260
  157MOL   H12022272   3.363   5.554   5.419 -1.9712  3.1428 -1.8099
  157MOL   C12122273   3.190   5.458   5.271 -0.7793  0.5859  0.1324
  157MOL   C12222274   3.251   5.314   5.241 -0.1253 -0.2948 -0.0064
  157MOL   O12322275   3.389   5.299   5.287 -0.0666  0.1958  0.2847
  157MOL   H12422276   3.092   5.454   5.224 -0.1286  2.0192 -1.3666
  157MOL   H12522277   3.246   5.536   5.221  0.1066  0.1799  0.4721
  157MOL   H12622278   3.249   5.305   5.132 -0.6245 -1.5732  0.1046
  157MOL   H12722279   3.175   5.243   5.274 -0.6682 -0.2517 -1.1474
  157MOL   C12822280   3.465   5.196   5.222  0.4174  0.0643  0.1353
  157MOL   C12922281   3.442   5.060   5.290  0.6880 -0.1660 -0.0003
  157MOL   O13022282   3.326   4.993   5.247  0.8972  0.2554 -0.2019
  157MOL   H13122283   3.442   5.190   5.116 -2.6818  2.0199  0.6225
  157MOL   H13222284   3.566   5.234   5.236 -0.4978  3.0396 -0.9458
  157MOL   H13322285   3.421   5.079   5.396  1.0492  0.4898 -0.0459
  157MOL   H13422286   3.527   4.994   5.304  1.7176  1.1133 -0.1099
  157MOL   C13522287   3.302   4.869   5.312 -0.0367 -0.5890  0.6614
  157MOL   C13622288   3.403   4.765   5.251  0.3550 -0.5442 -0.2717
  157MOL   O13722289   3.507   4.731   5.338  1.1310  0.4765 -0.1804
  157MOL   H13822290   3.304   4.878   5.420 -0.5943  1.6670  0.5020
  157MOL   H13922291   3.207   4.827   5.280  0.0010  0.3500 -0.7304
  157MOL   H14022292   3.437   4.801   5.154 -1.2603 -1.7155 -1.2976
  157MOL   H14122293   3.342   4.675   5.238  2.0639 -1.2781 -3.8690
  157MOL   H14222294   3.465   4.692   5.413 -0.8578  0.4123 -1.2981
  158MOL     C122295   0.536   3.800   2.961 -0.0383  0.0548  0.3264
  158MOL     C222296   0.624   3.933   2.943 -0.1296  0.1664  0.6044
  158MOL     O322297   0.555   4.043   2.876 -0.0635  0.0201  0.5109
  158MOL     H422298   0.476   3.816   3.050 -2.5137 -1.9612 -0.9323
  158MOL     H522299   0.601   3.713   2.974 -0.0845 -0.1924 -1.0759
  158MOL     H622300   0.707   3.901   2.880  0.0257  0.8809  0.4488
  158MOL     H722301   0.664   3.971   3.037 -0.9740  2.0437  0.2091
  158MOL     H822302   0.491   3.786   2.863  2.4364  0.8916 -0.9712
  158MOL     C922303   0.647   4.115   2.787  0.8769 -0.5272  0.4796
  158MOL    C1022304   0.584   4.245   2.734 -0.6156  0.3492 -0.3799
  158MOL    O1122305   0.657   4.280   2.614 -0.1988  0.3512 -0.0048
  158MOL    H1222306   0.743   4.117   2.839  0.2229  3.8087  1.6955
  158MOL    H1322307   0.671   4.052   2.702  0.8728  0.2675 -0.1174
  158MOL    H1422308   0.577   4.321   2.812  2.2340 -2.2437  2.5540
  158MOL    H1522309   0.482   4.219   2.706 -1.0749  1.8497 -0.1614
  158MOL    C1622310   0.778   4.352   2.633  0.1267  0.1061  0.3451
  158MOL    C1722311   0.756   4.505   2.653 -0.1041 -0.0679  0.2321
  158MOL    O1822312   0.746   4.527   2.797 -0.5884 -0.4985 -0.1493
  158MOL    H1922313   0.838   4.322   2.719  0.0318  0.4526  0.5322
  158MOL    H2022314   0.837   4.334   2.543 -1.3890  0.0901 -0.6707
  158MOL    H2122315   0.660   4.524   2.604 -0.4373 -1.2549  0.4022
  158MOL    H2222316   0.829   4.571   2.606 -0.6271  0.6772  0.4673
  158MOL    C2322317   0.721   4.663   2.829  0.2093  0.6090  0.1579
  158MOL    C2422318   0.769   4.685   2.973  0.3542 -0.4519  0.0662
  158MOL    O2522319   0.910   4.666   2.985  0.0329  0.0915 -0.3320
  158MOL    H2622320   0.765   4.737   2.763 -0.0200  0.9375  0.3711
  158MOL    H2722321   0.614   4.685   2.825  0.0061 -0.2896  0.3382
  158MOL    H2822322   0.721   4.619   3.045  2.2999 -0.4349  1.4412
  158MOL    H2922323   0.755   4.790   2.996  1.7049 -0.1109 -0.5946
  158MOL    C3022324   0.968   4.722   3.105  0.2141 -0.0015  0.6229
  158MOL    C3122325   1.121   4.712   3.106 -0.0713 -0.3295 -0.1163
  158MOL    O3222326   1.185   4.813   3.026 -0.0095 -0.1610  0.2410
  158MOL    H3322327   0.936   4.826   3.100 -0.8787 -0.2475  2.3361
  158MOL    H3422328   0.916   4.683   3.192 -0.7179  1.3283  0.6625
  158MOL    H3522329   1.147   4.612   3.072 -1.8708 -1.0105  0.4327
  158MOL    H3622330   1.165   4.732   3.204 -1.5263 -0.3737  0.5685
  158MOL    C3722331   1.328   4.795   3.013  0.7560  0.4365 -0.3396
  158MOL    C3822332   1.400   4.906   2.943 -0.2396 -0.4299  0.3126
  158MOL    O3922333   1.383   4.905   2.800  0.2207  0.5377 -0.1289
  158MOL    H4022334   1.375   4.780   3.111  0.1953 -1.4390 -0.3426
  158MOL    H4122335   1.342   4.698   2.966  0.5011 -0.0972  0.6693
  158MOL    H4222336   1.507   4.923   2.958  0.1136 -1.1942 -1.1937
  158MOL    H4322337   1.366   4.999   2.988 -1.3680 -0.8629  0.3631
  158MOL    C4422338   1.440   4.791   2.732 -0.4740  0.7724  0.3064
  158MOL    C4522339   1.582   4.810   2.698 -0.1476 -0.0437  0.2657
  158MOL    O4622340   1.610   4.926   2.621  0.4458 -0.1495 -0.1912
  158MOL    H4722341   1.433   4.692   2.776  0.7389  0.6452  0.2447
  158MOL    H4822342   1.387   4.796   2.637  0.1476  1.9875  0.0167
  158MOL    H4922343   1.619   4.720   2.647  0.2847  0.0966  0.3277
  158MOL    H5022344   1.644   4.809   2.787  0.4287  0.7762 -0.1225
  158MOL    C5122345   1.729   4.927   2.549  0.4063 -0.2841 -0.1814
  158MOL    C5222346   1.790   5.062   2.511  0.7554 -0.5995  0.0252
  158MOL    O5322347   1.740   5.113   2.395  0.0430 -0.3612  0.3605
  158MOL    H5422348   1.804   4.870   2.603 -2.1805  0.1819  4.1035
  158MOL    H5522349   1.712   4.870   2.458  1.3026 -1.4785  0.3937
  158MOL    H5622350   1.899   5.057   2.504  0.6928  0.0586 -1.6242
  158MOL    H5722351   1.764   5.129   2.593 -2.2407 -0.6016 -0.8775
  158MOL    C5822352   1.765   5.254   2.379 -0.3637  0.1682  0.1326
  158MOL    C5922353   1.696   5.287   2.248  0.1725  0.0988 -0.2376
  158MOL    O6022354   1.773   5.229   2.142  0.2246  0.6873 -0.2735
  158MOL    H6122355   1.718   5.307   2.462 -0.8134  0.6089 -0.4012
  158MOL    H6222356   1.867   5.287   2.361 -0.4011  0.0730 -0.2545
  158MOL    H6322357   1.704   5.394   2.228  0.3427  0.3438  1.0618
  158MOL    H6422358   1.594   5.252   2.263  0.6130 -1.2943 -0.4430
  158MOL    C6522359   1.690   5.181   2.032 -0.4320  0.2358  0.0506
  158MOL    C6622360   1.765   5.149   1.901  0.0711  0.4009 -0.4843
  158MOL    O6722361   1.833   5.261   1.849  0.3051 -0.8089  0.2710
  158MOL    H6822362   1.633   5.092   2.060  1.5526 -1.9725 -2.6555
  158MOL    H6922363   1.612   5.253   2.007 -0.3782 -0.5673 -2.5441
  158MOL    H7022364   1.701   5.097   1.829  0.7101 -0.6172 -0.3370
  158MOL    H7122365   1.841   5.073   1.920  0.6864  0.7520 -1.4739
  158MOL    C7222366   1.917   5.214   1.738 -0.5036  0.1907 -0.0384
  158MOL    C7322367   1.836   5.218   1.609 -0.2793  0.3281  0.4899
  158MOL    O7422368   1.826   5.351   1.562 -0.5186  0.9538 -0.4353
  158MOL    H7522369   1.995   5.289   1.734 -1.1730  0.8586 -0.7222
  158MOL    H7622370   1.959   5.115   1.753  0.8854  0.6007 -1.1779
  158MOL    H7722371   1.731   5.190   1.619 -0.5385  0.8470 -0.6873
  158MOL    H7822372   1.891   5.172   1.527 -0.0878 -0.8273  1.2424
  158MOL    C7922373   1.749   5.376   1.442 -0.4576  0.1367 -0.6429
  158MOL    C8022374   1.755   5.530   1.415 -0.8525  0.3857 -0.1089
  158MOL    O8122375   1.880   5.575   1.360  0.0294 -0.4945  0.2651
  158MOL    H8222376   1.794   5.330   1.354 -0.8197 -2.4305  0.4927
  158MOL    H8322377   1.648   5.341   1.465 -0.3151  0.5250  0.5854
  158MOL    H8422378   1.726   5.592   1.500 -1.0898  2.6252 -1.7848
  158MOL    H8522379   1.676   5.551   1.343 -1.9025  1.9541  1.4551
  158MOL    C8622380   1.881   5.720   1.332  0.2862 -0.3105  0.4985
  158MOL    C8722381   2.025   5.764   1.316  0.0895  0.2344 -0.6509
  158MOL    O8822382   2.042   5.897   1.296 -0.7106  0.0268 -0.1268
  158MOL    H8922383   1.816   5.746   1.248  2.2036  1.2062 -0.5495
  158MOL    H9022384   1.845   5.771   1.421  0.5816  0.0049  0.4390
  158MOL    H9122385   2.056   5.722   1.220  1.6548  1.1225 -0.5538
  158MOL    H9222386   2.093   5.725   1.392 -0.5623 -2.4485 -1.3848
  158MOL    C9322387   2.174   5.927   1.238  0.2316  0.4658 -0.1617
  158MOL    C9422388   2.188   6.080   1.226 -0.2137  0.0320  0.6894
  158MOL    O9522389   2.319   6.108   1.200  0.3300 -0.3540 -0.0286
  158MOL    H9622390   2.250   5.892   1.308  2.4239  1.6548 -1.8768
  158MOL    H9722391   2.187   5.876   1.143 -0.9465  1.0019 -0.6162
  158MOL    H9822392   2.162   6.128   1.320 -1.5172  1.2669 -0.2841
  158MOL    H9922393   2.116   6.111   1.149 -0.4126  2.1365  1.6782
  158MOL   C10022394   2.340   6.246   1.209  0.4063 -0.3693 -0.1850
  158MOL   C10122395   2.489   6.270   1.180 -0.0512  0.3116  0.3698
  158MOL   O10222396   2.568   6.248   1.296  0.3090  0.0472  0.2733
  158MOL   H10322397   2.265   6.300   1.152 -1.5650 -0.1480  2.5224
  158MOL   H10422398   2.329   6.266   1.315  0.1510 -1.8279  0.0759
  158MOL   H10522399   2.493   6.374   1.149 -2.4800  0.6423  1.0187
  158MOL   H10622400   2.530   6.234   1.086 -0.9651  1.5050 -0.4998
  158MOL   C10722401   2.594   6.109   1.315  0.5032  0.0406 -0.4035
  158MOL   C10822402   2.729   6.075   1.391 -0.0317 -0.4295  0.0847
  158MOL   O10922403   2.833   6.098   1.300  0.7827  0.1748 -0.5175
  158MOL   H11022404   2.511   6.051   1.357  0.0117  0.0321 -1.3626
  158MOL   H11122405   2.611   6.063   1.218  1.2201 -2.4201  0.8594
  158MOL   H11222406   2.710   5.973   1.424  1.4107 -0.6749  0.1529
  158MOL   H11322407   2.742   6.132   1.483 -0.7110  0.1239 -0.1563
  158MOL   C11422408   2.956   6.038   1.339 -0.0532 -0.2978 -0.1238
  158MOL   C11522409   3.055   6.075   1.228 -0.1074 -0.6010  0.1997
  158MOL   O11622410   2.998   6.012   1.105  0.4691  0.6681 -0.1655
  158MOL   H11722411   3.005   6.085   1.424  1.3737  2.0407 -2.1645
  158MOL   H11822412   2.940   5.930   1.342  0.8353 -0.4230  0.2919
  158MOL   H11922413   3.157   6.056   1.261 -0.5316  0.5309  2.2432
  158MOL   H12022414   3.065   6.181   1.204  2.6174 -1.1746 -1.4702
  158MOL   C12122415   3.076   6.040   0.990  0.2330 -0.4288 -0.2403
  158MOL   C12222416   3.034   6.178   0.934 -0.1823  0.3551  0.6519
  158MOL   O12322417   3.120   6.279   0.995  0.5806  0.7081  0.4939
  158MOL   H12422418   3.184   6.035   1.003  0.4436  0.4495 -1.5839
  158MOL   H12522419   3.039   5.967   0.918 -0.3283 -0.5626  0.1755
  158MOL   H12622420   2.928   6.193   0.954 -0.6396  1.5546 -2.3684
  158MOL   H12722421   3.051   6.182   0.826  2.4293  2.5538  1.1006
  158MOL   C12822422   3.057   6.410   0.996  0.3047  0.8269  0.0677
  158MOL   C12922423   2.959   6.426   1.115  0.2417  0.1888 -0.4095
  158MOL   O13022424   2.873   6.536   1.109  0.7267  0.2945  0.0179
  158MOL   H13122425   3.135   6.485   1.005  0.9816  0.1461 -0.0565
  158MOL   H13222426   3.004   6.417   0.901 -1.8812 -0.8793  1.1135
  158MOL   H13322427   3.019   6.443   1.205 -1.0407  0.5176  0.4015
  158MOL   H13422428   2.901   6.335   1.125 -0.1025  0.3859 -0.5959
  158MOL   C13522429   2.757   6.515   1.191  0.3727 -0.2351 -0.5352
  158MOL   C13622430   2.721   6.657   1.240  0.8315  0.8491  0.6183
  158MOL   O13722431   2.613   6.713   1.162  0.7041  0.3164  0.1508
  158MOL   H13822432   2.676   6.477   1.129  0.9934  0.2750 -1.6746
  158MOL   H13922433   2.788   6.449   1.271 -0.6044 -0.0221  0.0290
  158MOL   H14022434   2.807   6.722   1.225 -0.8355  3.0133  0.1853
  158MOL   H14122435   2.681   6.660   1.341 -1.4788  0.4881 -0.2483
  158MOL   H14222436   2.643   6.705   1.072 -0.1791  0.2617 -0.1460
  159MOL     C122437   1.985   7.763   4.042  0.0606 -0.4965  0.1267
  159MOL     C222438   1.988   7.611   4.054 -0.1237 -0.0488 -0.3644
  159MOL     O322439   1.960   7.548   3.935 -0.4412  0.2030 -0.4257
  159MOL     H422440   2.062   0.029   3.973 -0.2804 -1.8566 -1.0095
  159MOL     H522441   1.997   0.039   4.139  0.3084  0.8132 -0.5209
  159MOL     H622442   1.919   7.580   4.133  0.8000  1.1015  0.9277
  159MOL     H722443   2.086   7.577   4.084 -0.5730 -0.9266  0.1223
  159MOL     H822444   1.889   0.015   3.996  0.9350 -0.6994 -1.8567
  159MOL     C922445   1.948   7.410   3.953  0.2944  0.5694 -0.1087
  159MOL    C1022446   1.806   7.348   3.945  0.8047 -0.2296  0.3780
  159MOL    O1122447   1.738   7.355   4.069 -0.4621 -0.6209  0.4940
  159MOL    H1222448   2.001   7.387   3.860 -0.3065 -0.6164 -0.1681
  159MOL    H1322449   2.003   7.366   4.036  1.8858  1.0653 -0.8879
  159MOL    H1422450   1.826   7.246   3.913  0.0650 -0.3499  0.2902
  159MOL    H1522451   1.742   7.390   3.868  0.6551 -1.4160 -0.1571
  159MOL    C1622452   1.603   7.313   4.060 -0.1493 -0.4743 -0.5283
  159MOL    C1722453   1.569   7.259   4.200  0.5055  0.7817 -0.2481
  159MOL    O1822454   1.499   7.136   4.186  0.0734 -0.2024  0.7352
  159MOL    H1922455   1.540   7.401   4.044 -0.6195 -0.3940  1.5701
  159MOL    H2022456   1.594   7.237   3.983  0.6299 -0.4982 -0.6010
  159MOL    H2122457   1.509   7.332   4.255 -0.1977 -0.8034  1.1010
  159MOL    H2222458   1.658   7.259   4.263  2.1267  1.0155 -2.4804
  159MOL    C2322459   1.587   7.023   4.187 -0.3962  0.7855  0.2290
  159MOL    C2422460   1.501   6.899   4.183 -0.4040  0.1222 -0.1936
  159MOL    O2522461   1.502   6.815   4.294 -0.3800 -0.5306  0.1751
  159MOL    H2622462   1.649   7.033   4.098 -1.0379 -0.6390 -0.3857
  159MOL    H2722463   1.647   7.001   4.275 -0.1727  0.0488 -0.1111
  159MOL    H2822464   1.524   6.841   4.094 -1.1005  1.6196 -1.3713
  159MOL    H2922465   1.398   6.932   4.168 -0.2989  1.1173  1.0946
  159MOL    C3022466   1.414   6.702   4.280 -0.1397  0.1243 -1.0791
  159MOL    C3122467   1.425   6.612   4.405  0.7330  0.8537  0.4591
  159MOL    O3222468   1.544   6.542   4.396 -0.2701 -0.5202 -0.4112
  159MOL    H3322469   1.308   6.725   4.264 -0.2832 -0.9355 -1.7129
  159MOL    H3422470   1.430   6.645   4.189 -1.1252 -0.7117 -0.7422
  159MOL    H3522471   1.342   6.541   4.406  1.2582  0.2158 -0.1401
  159MOL    H3622472   1.410   6.663   4.499 -0.4658  1.9181 -0.3052
  159MOL    C3722473   1.581   6.463   4.505  0.2047  0.0374 -0.1041
  159MOL    C3822474   1.683   6.370   4.448 -0.4582 -0.2560 -0.1014
  159MOL    O3922475   1.612   6.265   4.383 -0.3545  0.8171 -0.0944
  159MOL    H4022476   1.630   6.520   4.584 -0.7368 -1.1963  1.4098
  159MOL    H4122477   1.496   6.408   4.546 -1.1142  1.3596 -1.0182
  159MOL    H4222478   1.752   6.317   4.515  0.0512 -0.6928 -0.9635
  159MOL    H4322479   1.755   6.430   4.392 -2.8714  1.3788 -1.5000
  159MOL    C4422480   1.690   6.203   4.276  0.1778 -0.7406  0.0107
  159MOL    C4522481   1.771   6.085   4.320  0.4471 -0.3246 -0.2304
  159MOL    O4622482   1.705   5.964   4.299 -0.1337  0.7442  0.8121
  159MOL    H4722483   1.620   6.172   4.199  0.6315  1.1957 -1.2231
  159MOL    H4822484   1.760   6.275   4.233 -0.5090  0.5156  0.9634
  159MOL    H4922485   1.802   6.097   4.424  0.2182  0.3346 -0.2330
  159MOL    H5022486   1.865   6.096   4.266  0.1610 -1.1959 -0.9085
  159MOL    C5122487   1.761   5.861   4.365 -0.3272  0.3272  0.1277
  159MOL    C5222488   1.707   5.739   4.286  0.6522 -0.1108  0.0913
  159MOL    O5322489   1.575   5.698   4.316 -0.2186  0.2309 -0.5501
  159MOL    H5422490   1.870   5.870   4.359 -0.3338  1.2803  1.4659
  159MOL    H5522491   1.729   5.864   4.469 -1.4264  0.3336 -0.2043
  159MOL    H5622492   1.766   5.653   4.317  0.9414 -0.5614 -1.6623
  159MOL    H5722493   1.725   5.735   4.178 -1.1679  2.8455 -0.3919
  159MOL    C5822494   1.479   5.788   4.256  0.1680 -1.1959 -0.1756
  159MOL    C5922495   1.338   5.731   4.278 -0.4779 -0.1340  0.2626
  159MOL    O6022496   1.286   5.767   4.407  0.4037 -0.1177 -0.1173
  159MOL    H6122497   1.492   5.879   4.314 -1.7101 -0.8410 -0.2836
  159MOL    H6222498   1.491   5.803   4.148  2.2435  0.9965  0.3257
  159MOL    H6322499   1.326   5.625   4.256 -1.0969  0.2821 -1.4955
  159MOL    H6422500   1.271   5.783   4.210 -1.7664  0.9803  2.3311
  159MOL    C6522501   1.154   5.734   4.442  0.3542  0.7649 -0.6497
  159MOL    C6622502   1.121   5.747   4.596 -0.4612 -0.9082  0.9116
  159MOL    O6722503   0.978   5.765   4.614  0.1049  0.8772  0.7414
  159MOL    H6822504   1.096   5.805   4.385 -0.3339  1.6526  1.1119
  159MOL    H6922505   1.133   5.631   4.412  3.7028  0.6056 -2.7376
  159MOL    H7022506   1.172   5.837   4.631  1.3694 -1.0917 -1.1860
  159MOL    H7122507   1.156   5.669   4.663  1.2844 -2.1897 -1.3987
  159MOL    C7222508   0.918   5.645   4.662  0.0226  0.5823  0.5033
  159MOL    C7322509   0.772   5.691   4.690 -1.1947  0.6075  0.2808
  159MOL    O7422510   0.763   5.762   4.818  0.0678 -0.0553 -0.8326
  159MOL    H7522511   0.929   5.567   4.586 -1.4128  0.3522  0.5207
  159MOL    H7622512   0.966   5.610   4.753  1.6082  0.2931 -0.4206
  159MOL    H7722513   0.713   5.600   4.696 -1.5375  0.8960  1.4041
  159MOL    H7822514   0.751   5.760   4.609  2.3807  0.1110 -1.1842
  159MOL    C7922515   0.658   5.854   4.837  0.5990 -0.0468  0.6752
  159MOL    C8022516   0.711   5.949   4.953 -0.1608  0.2375 -0.0568
  159MOL    O8122517   0.808   6.037   4.909  0.2154 -0.2479  0.0502
  159MOL    H8222518   0.642   5.922   4.753  2.0784 -1.0058 -0.4056
  159MOL    H8322519   0.562   5.813   4.870 -0.0749  0.2752 -0.8554
  159MOL    H8422520   0.763   5.883   5.023  0.9746  0.4980 -0.6528
  159MOL    H8522521   0.633   6.008   5.002 -0.4514 -0.4037  0.2657
  159MOL    C8622522   0.846   6.128   5.013  0.3533 -0.2845 -0.4560
  159MOL    C8722523   0.960   6.078   5.101 -0.1739  0.1634  0.0659
  159MOL    O8822524   1.081   6.021   5.038  0.7590 -0.1997  0.2654
  159MOL    H8922525   0.898   6.209   4.962  0.5598  0.5107  0.9653
  159MOL    H9022526   0.762   6.154   5.078  0.0379 -1.4949 -0.3753
  159MOL    H9122527   0.928   5.998   5.169  0.7728 -0.0701  0.2474
  159MOL    H9222528   0.994   6.165   5.157 -0.0658  1.0133 -1.3001
  159MOL    C9322529   1.055   5.891   4.991  0.0533  0.1453  0.1173
  159MOL    C9422530   1.190   5.831   4.951 -0.3673  0.0042 -0.3511
  159MOL    O9522531   1.269   5.807   5.069  0.9127 -0.5432 -0.0574
  159MOL    H9622532   1.011   5.837   5.075 -0.8656 -0.3687 -0.6936
  159MOL    H9722533   0.987   5.907   4.907  2.5649  2.6182 -1.5208
  159MOL    H9822534   1.240   5.893   4.877  2.9821  1.9845  3.3998
  159MOL    H9922535   1.173   5.733   4.905  0.4294 -0.2788 -0.0407
  159MOL   C10022536   1.389   5.738   5.045 -0.1011 -0.1642  0.1750
  159MOL   C10122537   1.484   5.804   4.942 -0.2564  0.4586 -0.2947
  159MOL   O10222538   1.460   5.766   4.805  0.3486 -0.1972  0.2272
  159MOL   H10322539   1.433   5.744   5.144  1.2123  0.0578 -0.4067
  159MOL   H10422540   1.381   5.631   5.025 -2.8041  0.0902 -0.3448
  159MOL   H10522541   1.590   5.794   4.968 -0.6703 -2.8790  0.2296
  159MOL   H10622542   1.470   5.912   4.938 -1.2691  0.3448  0.1094
  159MOL   C10722543   1.559   5.807   4.718  0.2034  0.2803  0.2053
  159MOL   C10822544   1.537   5.955   4.693  0.0077 -0.0884  0.3753
  159MOL   O10922545   1.618   6.040   4.774 -0.4603 -0.1069  0.3934
  159MOL   H11022546   1.661   5.810   4.754  0.4179  0.5970 -0.4188
  159MOL   H11122547   1.553   5.746   4.628 -0.4577 -0.8392  0.9961
  159MOL   H11222548   1.432   5.983   4.688 -0.2612 -1.2059 -0.5274
  159MOL   H11322549   1.567   5.958   4.588  2.0465  1.2362  0.9715
  159MOL   C11422550   1.585   6.174   4.739  0.1617 -0.3540 -0.1531
  159MOL   C11522551   1.661   6.276   4.831 -0.0368 -0.1328 -0.5063
  159MOL   O11622552   1.787   6.285   4.755  0.3603 -0.9362  0.5869
  159MOL   H11722553   1.614   6.199   4.637 -0.1179  1.0525  0.0983
  159MOL   H11822554   1.478   6.195   4.741 -0.4942 -3.4415 -0.4601
  159MOL   H11922555   1.682   6.251   4.935 -1.8756 -0.8066 -0.2826
  159MOL   H12022556   1.616   6.375   4.832 -1.1672 -0.6415 -1.0027
  159MOL   C12122557   1.881   6.374   4.816  0.4478 -0.3597  0.2594
  159MOL   C12222558   2.012   6.344   4.734  0.7037  0.1713 -0.4644
  159MOL   O12322559   2.086   6.237   4.778 -0.1723  0.2839 -0.4943
  159MOL   H12422560   1.865   6.481   4.813 -0.5597 -0.5370 -0.6278
  159MOL   H12522561   1.912   6.348   4.917 -1.6497  0.4829  1.1265
  159MOL   H12622562   2.067   6.438   4.737  1.8959 -0.5060 -0.6969
  159MOL   H12722563   1.973   6.330   4.633 -2.0726  1.5282  0.3878
  159MOL   C12822564   2.075   6.127   4.692  0.0873  0.2484  0.1013
  159MOL   C12922565   2.161   6.016   4.755 -0.0418  0.8390  0.0274
  159MOL   O13022566   2.290   6.013   4.691 -0.1661 -0.4169  0.3648
  159MOL   H13122567   1.971   6.094   4.695 -0.1848  0.9315 -1.4447
  159MOL   H13222568   2.092   6.134   4.585 -0.5425 -1.5678 -0.1498
  159MOL   H13322569   2.111   5.920   4.743 -0.2460  0.8217  0.9935
  159MOL   H13422570   2.180   6.039   4.860  1.5317 -1.8018  0.3546
  159MOL   C13522571   2.374   5.900   4.728 -1.0030 -0.2713 -0.0516
  159MOL   C13622572   2.505   5.898   4.647 -0.1242 -0.0460  0.5915
  159MOL   O13722573   2.473   5.859   4.516  0.2083 -0.2051  0.4366
  159MOL   H13822574   2.395   5.904   4.835 -0.1545 -0.3592 -0.2082
  159MOL   H13922575   2.326   5.804   4.711  0.2596 -0.8841 -0.2277
  159MOL   H14022576   2.590   5.835   4.674 -2.0133 -2.7180  0.4622
  159MOL   H14122577   2.541   6.001   4.645  1.1387 -0.4799 -2.0100
  159MOL   H14222578   2.508   5.924   4.457  0.6936 -0.5688  0.3166
  160MOL     C122579   7.246   4.049   1.655 -0.2563 -0.3162 -0.1417
  160MOL     C222580   7.258   3.911   1.715 -0.2567  0.5106 -0.4239
  160MOL     O322581   7.134   3.869   1.768  0.4480  0.4811  0.0024
  160MOL     H422582   7.237   4.127   1.731  1.0524  0.0287 -0.3205
  160MOL     H522583   7.159   4.055   1.591 -0.0205 -1.0226 -0.5286
  160MOL     H622584   7.334   3.907   1.793  1.7389  0.7929 -2.2978
  160MOL     H722585   7.294   3.849   1.633  1.6691 -1.1799  1.6207
  160MOL     H822586   7.337   4.066   1.597  0.0305  4.8920  1.5151
  160MOL     C922587   7.110   3.728   1.768  0.0044  0.0093 -1.0282
  160MOL    C1022588   7.207   3.637   1.849  0.5020 -0.2607  0.4449
  160MOL    O1122589   7.310   3.585   1.767  0.0376  0.4601 -0.5720
  160MOL    H1222590   7.008   3.718   1.807 -0.0031 -2.0706 -1.5018
  160MOL    H1322591   7.085   3.695   1.667 -3.1047  1.0866 -0.6573
  160MOL    H1422592   7.153   3.545   1.873 -0.6492  0.5523  1.0362
  160MOL    H1522593   7.239   3.687   1.941  2.8688  0.8884 -0.9696
  160MOL    C1622594   7.381   3.483   1.824 -0.3562  0.6659  0.3974
  160MOL    C1722595   7.503   3.436   1.730  0.6492  0.0282  0.4629
  160MOL    O1822596   7.460   3.362   1.614 -0.4317 -0.6552  0.2294
  160MOL    H1922597   7.417   3.490   1.926 -0.2692  0.4466  0.3815
  160MOL    H2022598   7.321   3.391   1.821 -2.1425  1.8018  0.3262
  160MOL    H2122599   7.568   3.371   1.789 -0.3037  0.9341  2.5929
  160MOL    H2222600   7.568   3.517   1.696  0.2296  0.2333  0.1503
  160MOL    C2322601   7.579   3.319   1.547 -0.1827  0.4481 -0.0040
  160MOL    C2422602   7.547   3.242   1.421  0.2421 -0.2663  0.1672
  160MOL    O2522603   7.486   3.125   1.463  0.2342  0.3703  0.1466
  160MOL    H2622604   7.652   3.398   1.528  1.8791 -0.8126  2.4170
  160MOL    H2722605   7.636   3.250   1.610 -2.6409 -0.3579  1.3841
  160MOL    H2822606   7.649   3.229   1.384 -0.2308 -0.4154 -1.0927
  160MOL    H2922607   7.484   3.297   1.351  1.4666  0.2537 -0.5530
  160MOL    C3022608   7.465   3.035   1.358  0.2338  0.7728 -0.3380
  160MOL    C3122609   7.412   2.905   1.415 -0.8250 -0.5295  0.5801
  160MOL    O3222610   7.274   2.915   1.444  0.1127 -0.2416  0.2431
  160MOL    H3322611   7.397   3.076   1.283  2.4302  3.5718 -0.8365
  160MOL    H3422612   7.559   3.016   1.307  1.1708  2.7977  0.5853
  160MOL    H3522613   7.469   2.861   1.497  2.0026  0.1042 -0.9706
  160MOL    H3622614   7.426   2.840   1.330 -1.9002  0.1224 -0.0990
  160MOL    C3722615   7.201   2.802   1.410  0.1607 -0.0065  0.0168
  160MOL    C3822616   7.068   2.825   1.483 -0.3305 -0.7682  0.1147
  160MOL    O3922617   6.988   2.917   1.405  0.0531 -0.2630 -0.5703
  160MOL    H4022618   7.181   2.791   1.304  0.4372 -1.4816  0.1088
  160MOL    H4122619   7.247   2.714   1.456  1.8119  0.1440 -1.2889
  160MOL    H4222620   7.083   2.851   1.587 -2.7100  0.1914  0.2566
  160MOL    H4322621   7.015   2.733   1.506 -0.8183  0.4097  4.0192
  160MOL    C4422622   6.871   2.945   1.473 -0.0252  0.0929  0.2358
  160MOL    C4522623   6.804   3.071   1.412 -0.1835  0.0626 -0.0728
  160MOL    O4622624   6.850   3.190   1.463 -0.0996 -0.1619  0.1943
  160MOL    H4722625   6.797   2.865   1.467 -0.4265  0.5096 -0.4223
  160MOL    H4822626   6.879   2.961   1.581  0.5234  0.2941  0.1665
  160MOL    H4922627   6.701   3.058   1.445  0.2481  0.1328  1.3684
  160MOL    H5022628   6.818   3.058   1.305  1.8061 -2.6834  0.4808
  160MOL    C5122629   6.805   3.307   1.398 -0.5887 -0.1288  0.0152
  160MOL    C5222630   6.657   3.343   1.419 -0.0724  0.2933 -0.0493
  160MOL    O5322631   6.583   3.244   1.365  0.4115  0.1050  0.2253
  160MOL    H5422632   6.857   3.394   1.437  0.2799 -0.5744 -0.1568
  160MOL    H5522633   6.813   3.291   1.291  1.9226 -1.4538  0.3888
  160MOL    H5622634   6.642   3.432   1.359  2.6122 -0.7307 -2.3672
  160MOL    H5722635   6.634   3.352   1.525 -1.8483 -0.0350 -0.3903
  160MOL    C5822636   6.450   3.295   1.341 -0.2272  1.2237 -0.7426
  160MOL    C5922637   6.358   3.175   1.325 -0.6183 -0.1333 -0.2642
  160MOL    O6022638   6.318   3.128   1.448 -0.3442 -0.3637 -0.7863
  160MOL    H6122639   6.413   3.362   1.418  0.8638  0.9814  0.0172
  160MOL    H6222640   6.466   3.355   1.252 -0.3333  0.9690 -0.9303
  160MOL    H6322641   6.415   3.096   1.276  0.3994 -0.6303  1.6783
  160MOL    H6422642   6.272   3.205   1.263 -2.1940 -2.5437  0.6767
  160MOL    C6522643   6.204   3.037   1.456 -0.7873  0.2632 -0.2434
  160MOL    C6622644   6.121   3.074   1.585 -0.2496 -0.0741 -0.4122
  160MOL    O6722645   6.034   3.183   1.552 -0.0856 -0.0343  0.1071
  160MOL    H6822646   6.137   3.049   1.371 -1.2918  0.7935  0.2215
  160MOL    H6922647   6.234   2.933   1.444 -0.1942 -0.0943  3.6401
  160MOL    H7022648   6.182   3.116   1.666  0.8164  0.8577 -1.6793
  160MOL    H7122649   6.063   2.985   1.608 -0.0766  0.0219  0.4093
  160MOL    C7222650   5.944   3.209   1.659 -0.6972 -0.2795  0.5989
  160MOL    C7322651   5.842   3.320   1.633 -0.2294 -0.0876  0.0638
  160MOL    O7422652   5.908   3.445   1.677  0.1479 -0.5258  0.4172
  160MOL    H7522653   5.887   3.120   1.686 -0.4735 -0.5491  0.1953
  160MOL    H7622654   6.002   3.251   1.742 -3.2468  3.4051  0.6147
  160MOL    H7722655   5.754   3.299   1.693  0.1224  0.4645  0.7871
  160MOL    H7822656   5.814   3.314   1.528  1.5234 -2.0260 -0.3120
  160MOL    C7922657   5.833   3.562   1.634  0.6569  0.5913 -0.6994
  160MOL    C8022658   5.889   3.671   1.719  0.1376 -0.0859 -0.9865
  160MOL    O8122659   5.832   3.664   1.852  0.0303 -0.1623 -0.0737
  160MOL    H8222660   5.856   3.576   1.528 -1.0403  0.2730 -1.1372
  160MOL    H8322661   5.724   3.562   1.645  0.8225  0.6469  0.9767
  160MOL    H8422662   5.856   3.764   1.674  1.3805  1.3123  0.8861
  160MOL    H8522663   5.998   3.679   1.727  0.1740 -2.2257  1.4561
  160MOL    C8622664   5.882   3.752   1.950  0.4395  0.6105 -0.5068
  160MOL    C8722665   5.867   3.903   1.920 -0.3972  0.0278 -0.2126
  160MOL    O8822666   5.727   3.928   1.897 -0.0037 -0.2259 -0.0359
  160MOL    H8922667   5.838   3.744   2.049  1.8879 -2.1923 -0.0468
  160MOL    H9022668   5.988   3.728   1.959  0.4447  0.6080 -0.5661
  160MOL    H9122669   5.906   3.933   1.823 -2.2839  0.7648 -0.7727
  160MOL    H9222670   5.907   3.962   2.003 -2.8934  1.6810 -0.1287
  160MOL    C9322671   5.687   4.062   1.884 -0.6383  0.6694 -0.2965
  160MOL    C9422672   5.540   4.065   1.847 -0.5654 -1.0915 -0.1667
  160MOL    O9522673   5.502   4.204   1.847  0.1813 -0.2453  0.4257
  160MOL    H9622674   5.688   4.100   1.987 -1.4331 -2.4154  0.8963
  160MOL    H9722675   5.734   4.135   1.818 -1.9011 -0.1073 -2.0775
  160MOL    H9822676   5.486   4.007   1.921 -1.3172 -0.7557 -0.4496
  160MOL    H9922677   5.518   4.018   1.751 -0.6896 -1.4986  0.0598
  160MOL   C10022678   5.369   4.217   1.805 -0.3181 -0.0767 -0.2007
  160MOL   C10122679   5.314   4.362   1.826 -0.1390  0.0894  0.0463
  160MOL   O10222680   5.174   4.357   1.808  0.0947  0.2428 -0.6028
  160MOL   H10322681   5.376   4.210   1.696  1.5155 -0.2013 -0.0750
  160MOL   H10422682   5.299   4.150   1.855  1.3657 -1.0116  0.9215
  160MOL   H10522683   5.349   4.425   1.744  1.7205 -2.4527 -1.1843
  160MOL   H10622684   5.341   4.415   1.917 -1.2517 -0.3075  0.6141
  160MOL   C10722685   5.114   4.481   1.832  0.5030 -0.3418 -0.2869
  160MOL   C10822686   4.962   4.475   1.815 -0.3155  0.3598 -0.1805
  160MOL   O10922687   4.913   4.390   1.912  0.1092  0.1112 -0.2211
  160MOL   H11022688   5.128   4.507   1.937  1.2100 -1.8139 -0.0068
  160MOL   H11122689   5.152   4.564   1.772  2.8753 -0.8303  0.4620
  160MOL   H11222690   4.944   4.434   1.715 -0.9818  1.2761 -0.4451
  160MOL   H11322691   4.919   4.575   1.815  1.2734  1.0520  0.3416
  160MOL   C11422692   4.770   4.377   1.905 -0.4223  0.8687  1.2982
  160MOL   C11522693   4.704   4.512   1.944  0.3672 -0.1554 -0.1183
  160MOL   O11622694   4.689   4.584   1.830 -0.1640 -0.0078  0.3547
  160MOL   H11722695   4.735   4.337   1.810 -0.3991 -2.7212  2.7317
  160MOL   H11822696   4.744   4.300   1.979  0.1499  0.2704  0.8741
  160MOL   H11922697   4.769   4.574   2.005  0.6255 -0.9756  0.4438
  160MOL   H12022698   4.612   4.503   2.002  1.2086 -1.3767  1.0660
  160MOL   C12122699   4.597   4.694   1.842 -0.5233  0.1784  0.2484
  160MOL   C12222700   4.452   4.635   1.833 -0.8066  0.0399 -0.0528
  160MOL   O12322701   4.390   4.609   1.961  0.3210  0.1683  0.1390
  160MOL   H12422702   4.606   4.742   1.939  0.3786 -0.9651  0.7417
  160MOL   H12522703   4.625   4.766   1.766  1.3198  1.3062  1.9363
  160MOL   H12622704   4.461   4.542   1.776  1.9678 -1.7074  3.0618
  160MOL   H12722705   4.388   4.690   1.764 -0.3272 -0.4289 -0.8789
  160MOL   C12822706   4.253   4.573   1.943 -0.0333  0.1712 -0.3072
  160MOL   C12922707   4.183   4.582   2.087  0.5037 -0.2213  0.3359
  160MOL   O13022708   4.227   4.472   2.163  0.0935  0.5692  0.6099
  160MOL   H13122709   4.206   4.656   1.891 -0.8541  0.1638  0.4076
  160MOL   H13222710   4.230   4.491   1.874  0.9103 -1.2442  1.0080
  160MOL   H13322711   4.078   4.592   2.061 -0.0670  1.0294  2.9908
  160MOL   H13422712   4.216   4.677   2.129  2.1723 -1.2107  1.3384
  160MOL   C13522713   4.138   4.435   2.269  0.1932  0.3558  0.3059
  160MOL   C13622714   4.205   4.346   2.372 -0.3925 -0.2512  0.9121
  160MOL   O13722715   4.221   4.209   2.322 -0.3271 -1.0392 -0.2299
  160MOL   H13822716   4.099   4.520   2.325 -2.8552 -0.9924  0.3343
  160MOL   H13922717   4.050   4.392   2.221 -1.7118  1.2899  2.8206
  160MOL   H14022718   4.146   4.348   2.463 -0.9263  2.0738  0.5569
  160MOL   H14122719   4.302   4.389   2.397 -0.2871  0.5305 -0.7819
  160MOL   H14222720   4.300   4.206   2.270 -0.7467 -1.9370 -0.8242
  161MOL     C122721   4.310   4.553   4.221  0.4007 -0.1369  0.2902
  161MOL     C222722   4.439   4.512   4.140 -0.6349 -0.5024 -0.4095
  161MOL     O322723   4.411   4.462   4.007 -0.0900  0.1374  1.0884
  161MOL     H422724   4.241   4.469   4.227 -1.2317  1.2371  1.1613
  161MOL     H522725   4.244   4.612   4.157 -0.9053 -1.6323  0.2331
  161MOL     H622726   4.493   4.437   4.199 -0.2079 -0.5013 -0.7976
  161MOL     H722727   4.498   4.603   4.144  0.4815 -1.2731  1.1434
  161MOL     H822728   4.319   4.607   4.315 -0.1857  0.3226  0.0876
  161MOL     C922729   4.528   4.430   3.938 -0.1969 -0.2027  0.3077
  161MOL    C1022730   4.605   4.556   3.913  0.4999 -0.5794  0.0109
  161MOL    O1122731   4.664   4.560   3.783  0.6542 -0.2805  0.1974
  161MOL    H1222732   4.580   4.347   3.984  0.5154 -0.8975 -1.7040
  161MOL    H1322733   4.493   4.384   3.846  1.3390 -1.2583  0.2275
  161MOL    H1422734   4.687   4.561   3.985  0.7951  0.8272 -0.4195
  161MOL    H1522735   4.552   4.649   3.929  0.3843 -0.8549  1.2962
  161MOL    C1622736   4.790   4.630   3.777 -0.7031 -0.3164  0.2523
  161MOL    C1722737   4.792   4.773   3.838  0.5642 -0.1298  0.3876
  161MOL    O1822738   4.688   4.847   3.768  0.0061  0.3361 -0.3905
  161MOL    H1922739   4.876   4.574   3.814  1.2334  1.4723 -1.3933
  161MOL    H2022740   4.804   4.651   3.671 -0.2394  0.1995  0.4151
  161MOL    H2122741   4.891   4.817   3.827  0.7922 -0.7118  0.1017
  161MOL    H2222742   4.757   4.772   3.941  0.3257  0.7169  0.3162
  161MOL    C2322743   4.704   4.988   3.769  0.2854 -0.1806 -0.0870
  161MOL    C2422744   4.800   5.048   3.665  0.2575 -0.1903 -0.2189
  161MOL    O2522745   4.929   5.063   3.716 -0.3452  0.1263  0.3483
  161MOL    H2622746   4.600   5.020   3.760  0.9474  1.6731 -1.6508
  161MOL    H2722747   4.743   5.030   3.862  1.0543  0.1303 -0.5344
  161MOL    H2822748   4.764   5.146   3.635  0.0790 -0.3200 -0.4225
  161MOL    H2922749   4.803   4.981   3.579 -0.8498 -0.3403 -0.1499
  161MOL    C3022750   5.021   5.111   3.616 -0.9321 -0.0661 -0.2847
  161MOL    C3122751   5.141   5.141   3.704 -0.1667 -0.1013  0.0510
  161MOL    O3222752   5.131   5.263   3.777  0.3142 -0.3122  0.5868
  161MOL    H3322753   5.039   5.043   3.533 -0.2162 -0.9889  0.6180
  161MOL    H3422754   4.979   5.202   3.573 -0.6253  0.3747  0.3305
  161MOL    H3522755   5.222   5.145   3.632  0.7009 -0.7870  0.9725
  161MOL    H3622756   5.172   5.059   3.770 -0.0873 -1.5250 -1.7039
  161MOL    C3722757   5.245   5.294   3.851  0.0172 -0.1098 -0.1114
  161MOL    C3822758   5.213   5.413   3.929  0.4811  0.3690 -0.5388
  161MOL    O3922759   5.138   5.391   4.040  0.1053  0.3177 -0.5926
  161MOL    H4022760   5.288   5.226   3.924 -1.0646 -1.0847 -0.3656
  161MOL    H4122761   5.322   5.315   3.776  0.9388 -3.4007 -0.1659
  161MOL    H4222762   5.164   5.489   3.868  0.0790 -1.1629 -2.1629
  161MOL    H4322763   5.304   5.459   3.968  0.4088  0.4464 -0.4626
  161MOL    C4422764   5.071   5.501   4.106 -0.1395  0.6144  0.0233
  161MOL    C4522765   5.007   5.453   4.236 -0.1085  0.2660 -0.7965
  161MOL    O4622766   5.090   5.407   4.339  0.6083 -0.3332  0.1534
  161MOL    H4722767   5.139   5.585   4.121 -0.1054  0.3491  1.3846
  161MOL    H4822768   4.993   5.540   4.042  1.5002  0.1930 -2.3060
  161MOL    H4922769   4.938   5.376   4.202  0.1316 -0.5836  0.5989
  161MOL    H5022770   4.945   5.536   4.269 -0.3867 -0.3302  0.1848
  161MOL    C5122771   5.022   5.380   4.467 -0.2784  0.4377 -0.7161
  161MOL    C5222772   4.994   5.509   4.533  0.3072 -0.4316  0.2386
  161MOL    O5322773   5.116   5.586   4.544 -0.2913 -0.4129  0.1980
  161MOL    H5422774   4.934   5.318   4.452  0.0570 -0.4150  0.7138
  161MOL    H5522775   5.088   5.327   4.536 -2.2816  0.9764  1.6778
  161MOL    H5622776   4.939   5.487   4.625 -1.4093 -0.4024 -0.7621
  161MOL    H5722777   4.928   5.564   4.466 -1.1792 -1.5761  0.7547
  161MOL    C5822778   5.102   5.697   4.628 -0.6535 -0.0723  0.4835
  161MOL    C5922779   5.235   5.775   4.592  0.4315  0.5685 -0.2114
  161MOL    O6022780   5.225   5.846   4.471  0.3798  0.4497  0.0949
  161MOL    H6122781   5.012   5.756   4.610 -0.5601  0.4188  1.6158
  161MOL    H6222782   5.101   5.666   4.732 -0.7781 -1.2983  0.1314
  161MOL    H6322783   5.314   5.700   4.592 -1.4170 -1.4615 -2.0041
  161MOL    H6422784   5.247   5.854   4.665  4.5210  0.1186 -0.2686
  161MOL    C6522785   5.228   5.767   4.349  0.4001 -0.6533  0.2335
  161MOL    C6622786   5.226   5.865   4.224 -0.9938  0.1653  0.1589
  161MOL    O6722787   5.360   5.908   4.198  0.5038 -0.9091 -0.5135
  161MOL    H6822788   5.312   5.699   4.339 -0.5504 -1.6745 -0.9855
  161MOL    H6922789   5.133   5.714   4.335 -1.3351  2.2415  0.6335
  161MOL    H7022790   5.164   5.952   4.243 -1.1027 -0.1909  1.5570
  161MOL    H7122791   5.204   5.806   4.136  1.5466  1.2584 -1.2733
  161MOL    C7222792   5.394   6.037   4.256  0.1386  0.4615 -0.2913
  161MOL    C7322793   5.543   6.050   4.230  0.0420 -0.6601 -0.0445
  161MOL    O7422794   5.613   5.993   4.340  0.2406 -0.4818  0.8555
  161MOL    H7522795   5.340   6.123   4.218  1.9610  1.0439 -1.6058
  161MOL    H7622796   5.371   6.029   4.363 -0.6015  2.1011 -0.3278
  161MOL    H7722797   5.548   6.158   4.220  0.6503 -0.5737  1.0796
  161MOL    H7822798   5.578   6.006   4.137 -1.2093 -1.3541 -0.1861
  161MOL    C7922799   5.629   5.855   4.317 -0.6482 -0.3740  0.2277
  161MOL    C8022800   5.719   5.788   4.423 -0.8093  0.0932 -0.0825
  161MOL    O8122801   5.642   5.753   4.542  0.5306 -0.3766  0.6576
  161MOL    H8222802   5.536   5.798   4.313 -1.2168  0.4767  1.0234
  161MOL    H8322803   5.690   5.842   4.228 -1.0734 -0.6257 -0.0299
  161MOL    H8422804   5.803   5.852   4.451 -0.6803 -1.3434  3.0370
  161MOL    H8522805   5.765   5.695   4.391 -1.2225 -0.1464  0.0138
  161MOL    C8622806   5.707   5.654   4.618  0.2690 -0.1953  0.1633
  161MOL    C8722807   5.617   5.608   4.738  0.0373 -0.5461 -0.2931
  161MOL    O8822808   5.558   5.478   4.714  0.5665 -0.4964  0.0930
  161MOL    H8922809   5.734   5.568   4.557  2.7464  0.8900 -0.3535
  161MOL    H9022810   5.798   5.707   4.646 -0.3766  0.4806  0.9933
  161MOL    H9122811   5.543   5.682   4.767 -0.3934 -0.7587 -0.8225
  161MOL    H9222812   5.690   5.599   4.819 -0.9416 -0.0779  0.6459
  161MOL    C9322813   5.460   5.447   4.811 -0.2288 -0.2169  1.0324
  161MOL    C9422814   5.376   5.330   4.774 -0.4195 -0.2691 -0.2220
  161MOL    O9522815   5.284   5.320   4.881  0.0918 -0.1678 -0.2960
  161MOL    H9622816   5.501   5.435   4.911  1.1857  0.7864  0.5781
  161MOL    H9722817   5.395   5.534   4.817  0.0013 -0.0988  1.7880
  161MOL    H9822818   5.437   5.240   4.765 -2.0463 -1.2834 -1.4756
  161MOL    H9922819   5.321   5.346   4.681 -0.3769 -2.0872 -0.5978
  161MOL   C10022820   5.184   5.219   4.867 -0.1461  0.6922  0.6135
  161MOL   C10122821   5.086   5.209   4.984  0.2072 -0.1995 -0.2288
  161MOL   O10222822   4.993   5.316   4.989  0.0057  0.2208 -0.0903
  161MOL   H10322823   5.139   5.219   4.768  0.4433 -0.8746  0.3193
  161MOL   H10422824   5.245   5.129   4.870 -0.3571  0.6066  3.7516
  161MOL   H10522825   5.150   5.215   5.072  0.3688 -1.9796 -0.2163
  161MOL   H10622826   5.038   5.112   4.980  2.4537 -1.3257 -1.0236
  161MOL   C10722827   5.029   5.415   5.091  0.2565 -0.0387  0.0633
  161MOL   C10822828   4.947   5.546   5.082 -0.6004 -0.3465  0.3174
  161MOL   O10922829   4.816   5.518   5.139 -0.2698  0.0308  0.0866
  161MOL   H11022830   5.018   5.374   5.191  0.5125  2.0489  0.9650
  161MOL   H11122831   5.134   5.433   5.072  0.2361  0.2231  0.2002
  161MOL   H11222832   4.928   5.568   4.977  1.9353  1.7393  0.2313
  161MOL   H11322833   4.996   5.629   5.132 -1.0164 -0.4958  0.9806
  161MOL   C11422834   4.742   5.639   5.143  0.4475 -0.2192  0.1850
  161MOL   C11522835   4.682   5.689   5.013 -0.4775  0.7243  0.3500
  161MOL   O11622836   4.770   5.775   4.942  0.2407 -0.1682 -0.0172
  161MOL   H11722837   4.658   5.627   5.212  0.3538 -0.0609  0.0989
  161MOL   H11822838   4.801   5.718   5.190 -0.3998 -0.4792  1.7157
  161MOL   H11922839   4.602   5.760   5.037 -0.1342  1.2961 -0.1819
  161MOL   H12022840   4.635   5.617   4.945  0.5775 -0.8661  1.2623
  161MOL   C12122841   4.745   5.775   4.798  1.3968  0.2158  0.1157
  161MOL   C12222842   4.617   5.822   4.744 -0.5210 -0.6136  0.7724
  161MOL   O12322843   4.533   5.713   4.749 -0.0740 -0.2338  0.2164
  161MOL   H12422844   4.824   5.833   4.751  0.3457  0.8725 -0.8602
  161MOL   H12522845   4.773   5.681   4.750  2.8239  0.6629  0.0536
  161MOL   H12622846   4.637   5.851   4.641 -1.3020  0.9536  1.0531
  161MOL   H12722847   4.580   5.906   4.803 -0.9770 -0.3145  0.0635
  161MOL   C12822848   4.400   5.729   4.783 -0.4146  0.1136 -0.2379
  161MOL   C12922849   4.347   5.587   4.786 -0.4382  0.5510  0.2300
  161MOL   O13022850   4.408   5.521   4.898  0.6903 -0.3460  0.3851
  161MOL   H13122851   4.380   5.776   4.880  0.3992  0.2322 -0.1286
  161MOL   H13222852   4.351   5.784   4.702 -2.0385  0.5105  0.9813
  161MOL   H13322853   4.356   5.535   4.691  2.2791 -0.6686  1.1091
  161MOL   H13422854   4.243   5.593   4.817 -0.0283  1.2247  1.5415
  161MOL   C13522855   4.373   5.387   4.901  0.3179  0.0361  0.3442
  161MOL   C13622856   4.445   5.318   5.019 -0.1987  0.7448  0.0661
  161MOL   O13722857   4.570   5.265   4.975  0.2086  0.1543 -0.6615
  161MOL   H13822858   4.264   5.382   4.900  0.2979  0.6739 -0.5242
  161MOL   H13922859   4.388   5.339   4.804  0.2936 -0.4589  0.5838
  161MOL   H14022860   4.396   5.228   5.057  1.1320  0.1341  0.3595
  161MOL   H14122861   4.467   5.375   5.110  1.2046  1.4355 -0.6969
  161MOL   H14222862   4.624   5.341   4.963  0.2581 -0.0658 -1.8119
  162MOL     C122863   0.847   7.737   1.067  0.3878  0.5926 -1.1255
  162MOL     C222864   0.981   7.692   1.007  0.1320 -0.0836  0.3214
  162MOL     O322865   0.984   7.553   1.028  0.4502 -0.0427 -0.0130
  162MOL     H422866   0.768   7.698   1.002 -1.4690  0.8853  0.9097
  162MOL     H522867   0.838   0.074   1.079  1.2826  0.6408 -0.8717
  162MOL     H622868   1.070   7.745   1.042 -0.2400  0.7370  0.0459
  162MOL     H722869   0.979   7.709   0.899  0.0912 -0.7953  0.2069
  162MOL     H822870   0.834   7.690   1.164 -1.1935  2.2117 -0.5378
  162MOL     C922871   1.089   7.486   0.963 -0.1836 -0.3714 -0.1168
  162MOL    C1022872   1.124   7.357   1.040 -0.1202  0.3584  0.2801
  162MOL    O1122873   1.186   7.388   1.166  0.0677 -0.7739 -0.4637
  162MOL    H1222874   1.055   7.479   0.859  0.5347  0.2280 -0.3931
  162MOL    H1322875   1.182   7.542   0.954  0.9405 -2.3355 -1.1218
  162MOL    H1422876   1.198   7.306   0.978 -1.4737  0.4048 -1.4184
  162MOL    H1522877   1.040   7.289   1.057 -0.1082  0.4406  0.6782
  162MOL    C1622878   1.316   7.440   1.162 -0.1858  0.2117 -0.1312
  162MOL    C1722879   1.374   7.458   1.308 -0.6637 -0.3842 -0.2651
  162MOL    O1822880   1.419   7.330   1.364 -0.4572 -0.3746  0.3628
  162MOL    H1922881   1.377   7.391   1.086 -1.9314 -0.5166 -1.0939
  162MOL    H2022882   1.307   7.541   1.122 -0.2578 -0.5627 -2.1270
  162MOL    H2122883   1.300   7.505   1.373  1.2916  1.9674  0.3058
  162MOL    H2222884   1.452   7.533   1.307 -1.9801  1.0073 -1.7135
  162MOL    C2322885   1.482   7.356   1.492  0.8385  0.1398 -0.1869
  162MOL    C2422886   1.528   7.224   1.560 -0.4358 -0.4291 -0.2642
  162MOL    O2522887   1.643   7.178   1.498 -0.6895 -0.1473  0.1374
  162MOL    H2622888   1.567   7.423   1.483  1.1098 -0.1380  0.3097
  162MOL    H2722889   1.411   7.406   1.558 -0.4929  0.2655 -1.6742
  162MOL    H2822890   1.457   7.142   1.549 -0.9012 -0.0740  0.0685
  162MOL    H2922891   1.546   7.237   1.667  0.8100  2.0773 -0.7329
  162MOL    C3022892   1.722   7.083   1.576  0.0710  0.2120 -0.0203
  162MOL    C3122893   1.848   7.044   1.502  0.9089 -0.8857  0.4970
  162MOL    O3222894   1.931   6.970   1.593 -0.2180  0.4075  0.1505
  162MOL    H3322895   1.749   7.128   1.672 -0.6761  2.2510 -0.7296
  162MOL    H3422896   1.669   6.989   1.590 -0.3910 -0.1430 -3.7443
  162MOL    H3522897   1.909   7.120   1.452  1.7645 -2.1627 -0.4343
  162MOL    H3622898   1.838   6.978   1.416 -0.1807  0.3330 -0.3457
  162MOL    C3722899   2.041   6.910   1.537  0.9810  0.2582 -0.2507
  162MOL    C3822900   2.166   6.997   1.526  0.0617  0.4805  0.0819
  162MOL    O3922901   2.146   7.099   1.431  0.0560  0.7148  0.0259
  162MOL    H4022902   2.058   6.825   1.603 -0.4716 -1.2067 -1.7378
  162MOL    H4122903   2.014   6.865   1.441  1.8046 -0.5968 -0.0852
  162MOL    H4222904   2.246   6.930   1.493 -1.1286 -0.3057 -1.2721
  162MOL    H4322905   2.194   7.041   1.622  1.6775 -0.5990  0.1286
  162MOL    C4422906   2.268   7.175   1.404 -0.2111 -0.0272  0.0319
  162MOL    C4522907   2.232   7.288   1.311  0.1078  1.1242 -0.0593
  162MOL    O4622908   2.220   7.412   1.372 -0.5354  0.3042 -0.1573
  162MOL    H4722909   2.308   7.202   1.502  1.1308 -0.9213 -0.2680
  162MOL    H4822910   2.339   7.109   1.354 -1.5861  0.9945 -3.3897
  162MOL    H4922911   2.144   7.270   1.249  0.7220 -1.3777 -0.2648
  162MOL    H5022912   2.312   7.312   1.241 -1.3062  0.3087 -2.0332
  162MOL    C5122913   2.094   7.452   1.425 -0.1722 -0.2928  0.3802
  162MOL    C5222914   2.096   7.420   1.574  0.7832 -0.1754 -0.4573
  162MOL    O5322915   1.977   7.474   1.623  0.7799 -0.1585 -0.4296
  162MOL    H5422916   2.068   7.557   1.416  0.1549 -0.4030 -2.0455
  162MOL    H5522917   2.015   7.393   1.379 -1.2476  0.5510  1.1147
  162MOL    H5622918   2.181   7.462   1.628 -0.2323  1.7447 -0.2944
  162MOL    H5722919   2.097   7.312   1.586 -0.6874 -0.1840 -0.3886
  162MOL    C5822920   1.939   7.431   1.754 -0.3061 -0.3936  0.0407
  162MOL    C5922921   1.836   7.533   1.815 -0.3292  0.1769  0.4959
  162MOL    O6022922   1.805   7.503   1.955  0.2366 -0.0052  0.3612
  162MOL    H6122923   1.912   7.326   1.763  0.4289 -0.6966 -1.2229
  162MOL    H6222924   2.028   7.439   1.816 -0.9007  1.6625  0.6913
  162MOL    H6322925   1.745   7.528   1.755  0.9042  0.2361 -1.4048
  162MOL    H6422926   1.877   7.633   1.811  0.1134 -0.0469 -0.7799
  162MOL    C6522927   1.711   7.577   2.024  0.5815 -0.4240 -0.2296
  162MOL    C6622928   1.572   7.585   1.961 -0.4185 -1.0367 -0.2693
  162MOL    O6722929   1.572   7.686   1.867  0.2391  0.2785  0.5964
  162MOL    H6822930   1.700   7.536   2.124  1.6832 -0.0201  0.0614
  162MOL    H6922931   1.755   7.676   2.021 -2.4847  1.0028 -0.2206
  162MOL    H7022932   1.504   7.610   2.043  0.1423  1.8495 -0.5970
  162MOL    H7122933   1.538   7.493   1.915 -0.0210 -0.2775 -2.1287
  162MOL    C7222934   1.457   0.002   1.869 -0.2270 -0.2704 -0.1834
  162MOL    C7322935   1.326   7.701   1.848 -0.4068  0.7802 -0.1423
  162MOL    O7422936   1.326   7.636   1.722  0.4773  0.1298  0.5559
  162MOL    H7522937   1.456   0.055   1.964 -1.2371  0.3855 -0.5552
  162MOL    H7622938   1.487   0.068   1.788 -0.2555  0.9426  0.7770
  162MOL    H7722939   1.238   7.764   1.859 -0.8010 -0.4196  4.5587
  162MOL    H7822940   1.313   7.627   1.927  1.8198  0.5775  0.0514
  162MOL    C7922941   1.207   7.571   1.684  0.1931 -0.1649 -0.4632
  162MOL    C8022942   1.202   7.423   1.730  0.0032  0.1869 -0.0289
  162MOL    O8122943   1.156   7.337   1.626  0.6322  0.2050 -0.0188
  162MOL    H8222944   1.118   7.630   1.707  1.2154  0.8753  0.8921
  162MOL    H8322945   1.210   7.576   1.575  2.4671  3.0655 -0.3208
  162MOL    H8422946   1.153   7.405   1.826 -0.0688 -3.0952 -0.5927
  162MOL    H8522947   1.303   7.392   1.758  0.7348  1.7637 -0.9060
  162MOL    C8622948   1.172   7.210   1.677 -0.3879  0.5182  0.0089
  162MOL    C8722949   1.157   7.105   1.566  0.1912  0.4392  0.1037
  162MOL    O8822950   1.016   7.076   1.558 -0.3808  0.6085 -0.2510
  162MOL    H8922951   1.266   7.193   1.731 -2.4281  0.3982  3.6821
  162MOL    H9022952   1.094   7.189   1.750 -2.7020 -0.2879 -2.6210
  162MOL    H9122953   1.216   7.020   1.600 -0.0106  0.5284  0.6899
  162MOL    H9222954   1.206   7.133   1.473 -0.9840  1.3394 -0.2659
  162MOL    C9322955   0.983   6.973   1.475 -0.3939 -0.6079  0.2771
  162MOL    C9422956   0.996   7.010   1.332  0.0941 -0.1450  0.4632
  162MOL    O9522957   1.129   6.979   1.293 -0.0623  0.3031  0.0761
  162MOL    H9622958   1.028   6.875   1.495  3.1365  0.7842 -0.3606
  162MOL    H9722959   0.881   6.961   1.510 -0.1180 -0.8820  1.0214
  162MOL    H9822960   0.986   7.118   1.320 -2.1922 -0.5321 -1.4151
  162MOL    H9922961   0.916   6.967   1.271  0.5181 -2.2125  1.3078
  162MOL   C10022962   1.149   7.005   1.153 -0.1146  0.6813 -0.2875
  162MOL   C10122963   1.298   7.041   1.118  0.3265 -0.1275  0.1012
  162MOL   O10222964   1.385   6.939   1.144 -0.2464 -0.5181 -0.0802
  162MOL   H10322965   1.102   6.931   1.089 -0.1491 -0.7860  1.3878
  162MOL   H10422966   1.083   7.089   1.133 -1.3338 -0.3424 -0.6045
  162MOL   H10522967   1.323   7.137   1.163  0.9490 -0.2845  0.0988
  162MOL   H10622968   1.298   7.056   1.010  0.2889 -2.9566 -0.3467
  162MOL   C10722969   1.437   6.933   1.278 -0.1363  0.4892 -0.2433
  162MOL   C10822970   1.553   6.837   1.288  0.0237 -0.0524 -0.3393
  162MOL   O10922971   1.653   6.869   1.189  0.4717 -0.4341 -0.2142
  162MOL   H11022972   1.470   7.032   1.309  1.8606 -0.2575  0.1412
  162MOL   H11122973   1.369   6.900   1.356 -0.3817  4.3729  1.3022
  162MOL   H11222974   1.513   6.738   1.266  0.3628 -0.2380 -0.1125
  162MOL   H11322975   1.591   6.842   1.390  0.8397  0.9156 -0.6890
  162MOL   C11422976   1.768   6.784   1.171  0.1143  0.5501 -0.1814
  162MOL   C11522977   1.890   6.831   1.092  0.1009 -0.6816  0.1482
  162MOL   O11622978   1.857   6.827   0.953  0.1942 -0.2586 -0.8922
  162MOL   H11722979   1.806   6.771   1.272  0.0811 -0.6084 -0.3057
  162MOL   H11822980   1.743   6.689   1.123  3.1435 -0.1957 -0.4290
  162MOL   H11922981   1.976   6.768   1.112 -1.0779 -2.7294 -1.0100
  162MOL   H12022982   1.924   6.930   1.123  1.5262 -0.5682 -1.7038
  162MOL   C12122983   1.960   6.878   0.866  0.1454  0.1137  0.6448
  162MOL   C12222984   1.898   6.945   0.740  0.0493 -0.4296 -0.1255
  162MOL   O12322985   1.860   6.853   0.645  0.0810  0.2589  0.4929
  162MOL   H12422986   2.026   6.954   0.909  1.0389 -0.6136  0.5827
  162MOL   H12522987   2.025   6.801   0.824 -0.0759  0.7096 -0.7939
  162MOL   H12622988   1.974   7.011   0.696 -0.6175 -0.6263 -1.6122
  162MOL   H12722989   1.821   7.010   0.781  1.1714 -0.9480  2.8940
  162MOL   C12822990   1.873   6.908   0.516  0.9211 -0.9364  0.1090
  162MOL   C12922991   1.809   6.806   0.422  0.0878 -0.2156  0.3653
  162MOL   O13022992   1.905   6.761   0.330 -0.0756 -0.4677 -0.0706
  162MOL   H13122993   1.818   7.002   0.512  1.9330 -0.3392  0.0681
  162MOL   H13222994   1.981   6.912   0.500  1.1872 -1.2830  1.7196
  162MOL   H13322995   1.728   6.860   0.373 -0.1581 -0.8864  0.0310
  162MOL   H13422996   1.756   6.734   0.485 -0.8988 -0.2689 -0.5165
  162MOL   C13522997   1.862   6.658   0.239  0.0889  0.0166  0.2010
  162MOL   C13622998   1.967   6.624   0.136  0.7698 -0.1776  0.5902
  162MOL   O13722999   2.078   6.571   0.198 -0.2704  0.6484 -0.2271
  162MOL   H13823000   1.830   6.569   0.293 -0.7360 -0.7452 -1.5208
  162MOL   H13923001   1.774   6.687   0.183  1.5998  0.3932 -2.0462
  162MOL   H14023002   1.987   6.706   0.067 -0.4949 -1.3807 -1.2386
  162MOL   H14123003   1.926   6.540   0.080 -1.2621  0.2899  1.3473
  162MOL   H14223004   2.106   6.626   0.269  1.6611  0.1202 -0.5516
  163MOL     C123005   1.514   7.684   4.915  0.4885 -0.4732 -0.2101
  163MOL     C223006   1.516   0.026   4.819  0.7324 -0.3107  0.0187
  163MOL     O323007   1.633   0.099   4.841  0.3954 -0.6448  0.5766
  163MOL     H423008   1.419   7.633   4.902  0.0063  0.3052  0.2246
  163MOL     H523009   1.504   7.735   5.011 -0.5162 -0.4302 -0.3347
  163MOL     H623010   1.420   0.079   4.820 -0.4881 -2.4334 -0.3950
  163MOL     H723011   1.522   7.751   4.721  2.8733 -0.1861  0.0788
  163MOL     H823012   1.596   7.615   4.934  1.6479  1.0118  0.2631
  163MOL     C923013   1.615   0.243   4.860 -0.1811  0.1736  0.3694
  163MOL    C1023014   1.756   0.306   4.853  0.2980  0.0997  0.5407
  163MOL    O1123015   1.736   0.442   4.887  0.2290  0.2997  0.5420
  163MOL    H1223016   1.549   0.285   4.784  1.1952 -0.7475 -1.3852
  163MOL    H1323017   1.572   0.262   4.959  1.2751  0.8448  0.8854
  163MOL    H1423018   1.800   0.305   4.753 -1.9625  2.6029 -0.5470
  163MOL    H1523019   1.818   0.265   4.933 -2.2503 -1.7301  1.6429
  163MOL    C1623020   1.849   0.517   4.920 -0.1730 -0.1527 -0.0530
  163MOL    C1723021   1.929   0.561   4.796 -0.4281 -0.3554 -0.2811
  163MOL    O1823022   2.000   0.454   4.731 -0.2773 -0.2497 -0.2308
  163MOL    H1923023   1.805   0.612   4.952 -0.2233  0.3579 -1.6227
  163MOL    H2023024   1.907   0.475   5.002  0.6062 -0.9607 -1.0132
  163MOL    H2123025   1.995   0.638   4.834 -1.8765  0.5267  0.4981
  163MOL    H2223026   1.872   0.613   4.719 -1.3808 -1.4588 -0.3458
  163MOL    C2323027   2.089   0.512   4.635 -0.8581  0.2259  0.1728
  163MOL    C2423028   2.237   0.538   4.681 -0.2436  0.0359 -1.1182
  163MOL    O2523029   2.236   0.630   4.789 -0.5338 -0.1683  0.4585
  163MOL    H2623030   2.098   0.433   4.559  2.0213 -0.1511  0.8622
  163MOL    H2723031   2.054   0.600   4.582 -0.7698 -1.0122 -2.0562
  163MOL    H2823032   2.309   0.587   4.616 -1.2402  3.7630  0.4250
  163MOL    H2923033   2.275   0.438   4.704  3.3044  1.3855 -0.8582
  163MOL    C3023034   2.359   0.637   4.862 -0.5118 -0.4348 -0.1236
  163MOL    C3123035   2.349   0.719   4.991 -0.6044  0.2254 -0.2966
  163MOL    O3223036   2.349   0.857   4.962  0.0244 -0.0082  0.0911
  163MOL    H3323037   2.381   0.534   4.890  0.4457 -0.5272 -1.1850
  163MOL    H3423038   2.436   0.676   4.796  1.5135 -0.5942  2.0739
  163MOL    H3523039   2.441   0.698   5.045 -0.6908 -0.2888 -0.3455
  163MOL    H3623040   2.258   0.698   5.047  0.8740 -0.1290  2.0351
  163MOL    C3723041   2.358   0.942   5.073  0.3426 -0.7027 -0.2577
  163MOL    C3823042   2.354   1.083   5.028  0.7255 -0.0372 -0.5269
  163MOL    O3923043   2.480   1.132   4.987  0.2817  0.2184 -0.1612
  163MOL    H4023044   2.268   0.917   5.129  2.1865 -2.2904  2.0734
  163MOL    H4123045   2.451   0.928   5.129  0.6325 -0.2603 -0.6186
  163MOL    H4223046   2.314   1.145   5.108  0.7229  3.8974 -3.4235
  163MOL    H4323047   2.294   1.093   4.937  1.1594 -1.0525 -0.9297
  163MOL    C4423048   2.551   1.192   5.092  0.4319 -0.2293 -0.0769
  163MOL    C4523049   2.697   1.221   5.034  1.0168 -0.1741 -0.1947
  163MOL    O4623050   2.715   1.360   5.003 -0.3819 -0.3173  0.5384
  163MOL    H4723051   2.514   1.288   5.129 -0.6527 -0.4036 -0.6720
  163MOL    H4823052   2.549   1.133   5.184 -0.7904 -1.1016 -0.6414
  163MOL    H4923053   2.721   1.161   4.946  1.5761  0.6175 -0.5856
  163MOL    H5023054   2.767   1.191   5.111  0.8581 -0.8972 -0.3302
  163MOL    C5123055   2.854   1.380   4.993 -0.7379  0.0204  0.1276
  163MOL    C5223056   2.866   1.534   4.999  0.2635  0.1934  0.6240
  163MOL    O5323057   2.796   1.604   4.888  0.2331  0.4541  0.4545
  163MOL    H5423058   2.900   1.346   5.085 -0.2291 -0.4677 -0.2995
  163MOL    H5523059   2.895   1.331   4.904 -0.2159  2.5649 -1.0556
  163MOL    H5623060   2.974   1.551   4.995  0.4693 -0.9930  0.9403
  163MOL    H5723061   2.832   1.581   5.091 -2.5128  1.1456 -0.8382
  163MOL    C5823062   2.668   1.652   4.928  0.2654  0.2821  0.1016
  163MOL    C5923063   2.591   1.668   4.797  0.4877 -0.1193  0.4726
  163MOL    O6023064   2.643   1.776   4.723 -0.3360 -0.1649  0.4668
  163MOL    H6123065   2.613   1.575   4.983 -0.1392  0.5985  0.1365
  163MOL    H6223066   2.669   1.744   4.986  0.6372  0.7163 -0.5911
  163MOL    H6323067   2.489   1.685   4.831  0.1238  0.7385 -1.0352
  163MOL    H6423068   2.597   1.572   4.745 -1.7122  1.3213 -2.5506
  163MOL    C6523069   2.560   1.798   4.611  0.3840 -0.0309 -0.2718
  163MOL    C6623070   2.638   1.758   4.489 -1.1348 -0.2015 -0.1572
  163MOL    O6723071   2.725   1.867   4.445  0.0033 -0.4038 -0.3664
  163MOL    H6823072   2.466   1.744   4.599  0.9913 -1.4765  1.3135
  163MOL    H6923073   2.546   1.905   4.599  1.2226  0.2927  1.5222
  163MOL    H7023074   2.571   1.737   4.405 -3.2604  0.2378  1.3927
  163MOL    H7123075   2.696   1.668   4.509 -0.3189  0.5375  0.8630
  163MOL    C7223076   2.756   1.859   4.301 -0.6561 -0.3725 -0.0657
  163MOL    C7323077   2.831   1.986   4.276  0.2622 -0.0690  0.1913
  163MOL    O7423078   2.958   1.996   4.338  0.0102  0.2991  0.0023
  163MOL    H7523079   2.818   1.770   4.286 -0.2057 -0.1619  0.5045
  163MOL    H7623080   2.675   1.847   4.229  0.6915 -1.2168 -1.4863
  163MOL    H7723081   2.760   2.068   4.291  0.7177  0.3846 -0.0944
  163MOL    H7823082   2.858   1.984   4.170  0.8460 -1.6747  0.3712
  163MOL    C7923083   3.041   2.088   4.271  0.4618  0.0525  0.1709
  163MOL    C8023084   3.179   2.090   4.342  0.2702  0.2517  0.3009
  163MOL    O8123085   3.168   2.131   4.474  0.1519 -0.0164 -0.3672
  163MOL    H8223086   3.067   2.062   4.168  1.5081  0.1936  0.3911
  163MOL    H8323087   3.000   2.188   4.269 -1.8807 -0.8203  2.2954
  163MOL    H8423088   3.249   2.149   4.284 -0.7378  0.6255 -0.5478
  163MOL    H8523089   3.222   1.990   4.344  1.1344  0.5700 -1.6951
  163MOL    C8623090   3.285   2.134   4.555 -0.0120 -0.2176  0.4662
  163MOL    C8723091   3.265   2.232   4.669 -0.2727 -0.6272  0.0793
  163MOL    O8823092   3.366   2.204   4.761 -0.4574 -0.0245 -0.0264
  163MOL    H8923093   3.317   2.036   4.591  0.9125  0.1482  0.6636
  163MOL    H9023094   3.375   2.152   4.496 -0.3319 -2.8984 -0.9283
  163MOL    H9123095   3.163   2.224   4.709 -0.4298  0.0382 -0.1740
  163MOL    H9223096   3.270   2.333   4.628 -1.1572 -0.3149  0.7177
  163MOL    C9323097   3.367   2.289   4.870  0.1352  0.8946  0.0869
  163MOL    C9423098   3.470   2.234   4.968 -0.4452 -0.3804 -0.0628
  163MOL    O9523099   3.446   2.270   5.100 -0.2327 -0.1128 -0.5728
  163MOL    H9623100   3.375   2.395   4.844 -2.0325  0.4034 -2.7501
  163MOL    H9723101   3.274   2.280   4.928  0.3127 -1.7557  0.0147
  163MOL    H9823102   3.567   2.278   4.945 -0.1707 -0.2151  1.3620
  163MOL    H9923103   3.470   2.125   4.956  1.2265 -0.6500  2.0224
  163MOL   C10023104   3.535   2.204   5.190 -0.5259 -0.3167 -0.1975
  163MOL   C10123105   3.679   2.260   5.191  0.2581 -0.0890 -0.4092
  163MOL   O10223106   3.749   2.177   5.100 -0.3835 -0.1197  0.3636
  163MOL   H10323107   3.491   2.220   5.289  0.6661 -2.2132  0.6729
  163MOL   H10423108   3.526   2.095   5.190 -2.1205 -0.2029  0.2630
  163MOL   H10523109   3.723   2.242   5.289 -0.3609  1.1317  0.1085
  163MOL   H10623110   3.688   2.366   5.167 -1.1161  0.0278 -0.4535
  163MOL   C10723111   3.892   2.203   5.114  0.1571 -0.3137 -0.2325
  163MOL   C10823112   3.955   2.120   5.003 -0.1111 -0.1939  0.3077
  163MOL   O10923113   3.916   2.172   4.878 -0.7780 -0.0838 -0.2294
  163MOL   H11023114   3.917   2.308   5.099 -0.7845  0.0437  0.7084
  163MOL   H11123115   3.931   2.170   5.210 -1.6340  0.0802  0.6393
  163MOL   H11223116   3.920   2.017   5.009 -1.1752  0.1423 -0.1761
  163MOL   H11323117   4.064   2.121   5.016 -0.1124  0.7834  0.2749
  163MOL   C11423118   3.990   2.120   4.778 -0.3999 -0.7093 -0.8629
  163MOL   C11523119   3.893   2.118   4.656 -0.0215  0.1704 -0.0721
  163MOL   O11623120   3.793   2.018   4.650  0.0936  0.0900 -0.1395
  163MOL   H11723121   4.069   2.193   4.765  0.7158 -1.0636  3.2773
  163MOL   H11823122   4.039   2.026   4.804  0.4714 -0.2133 -0.6996
  163MOL   H11923123   3.949   2.110   4.563  2.1543  0.0391  1.2168
  163MOL   H12023124   3.846   2.217   4.651  1.1048  0.7246  0.1026
  163MOL   C12123125   3.690   2.031   4.751  0.5261 -0.3013 -0.8997
  163MOL   C12223126   3.603   1.902   4.750 -0.0158 -0.4271  0.8990
  163MOL   O12323127   3.666   1.776   4.755  0.0173 -0.2075 -0.8040
  163MOL   H12423128   3.728   2.019   4.853  0.6603 -0.1603 -0.9332
  163MOL   H12523129   3.638   2.127   4.755  0.8082 -0.2243  1.4399
  163MOL   H12623130   3.550   1.907   4.655 -0.4747 -0.7454  1.1376
  163MOL   H12723131   3.532   1.905   4.832 -0.5799  0.9365  0.3702
  163MOL   C12823132   3.597   1.664   4.716 -0.2116  0.2140 -0.4510
  163MOL   C12923133   3.672   1.548   4.776 -0.2181  0.1279  0.4808
  163MOL   O13023134   3.647   1.536   4.910  0.0123  0.2220 -0.5742
  163MOL   H13123135   3.496   1.646   4.754  0.2445 -0.8576  0.2874
  163MOL   H13223136   3.599   1.653   4.608  3.3874 -1.7409 -0.2415
  163MOL   H13323137   3.777   1.554   4.748  0.1259 -0.2163  1.6779
  163MOL   H13423138   3.625   1.459   4.735 -4.5358  2.2729  0.5153
  163MOL   C13523139   3.700   1.415   4.960  0.4933 -0.6547  0.2182
  163MOL   C13623140   3.598   1.365   5.067  0.2888  1.2086 -0.8914
  163MOL   O13723141   3.499   1.278   5.010 -0.3340  0.1514 -0.0031
  163MOL   H13823142   3.715   1.344   4.880 -1.4231 -0.3430 -0.4356
  163MOL   H13923143   3.800   1.426   5.002  1.8382  0.0506 -3.0872
  163MOL   H14023144   3.554   1.453   5.115 -0.2803  0.0987  0.6735
  163MOL   H14123145   3.650   1.320   5.152 -3.5767 -0.9262  0.4471
  163MOL   H14223146   3.460   1.320   4.935  1.4572  2.7750  0.4638
  164MOL     C123147   3.068   6.795   3.845 -0.6060 -0.4158  0.4773
  164MOL     C223148   3.045   6.660   3.912 -0.4795 -0.0349 -0.4625
  164MOL     O323149   3.106   6.546   3.848 -0.3546 -0.0155 -0.0949
  164MOL     H423150   3.175   6.816   3.843 -0.5097 -0.9739 -1.6721
  164MOL     H523151   3.021   6.879   3.896  0.6446  0.0450  0.8695
  164MOL     H623152   2.938   6.644   3.925 -0.4390 -1.6923 -1.9392
  164MOL     H723153   3.076   6.659   4.016  3.8496  0.0595 -1.6566
  164MOL     H823154   3.025   6.797   3.744 -1.7267 -0.4260  0.9427
  164MOL     C923155   3.019   6.492   3.744  0.1114  0.8831 -0.2690
  164MOL    C1023156   3.094   6.371   3.676  1.0408  0.0496 -0.5659
  164MOL    O1123157   3.160   6.419   3.557 -0.4805 -0.2638 -0.0463
  164MOL    H1223158   2.927   6.457   3.791 -0.0781  0.2370 -1.1013
  164MOL    H1323159   2.985   6.566   3.670 -1.7156  0.9029  0.5717
  164MOL    H1423160   3.026   6.293   3.640  2.3687 -1.4199  0.0547
  164MOL    H1523161   3.173   6.332   3.740  0.3470  0.2126  0.3906
  164MOL    C1623162   3.244   6.317   3.507  0.4280 -0.1393 -0.0957
  164MOL    C1723163   3.320   6.360   3.382  0.7134  0.3759  0.3209
  164MOL    O1823164   3.406   6.462   3.432  0.1640  0.4676 -0.2659
  164MOL    H1923165   3.315   6.297   3.588  0.0402 -0.7011  0.1079
  164MOL    H2023166   3.196   6.219   3.501  2.3481 -1.0134 -1.9749
  164MOL    H2123167   3.261   6.413   3.307 -0.5089  1.1652  1.8080
  164MOL    H2223168   3.384   6.281   3.342  0.8648 -0.0802  1.4541
  164MOL    C2323169   3.533   6.431   3.476 -0.2523  0.5143  0.1751
  164MOL    C2423170   3.597   6.565   3.523 -0.1720  0.1494  0.0356
  164MOL    O2523171   3.570   6.589   3.663  0.1310 -0.3795  0.0239
  164MOL    H2623172   3.532   6.358   3.557 -0.2037 -0.4521 -0.6852
  164MOL    H2723173   3.593   6.385   3.397 -0.1605 -1.7540  1.5071
  164MOL    H2823174   3.569   6.645   3.453  0.0229 -0.9958 -1.3840
  164MOL    H2923175   3.705   6.573   3.512 -0.3495 -0.7027 -2.8550
  164MOL    C3023176   3.431   6.601   3.697 -0.6754  0.4531 -0.1068
  164MOL    C3123177   3.434   6.573   3.850  0.8057  0.6268  0.2341
  164MOL    O3223178   3.424   6.685   3.925  0.0899 -0.0776 -0.1079
  164MOL    H3323179   3.389   6.700   3.678  1.8364  1.7029  0.6208
  164MOL    H3423180   3.372   6.522   3.650 -3.2174  1.3667  1.4392
  164MOL    H3523181   3.519   6.513   3.879 -0.9235 -3.4248 -2.5377
  164MOL    H3623182   3.354   6.501   3.868  0.6817 -0.4195 -3.9418
  164MOL    C3723183   3.412   6.666   4.063 -0.1450  0.3852  0.2803
  164MOL    C3823184   3.406   6.805   4.123 -0.0238 -0.0549 -0.0822
  164MOL    O3923185   3.274   6.848   4.147 -0.2434  0.1099  0.7077
  164MOL    H4023186   3.327   6.602   4.086  0.2201 -0.6228 -1.1222
  164MOL    H4123187   3.506   6.617   4.090 -0.6600 -2.2116 -2.3661
  164MOL    H4223188   3.467   6.871   4.061  0.6524 -0.4988  0.1100
  164MOL    H4323189   3.454   6.798   4.221 -2.4447  0.2370  1.1578
  164MOL    C4423190   3.278   6.984   4.177 -0.1008 -0.2074  0.0788
  164MOL    C4523191   3.139   7.031   4.215  1.1037 -0.0552  0.8950
  164MOL    O4623192   3.062   7.051   4.102 -0.2687 -0.1996 -0.1022
  164MOL    H4723193   3.341   7.004   4.264 -0.6256  1.7588  0.0371
  164MOL    H4823194   3.311   7.036   4.087  0.0997 -1.0712 -0.3480
  164MOL    H4923195   3.154   7.131   4.256  1.7876  0.4013 -0.4279
  164MOL    H5023196   3.110   6.965   4.296  1.9780  1.2959  2.3420
  164MOL    C5123197   2.935   6.986   4.121  0.8426 -0.2285  0.0922
  164MOL    C5223198   2.840   7.061   4.214 -0.3304  0.5068 -0.4587
  164MOL    O5323199   2.862   7.029   4.354  0.1742  0.0130 -0.2892
  164MOL    H5423200   2.891   6.971   4.023  1.5627 -2.7088  0.1225
  164MOL    H5523201   2.946   6.887   4.167  1.5852  0.3542  1.1969
  164MOL    H5623202   2.739   7.038   4.179 -0.0670 -1.0665 -0.1925
  164MOL    H5723203   2.848   7.169   4.199  2.5781  0.3613 -0.2514
  164MOL    C5823204   2.766   7.075   4.442  0.4503 -0.4877 -0.3814
  164MOL    C5923205   2.773   6.995   4.572 -0.5020 -0.7849  0.0376
  164MOL    O6023206   2.715   6.866   4.567  0.6384 -0.2711  0.2291
  164MOL    H6123207   2.784   7.182   4.450  0.0936 -0.3554 -1.3756
  164MOL    H6223208   2.664   7.059   4.408  0.7074 -0.4537 -1.1722
  164MOL    H6323209   2.725   7.052   4.651 -0.7048  0.7550 -1.1741
  164MOL    H6423210   2.878   6.987   4.602 -0.6977  0.4650  1.1258
  164MOL    C6523211   2.783   6.766   4.497  0.3473  0.1147  0.5027
  164MOL    C6623212   2.749   6.629   4.557 -0.8097 -0.4105 -0.3331
  164MOL    O6723213   2.796   6.626   4.691  0.0448 -0.9185  0.4891
  164MOL    H6823214   2.761   6.775   4.390 -1.0082 -0.9543  0.6893
  164MOL    H6923215   2.890   6.789   4.495  0.0149  1.6351 -1.4663
  164MOL    H7023216   2.813   6.554   4.510  0.7561  0.2249  0.7570
  164MOL    H7123217   2.642   6.609   4.554 -0.8038 -0.3013 -1.9992
  164MOL    C7223218   2.821   6.500   4.744 -0.5837 -0.2633  0.3407
  164MOL    C7323219   2.841   6.517   4.897  0.7335  0.1739  0.0195
  164MOL    O7423220   2.974   6.494   4.936  1.0080  0.0866 -0.1613
  164MOL    H7523221   2.748   6.421   4.729 -0.8520 -0.1383  0.9642
  164MOL    H7623222   2.914   6.464   4.698  1.1526  1.0264  2.7444
  164MOL    H7723223   2.772   6.445   4.940 -0.8770  2.5959  1.6598
  164MOL    H7823224   2.805   6.614   4.931  0.7986  0.5651 -1.0021
  164MOL    C7923225   3.015   6.357   4.949 -0.2195 -0.0997  0.2628
  164MOL    C8023226   3.159   6.346   4.999 -0.7323  0.7081 -0.3647
  164MOL    O8123227   3.150   6.365   5.142  0.3634 -0.8938  0.5690
  164MOL    H8223228   2.958   6.297   5.020 -0.9774  2.2681  1.7175
  164MOL    H8323229   3.011   6.313   4.850  1.1786  0.6304 -0.1429
  164MOL    H8423230   3.229   6.413   4.950  1.3647  0.7476  2.5118
  164MOL    H8523231   3.198   6.247   4.974  1.0952  0.8225  1.8714
  164MOL    C8623232   3.270   6.356   5.215  0.0157 -0.0225 -0.7091
  164MOL    C8723233   3.246   6.408   5.366 -0.5646 -0.3697  0.4688
  164MOL    O8823234   3.214   6.290   5.438 -0.0647  0.1306 -0.6274
  164MOL    H8923235   3.327   6.263   5.213  0.6747  0.3014  1.4021
  164MOL    H9023236   3.339   6.421   5.161 -0.7283  0.2648 -1.3149
  164MOL    H9123237   3.173   6.489   5.369 -1.2604 -0.9063 -1.1140
  164MOL    H9223238   3.341   6.459   5.383 -0.0497 -1.4721  0.9678
  164MOL    C9323239   3.210   6.320   5.571  0.5284  0.0978 -0.1614
  164MOL    C9423240   3.216   6.187   5.635 -0.5196  0.0989  0.0859
  164MOL    O9523241   3.343   6.111   5.611 -0.2336  0.0403 -0.4412
  164MOL    H9623242   3.297   6.382   5.594  0.1952 -0.5170  2.9797
  164MOL    H9723243   3.113   6.367   5.579  0.6609  0.0406  2.1458
  164MOL    H9823244   3.127   6.129   5.608  0.7722 -0.9967 -1.9360
  164MOL    H9923245   3.213   6.197   5.743 -1.1480  1.4886 -0.0518
  164MOL   C10023246   3.360   6.006   5.707 -0.8562  0.1761  0.9783
  164MOL   C10123247   3.485   5.924   5.672 -0.2008  0.5328  0.8010
  164MOL   O10223248   3.480   5.810   5.764  0.0579  0.1967  0.5238
  164MOL   H10323249   3.378   6.041   5.809  2.4396 -0.3420  0.6300
  164MOL   H10423250   3.269   5.947   5.701 -0.9143  0.5557 -3.1351
  164MOL   H10523251   3.573   5.986   5.691 -0.5779  1.2586  0.1957
  164MOL   H10623252   3.487   5.894   5.567  1.9641 -0.1028  0.9899
  164MOL   C10723253   3.587   5.726   5.751 -0.0780  0.3789 -0.0283
  164MOL   C10823254   3.573   5.608   5.850 -0.1188  0.4866 -0.3371
  164MOL   O10923255   3.475   5.508   5.808  0.2528 -0.0537 -0.0340
  164MOL   H11023256   3.601   5.692   5.648  1.3057  2.2205 -0.4897
  164MOL   H11123257   3.672   5.794   5.766 -1.2711  1.9710 -0.3535
  164MOL   H11223258   3.547   5.653   5.946  1.9524  1.1861 -0.0676
  164MOL   H11323259   3.673   5.566   5.860 -0.0406  1.1157  1.9585
  164MOL   C11423260   3.422   5.422   5.906  0.7235 -0.3503 -0.6311
  164MOL   C11523261   3.302   5.345   5.863 -0.9496 -0.1729 -0.0132
  164MOL   O11623262   3.339   5.212   5.837 -0.3106  0.5440 -0.0338
  164MOL   H11723263   3.497   5.361   5.958 -0.7569 -1.1443  0.5988
  164MOL   H11823264   3.397   5.499   5.979  4.0070  1.1265 -0.9615
  164MOL   H11923265   3.258   5.403   5.782 -0.7187 -2.7569 -2.0553
  164MOL   H12023266   3.234   5.345   5.948 -0.7937 -1.8775  0.1182
  164MOL   C12123267   3.411   5.203   5.711  0.8006 -0.8282  0.3577
  164MOL   C12223268   3.487   5.074   5.682  0.3431 -0.1011 -0.2273
  164MOL   O12323269   3.577   5.045   5.784  0.2020  0.1419 -0.7220
  164MOL   H12423270   3.345   5.232   5.630 -0.9016 -0.3013  1.8912
  164MOL   H12523271   3.481   5.287   5.714 -0.5428  0.2831  1.0681
  164MOL   H12623272   3.547   5.096   5.594  2.3096 -0.1053  1.0697
  164MOL   H12723273   3.430   4.985   5.656  0.6789 -0.4662  0.2686
  164MOL   C12823274   3.543   5.001   5.916  0.1333 -0.1862 -0.6804
  164MOL   C12923275   3.419   4.908   5.907  0.0765 -0.0173 -0.9380
  164MOL   O13023276   3.449   4.784   5.838  0.1650  1.1719 -0.4939
  164MOL   H13123277   3.619   4.941   5.966 -0.3099 -1.0908 -1.0827
  164MOL   H13223278   3.526   5.091   5.976 -0.8517 -0.8038 -0.0144
  164MOL   H13323279   3.333   4.955   5.859  1.1499  1.4867 -1.4484
  164MOL   H13423280   3.395   4.874   6.007  0.2139  1.6188 -0.3319
  164MOL   C13523281   3.335   4.702   5.821 -0.4296 -0.0307 -0.4067
  164MOL   C13623282   3.356   4.597   5.702  0.7720 -0.1752  0.3839
  164MOL   O13723283   3.352   4.642   5.568  0.0214 -0.1365  0.5831
  164MOL   H13823284   3.324   4.651   5.916 -0.8319 -1.8279 -1.4050
  164MOL   H13923285   3.238   4.752   5.817 -0.5180 -0.2309 -0.8607
  164MOL   H14023286   3.263   4.542   5.718 -0.8751  2.8272  1.4853
  164MOL   H14123287   3.446   4.538   5.719  0.4497 -0.6531  0.4368
  164MOL   H14223288   3.262   4.653   5.540 -0.1020  0.0181  1.0441
  165MOL     C123289   1.660   2.421   2.023 -0.0594 -1.6002  0.4209
  165MOL     C223290   1.553   2.319   1.991 -0.9922 -0.0580 -0.0446
  165MOL     O323291   1.603   2.217   1.910 -0.1809 -0.1791  0.0362
  165MOL     H423292   1.624   2.488   2.101  3.1321  1.1620 -0.3362
  165MOL     H523293   1.692   2.489   1.944 -1.0535  0.0751  1.4362
  165MOL     H623294   1.481   2.373   1.929  1.4752  0.8646 -2.1899
  165MOL     H723295   1.498   2.283   2.078 -2.2970  0.8207 -0.4800
  165MOL     H823296   1.752   2.377   2.062  0.7933  0.0367  0.2906
  165MOL     C923297   1.504   2.130   1.870  0.2049 -0.2607  0.3351
  165MOL    C1023298   1.571   2.016   1.787  0.5557  0.3412 -0.5891
  165MOL    O1123299   1.597   2.067   1.650  0.4333 -0.5787 -0.8353
  165MOL    H1223300   1.451   2.077   1.950  0.1568  1.8527  1.7368
  165MOL    H1323301   1.424   2.180   1.815  0.4141 -0.9000 -0.5711
  165MOL    H1423302   1.504   1.931   1.768  0.1105  0.7155 -0.7064
  165MOL    H1523303   1.663   1.978   1.830  0.0302  0.0990  0.3411
  165MOL    C1623304   1.686   1.986   1.581 -0.1661 -0.3236 -0.2091
  165MOL    C1723305   1.833   2.032   1.585 -1.0108 -0.0188 -0.5633
  165MOL    O1823306   1.881   2.030   1.721  0.0842  1.1078 -0.5981
  165MOL    H1923307   1.673   1.881   1.606  0.3850 -0.1638  0.7701
  165MOL    H2023308   1.660   1.981   1.475 -1.5442  1.4782  0.0373
  165MOL    H2123309   1.833   2.132   1.542  2.5017  0.7664  1.1128
  165MOL    H2223310   1.901   1.968   1.529  1.1300  0.6180  1.2526
  165MOL    C2323311   2.012   2.098   1.727  0.5196  0.0180  0.5484
  165MOL    C2423312   1.997   2.253   1.723 -0.1018  0.5564 -0.3086
  165MOL    O2523313   2.120   2.303   1.780 -0.8852  0.1003 -0.1938
  165MOL    H2623314   2.040   2.082   1.831  1.0400 -0.3197  0.3557
  165MOL    H2723315   2.094   2.052   1.672 -0.4431 -3.4420  1.8460
  165MOL    H2823316   1.912   2.279   1.786  0.9199  0.1129  1.2925
  165MOL    H2923317   1.975   2.275   1.619 -1.3367  0.8258  0.0034
  165MOL    C3023318   2.113   2.442   1.776 -0.2678  0.2815  0.1602
  165MOL    C3123319   2.248   2.511   1.806  0.2506  1.1031 -0.2355
  165MOL    O3223320   2.336   2.501   1.693  0.4206 -0.5452 -0.5881
  165MOL    H3323321   2.076   2.470   1.677  0.2651 -1.3776 -0.5289
  165MOL    H3423322   2.047   2.463   1.859  0.9789 -1.1997  1.5781
  165MOL    H3523323   2.280   2.469   1.902 -0.4675 -0.7563 -0.7813
  165MOL    H3623324   2.221   2.614   1.827  2.5836  2.3596 -3.0590
  165MOL    C3723325   2.480   2.480   1.730  0.4562  0.0595 -0.1649
  165MOL    C3823326   2.484   2.332   1.728  0.1093  0.2248  0.5603
  165MOL    O3923327   2.442   2.277   1.849  0.0891  0.2859  1.1056
  165MOL    H4023328   2.533   2.522   1.644 -0.3640 -2.1470 -1.7995
  165MOL    H4123329   2.494   2.528   1.826 -0.0919  1.7332 -0.9079
  165MOL    H4223330   2.589   2.300   1.722 -0.1072 -0.2837 -0.5965
  165MOL    H4323331   2.436   2.291   1.640  1.1173  0.6481 -0.2046
  165MOL    C4423332   2.464   2.136   1.850 -1.0053  0.2072  0.7458
  165MOL    C4523333   2.400   2.077   1.976  0.0718 -0.9877 -0.5632
  165MOL    O4623334   2.468   2.125   2.091  0.0923 -0.2781  0.0742
  165MOL    H4723335   2.419   2.088   1.764 -0.3519 -1.4446  1.2948
  165MOL    H4823336   2.566   2.097   1.856 -0.7632  0.8579  0.8944
  165MOL    H4923337   2.413   1.969   1.979 -0.6379 -1.0455  0.8603
  165MOL    H5023338   2.296   2.108   1.968  0.2122  0.5526  2.5932
  165MOL    C5123339   2.409   2.091   2.208  0.2593 -0.2099 -0.0467
  165MOL    C5223340   2.505   2.107   2.325 -0.5595 -0.1874 -0.9265
  165MOL    O5323341   2.460   2.046   2.449  0.3439  0.8175  0.4968
  165MOL    H5423342   2.314   2.142   2.222 -0.1808 -0.4810 -1.8866
  165MOL    H5523343   2.381   1.986   2.196 -1.2279  0.3160 -1.2159
  165MOL    H5623344   2.519   2.215   2.334 -1.5601 -0.1950  0.9892
  165MOL    H5723345   2.605   2.070   2.304 -0.1992 -0.5887  1.3449
  165MOL    C5823346   2.493   2.123   2.566 -0.2418 -0.4804  1.0794
  165MOL    C5923347   2.402   2.076   2.676  0.5333  0.1213  0.0878
  165MOL    O6023348   2.377   2.182   2.770 -0.1479 -0.0588 -0.2244
  165MOL    H6123349   2.600   2.118   2.583  0.4304  1.9294 -2.0155
  165MOL    H6223350   2.463   2.227   2.550  2.0124  0.1712  0.8939
  165MOL    H6323351   2.431   1.987   2.732 -2.0958 -0.5890  0.3899
  165MOL    H6423352   2.306   2.055   2.629 -0.5701  1.4392  1.6803
  165MOL    C6523353   2.272   2.145   2.852  0.9134  0.1774  0.1011
  165MOL    C6623354   2.247   2.265   2.937  0.1210 -0.4006 -0.3937
  165MOL    O6723355   2.142   2.233   3.021 -0.4676 -0.2165 -0.1790
  165MOL    H6823356   2.180   2.123   2.797  1.9095 -0.7351 -1.2355
  165MOL    H6923357   2.286   2.061   2.920 -0.4387 -0.2695 -0.1553
  165MOL    H7023358   2.214   2.348   2.874 -2.1676 -0.0626  1.1652
  165MOL    H7123359   2.341   2.295   2.983 -0.0562 -1.5241  0.7148
  165MOL    C7223360   2.125   2.334   3.116  0.1208  0.3684 -0.4391
  165MOL    C7323361   2.022   2.296   3.227 -0.0349 -0.0468 -0.4827
  165MOL    O7423362   1.892   2.290   3.160 -0.4105 -0.3100  0.1807
  165MOL    H7523363   2.225   2.350   3.157  0.5578 -1.7798 -0.6323
  165MOL    H7623364   2.098   2.424   3.060  0.1777  0.9443  0.4455
  165MOL    H7723365   2.021   2.371   3.306 -0.5826  0.2367 -0.7595
  165MOL    H7823366   2.058   2.204   3.272 -0.6927 -0.0794 -0.0216
  165MOL    C7923367   1.788   2.227   3.235 -0.4348  0.1128  0.4608
  165MOL    C8023368   1.655   2.278   3.177 -0.3938 -0.7236 -0.1089
  165MOL    O8123369   1.623   2.218   3.055  0.1785  0.0216  0.3561
  165MOL    H8223370   1.811   2.121   3.230  0.7209  0.4539 -1.9745
  165MOL    H8323371   1.796   2.265   3.337  0.6192 -0.8162  0.7318
  165MOL    H8423372   1.671   2.384   3.159  3.7966 -0.9224  1.7147
  165MOL    H8523373   1.568   2.252   3.236 -0.2840 -0.2855  0.2482
  165MOL    C8623374   1.507   2.284   2.995  0.3504  0.7353  0.1572
  165MOL    C8723375   1.473   2.213   2.863  0.3846  0.1247  0.1120
  165MOL    O8823376   1.384   2.299   2.796  0.1708 -0.5062 -0.0664
  165MOL    H8923377   1.421   2.307   3.058 -0.4146 -0.5120 -0.4167
  165MOL    H9023378   1.541   2.383   2.966  2.1911  0.0517 -0.0687
  165MOL    H9123379   1.444   2.109   2.875 -0.7121  0.6338  2.0635
  165MOL    H9223380   1.555   2.200   2.793  2.9763  1.8048  2.6751
  165MOL    C9323381   1.296   2.221   2.714 -0.6759  0.4547 -0.2285
  165MOL    C9423382   1.168   2.304   2.702 -0.2431 -0.0079  0.7703
  165MOL    O9523383   1.103   2.324   2.826 -0.0703 -0.1882  0.1491
  165MOL    H9623384   1.334   2.195   2.615 -0.2616  0.9972 -0.2149
  165MOL    H9723385   1.267   2.136   2.776  1.4394 -1.4192 -1.7165
  165MOL    H9823386   1.092   2.246   2.649 -0.2403  1.2041 -0.5741
  165MOL    H9923387   1.172   2.399   2.650 -2.1539 -0.6011 -0.5065
  165MOL   C10023388   1.149   2.431   2.912 -0.4874  0.5108 -0.9254
  165MOL   C10123389   1.050   2.453   3.025  0.3873  0.2132 -0.4990
  165MOL   O10223390   0.921   2.459   2.979  0.0409 -0.0359  0.3217
  165MOL   H10323391   1.238   2.415   2.973 -1.2667 -2.1490 -0.4266
  165MOL   H10423392   1.172   2.525   2.861 -0.0596  1.3785  0.8044
  165MOL   H10523393   1.082   2.533   3.092  1.2015 -1.8925  1.7076
  165MOL   H10623394   1.051   2.366   3.090 -0.8047  1.2119  0.8899
  165MOL   C10723395   0.837   2.503   3.084 -0.5267 -0.5189  0.0787
  165MOL   C10823396   0.687   2.475   3.052 -0.5745  0.3669 -0.1024
  165MOL   O10923397   0.600   2.548   3.133  0.1623 -0.0246 -0.7437
  165MOL   H11023398   0.866   2.438   3.167  1.1588 -0.5637 -0.5231
  165MOL   H11123399   0.858   2.608   3.105 -1.3242 -0.0158 -1.5956
  165MOL   H11223400   0.673   2.368   3.063  3.2824 -0.1066  1.1612
  165MOL   H11323401   0.674   2.491   2.945  2.7590  0.5250 -0.5591
  165MOL   C11423402   0.467   2.506   3.144  0.6797  0.1405 -0.3456
  165MOL   C11523403   0.392   2.531   3.014  0.1691  0.0660 -0.7119
  165MOL   O11623404   0.416   2.441   2.904  0.5514 -0.4979 -0.0260
  165MOL   H11723405   0.464   2.399   3.165  2.0260 -0.5234 -3.2470
  165MOL   H11823406   0.430   2.555   3.234  0.4707 -0.5770 -0.0383
  165MOL   H11923407   0.419   2.631   2.979 -0.9721 -0.2352 -2.5215
  165MOL   H12023408   0.286   2.551   3.035  0.0171  1.0632 -2.3950
  165MOL   C12123409   0.346   2.480   2.785 -0.0584  0.1420  0.2356
  165MOL   C12223410   0.419   2.572   2.686  0.1883 -0.0908  0.3754
  165MOL   O12323411   0.493   2.499   2.590  0.4345 -0.2919  0.0315
  165MOL   H12423412   0.309   2.387   2.741 -1.0253  0.8266 -0.3982
  165MOL   H12523413   0.262   2.546   2.807 -1.1243 -0.3498 -2.2504
  165MOL   H12623414   0.475   2.652   2.735  0.1787 -0.0572  0.3321
  165MOL   H12723415   0.348   2.623   2.620  2.3428  0.1043 -1.8236
  165MOL   C12823416   0.614   2.448   2.642  0.0260  0.1578 -0.2252
  165MOL   C12923417   0.699   2.429   2.519 -0.6513  0.9023  0.0840
  165MOL   O13023418   0.655   2.310   2.454  0.3637 -0.1275 -0.1758
  165MOL   H13123419   0.654   2.524   2.709 -2.7866  0.0605  1.6363
  165MOL   H13223420   0.601   2.353   2.694 -2.1003  0.0641 -0.8829
  165MOL   H13323421   0.805   2.421   2.542 -1.0324  0.1288  1.6600
  165MOL   H13423422   0.693   2.518   2.456 -0.1760  0.3027 -0.8182
  165MOL   C13523423   0.759   2.252   2.378  0.0719  0.5648 -0.1511
  165MOL   C13623424   0.707   2.117   2.319  0.3738 -0.8634  0.5886
  165MOL   O13723425   0.609   2.137   2.219  0.0144  0.2633 -0.0265
  165MOL   H13823426   0.795   2.322   2.303  1.5716 -0.5685 -0.5148
  165MOL   H13923427   0.841   2.223   2.445  0.4211 -1.9276 -1.6161
  165MOL   H14023428   0.678   2.049   2.399 -2.6314 -1.0801 -0.6035
  165MOL   H14123429   0.789   2.065   2.270  0.2588 -0.5390  0.0516
  165MOL   H14223430   0.549   2.200   2.255 -2.3184 -1.5956 -0.5228
  166MOL     C123431   2.588   7.692   2.007 -0.9734  0.0522 -0.4351
  166MOL     C223432   2.713   7.766   2.056 -0.3660  1.0132  0.0901
  166MOL     O323433   2.712   7.746   2.200 -1.0683  0.2766 -0.4362
  166MOL     H423434   2.501   7.730   2.059 -0.0084  2.3438 -0.4146
  166MOL     H523435   2.590   7.587   2.036  3.1944  1.1397  3.7984
  166MOL     H623436   2.714   0.103   2.036 -2.7931  0.8360 -1.2563
  166MOL     H723437   2.797   7.724   2.002  0.7055  2.5925  0.4920
  166MOL     H823438   2.574   7.702   1.899  1.9042  1.0108 -0.7716
  166MOL     C923439   2.823   0.050   2.261  0.0261 -0.2245  0.5827
  166MOL    C1023440   2.801   0.201   2.270  0.3443  0.1895 -0.7463
  166MOL    O1123441   2.839   0.270   2.151  0.1471  0.6506  0.5802
  166MOL    H1223442   2.823   0.005   2.360  0.0147 -2.0315 -0.2116
  166MOL    H1323443   2.915   0.031   2.204  0.5339 -0.0351  1.3278
  166MOL    H1423444   2.846   0.246   2.358 -0.0670 -0.4584 -0.2028
  166MOL    H1523445   2.697   0.222   2.295  0.0535  0.5396 -2.1873
  166MOL    C1623446   2.822   0.411   2.153 -0.2671  0.0587 -0.2273
  166MOL    C1723447   2.926   0.482   2.252  0.4024  0.7628  0.1245
  166MOL    O1823448   2.889   0.483   2.393  0.1806  0.6209  0.0756
  166MOL    H1923449   2.848   0.438   2.051  2.2021  0.2037  0.3986
  166MOL    H2023450   2.717   0.435   2.170 -0.7513 -0.2959 -2.5106
  166MOL    H2123451   2.942   0.583   2.213  1.0299  0.1835 -1.1424
  166MOL    H2223452   3.025   0.438   2.240  0.8083  1.8858 -0.6871
  166MOL    C2323453   2.981   0.563   2.463 -0.1486  0.0852  0.2170
  166MOL    C2423454   2.931   0.575   2.608  0.3440  0.6300  0.0454
  166MOL    O2523455   2.936   0.705   2.652  0.1630 -0.1385  1.1769
  166MOL    H2623456   3.078   0.514   2.466 -0.1363  0.0182 -0.8271
  166MOL    H2723457   2.992   0.662   2.419  1.2626 -0.6715 -1.1825
  166MOL    H2823458   3.000   0.527   2.677  0.1052  0.4949  0.1900
  166MOL    H2923459   2.834   0.528   2.620 -0.1907  1.9278  0.9144
  166MOL    C3023460   2.854   0.716   2.769 -0.8260  0.4983  0.6842
  166MOL    C3123461   2.879   0.862   2.823 -0.3300  0.4373  0.1975
  166MOL    O3223462   2.829   0.956   2.726 -0.4567 -0.1561 -0.0401
  166MOL    H3323463   2.749   0.708   2.742 -0.3434 -0.5957 -0.9875
  166MOL    H3423464   2.872   0.651   2.855  0.1078  0.2709  0.3283
  166MOL    H3523465   2.986   0.871   2.836 -0.7795  2.3827  3.0924
  166MOL    H3623466   2.838   0.876   2.923  2.9859 -0.6469  1.7482
  166MOL    C3723467   2.898   1.081   2.731 -0.2895  0.1784  0.4340
  166MOL    C3823468   2.841   1.192   2.639  0.0504  0.1021 -0.0516
  166MOL    O3923469   2.731   1.262   2.697 -0.2448  0.3437 -0.3453
  166MOL    H4023470   2.898   1.118   2.833  1.0072 -0.1944  0.5762
  166MOL    H4123471   3.004   1.064   2.711 -0.5491  0.0209 -0.8979
  166MOL    H4223472   2.816   1.142   2.545 -1.2004  4.2887 -2.0748
  166MOL    H4323473   2.919   1.266   2.619  2.5094 -1.3996  3.5270
  166MOL    C4423474   2.656   1.343   2.611 -0.3624  0.3885 -0.2643
  166MOL    C4523475   2.536   1.414   2.671 -0.4632  0.2046  0.1894
  166MOL    O4623476   2.422   1.329   2.663 -0.1309 -0.2995 -0.1145
  166MOL    H4723477   2.725   1.426   2.595  0.4416 -0.4887 -1.4053
  166MOL    H4823478   2.633   1.305   2.511  0.6876 -0.1656 -0.3046
  166MOL    H4923479   2.528   1.506   2.612 -0.5621  0.4498  0.5850
  166MOL    H5023480   2.546   1.445   2.775  0.9922 -2.8057  1.0081
  166MOL    C5123481   2.307   1.396   2.711  0.6062 -0.4042 -0.2927
  166MOL    C5223482   2.194   1.301   2.760  0.7214 -1.1491  0.4125
  166MOL    O5323483   2.120   1.261   2.643  0.4699  0.6268  0.3829
  166MOL    H5423484   2.340   1.457   2.795 -1.2580  0.7140 -0.3570
  166MOL    H5523485   2.268   1.468   2.639  0.6812 -0.6770 -0.6054
  166MOL    H5623486   2.125   1.355   2.825  1.2771 -2.7175  2.3763
  166MOL    H5723487   2.237   1.211   2.805  1.2151 -1.6407 -1.0130
  166MOL    C5823488   2.046   1.142   2.664  0.7462 -0.2526  0.9109
  166MOL    C5923489   1.999   1.089   2.528  0.1387 -0.0135  0.0519
  166MOL    O6023490   1.889   1.169   2.471  0.3779  0.1933 -0.0786
  166MOL    H6123491   2.100   1.060   2.712 -1.4095 -1.5510  1.2108
  166MOL    H6223492   1.962   1.166   2.730  0.7566  1.2408  0.3882
  166MOL    H6323493   1.955   0.989   2.534 -0.8632  0.3344 -1.2607
  166MOL    H6423494   2.075   1.089   2.450  1.3397 -0.9419  1.1980
  166MOL    C6523495   1.762   1.147   2.521 -0.3975 -0.3818 -0.0324
  166MOL    C6623496   1.665   1.232   2.435  0.1553  0.4467  0.0958
  166MOL    O6723497   1.611   1.151   2.338  0.3522 -0.3207  0.4699
  166MOL    H6823498   1.728   1.043   2.521 -1.3048 -0.1140 -1.8905
  166MOL    H6923499   1.762   1.180   2.625  3.4627 -1.3268  0.3294
  166MOL    H7023500   1.708   1.310   2.373  2.0075 -2.1193 -1.9792
  166MOL    H7123501   1.584   1.268   2.499  0.8751 -1.3315  2.0819
  166MOL    C7223502   1.510   1.221   2.265  0.2759 -0.9427 -0.5198
  166MOL    C7323503   1.437   1.118   2.183  0.5155 -0.0766  0.4599
  166MOL    O7423504   1.313   1.174   2.141 -0.1827 -0.5087  0.4720
  166MOL    H7523505   1.439   1.258   2.339 -0.8647 -2.4919 -0.8231
  166MOL    H7623506   1.543   1.301   2.199 -1.3367  0.4607  0.3539
  166MOL    H7723507   1.430   1.019   2.228 -1.1322 -0.1960 -0.0215
  166MOL    H7823508   1.495   1.083   2.098 -0.9700  1.7198 -1.3524
  166MOL    C7923509   1.236   1.084   2.057 -0.1799 -1.0417  0.6628
  166MOL    C8023510   1.092   1.128   2.033  0.0520 -0.1107  0.1542
  166MOL    O8123511   1.007   1.123   2.153  0.2759  0.0695 -0.3487
  166MOL    H8223512   1.278   1.080   1.956  0.9703  0.5783  1.0595
  166MOL    H8323513   1.247   0.981   2.092  2.0337 -1.9715 -2.5428
  166MOL    H8423514   1.069   1.057   1.953 -2.8027  1.4328 -0.4814
  166MOL    H8523515   1.081   1.228   1.991  0.0037 -0.5958 -1.0155
  166MOL    C8623516   0.868   1.090   2.129 -0.0894  0.2896 -0.1003
  166MOL    C8723517   0.784   1.201   2.058  0.0651  0.0692 -0.5174
  166MOL    O8823518   0.835   1.223   1.921 -0.4638  0.0977  0.4431
  166MOL    H8923519   0.860   1.002   2.066  0.9790  0.2635 -0.2138
  166MOL    H9023520   0.828   1.066   2.227 -0.3078  1.6928  0.1648
  166MOL    H9123521   0.794   1.290   2.120 -0.0027  0.6958 -1.3942
  166MOL    H9223522   0.681   1.167   2.052  0.3962 -0.8706 -0.9164
  166MOL    C9323523   0.749   1.307   1.851  0.0959  0.5627  0.1576
  166MOL    C9423524   0.798   1.350   1.712 -0.0184  0.2951 -0.0960
  166MOL    O9523525   0.877   1.471   1.725  0.0472 -0.1294 -0.1645
  166MOL    H9623526   0.648   1.266   1.852  0.1546  0.4136  0.0281
  166MOL    H9723527   0.730   1.399   1.906 -0.2725  0.7725 -0.3114
  166MOL    H9823528   0.704   1.363   1.658  0.3749  1.7103 -0.4621
  166MOL    H9923529   0.860   1.273   1.666  0.2112  0.2575  0.2758
  166MOL   C10023530   0.926   1.519   1.602  0.7310 -0.7023 -0.5960
  166MOL   C10123531   1.014   1.643   1.624  0.3696  0.3704 -0.2450
  166MOL   O10223532   1.143   1.609   1.678 -0.1400  0.1499  0.2542
  166MOL   H10323533   0.977   1.438   1.549  1.0669 -0.9487  0.1089
  166MOL   H10423534   0.835   1.547   1.549 -0.4071 -2.2659  0.4968
  166MOL   H10523535   0.957   1.710   1.688  0.8871  0.4286  0.1642
  166MOL   H10623536   1.035   1.690   1.528 -2.0778 -0.7490 -1.3639
  166MOL   C10723537   1.236   1.717   1.681 -0.4645 -0.9723  0.4579
  166MOL   C10823538   1.275   1.779   1.549 -0.5861 -0.1954  0.6374
  166MOL   O10923539   1.201   1.889   1.506 -0.1051 -0.4637  0.1996
  166MOL   H11023540   1.194   1.798   1.741  1.5078 -1.0447  1.9638
  166MOL   H11123541   1.330   1.682   1.724  0.2203  0.4133  0.1097
  166MOL   H11223542   1.283   1.707   1.467  2.5354  2.5500 -1.6403
  166MOL   H11323543   1.383   1.794   1.550 -0.3855 -1.4983 -0.0494
  166MOL   C11423544   1.255   2.001   1.565  0.5528  0.2568  0.3808
  166MOL   C11523545   1.176   2.137   1.554 -0.3466  0.1507 -0.2742
  166MOL   O11623546   1.052   2.138   1.628 -0.5931  0.0908 -0.0348
  166MOL   H11723547   1.299   1.999   1.664  3.3884  1.6929 -0.8033
  166MOL   H11823548   1.352   2.022   1.520  2.2880 -0.7910  3.4935
  166MOL   H11923549   1.155   2.161   1.450  2.3625  1.9695 -0.4531
  166MOL   H12023550   1.239   2.214   1.597  0.8991  0.3098 -2.3278
  166MOL   C12123551   0.995   2.271   1.619  0.3327  0.8042 -0.0666
  166MOL   C12223552   0.856   2.265   1.683 -0.5684  0.2028  0.6990
  166MOL   O12323553   0.844   2.364   1.781  0.2913 -0.5988  0.5418
  166MOL   H12423554   1.062   2.348   1.658  3.2765 -2.2215  1.0723
  166MOL   H12523555   0.990   2.312   1.518  3.1576  2.3570  0.3585
  166MOL   H12623556   0.856   2.168   1.733  0.1571 -0.7865 -1.1629
  166MOL   H12723557   0.777   2.268   1.608  0.0612  1.5780  0.0693
  166MOL   C12823558   0.739   2.325   1.883  0.7807  0.2703  0.1750
  166MOL   C12923559   0.717   2.432   1.988  0.3721 -0.5291 -0.2007
  166MOL   O13023560   0.661   2.540   1.912  0.0810  0.0127 -0.6581
  166MOL   H13123561   0.641   2.297   1.842  0.5190  1.9977 -0.4253
  166MOL   H13223562   0.780   2.242   1.940  0.8215  0.6787  0.7472
  166MOL   H13323563   0.816   2.464   2.021 -0.1096 -0.9421  1.7071
  166MOL   H13423564   0.662   2.400   2.077 -1.2392  3.1450  0.2344
  166MOL   C13523565   0.631   2.642   2.010 -0.3368  0.4896  0.1536
  166MOL   C13623566   0.550   2.746   1.941  0.4995  0.3645  0.1181
  166MOL   O13723567   0.416   2.712   1.932 -0.0333  0.6162  0.3450
  166MOL   H13823568   0.568   2.596   2.086 -0.1717 -1.3792 -0.7924
  166MOL   H13923569   0.721   2.686   2.052 -0.9857  1.4451  0.5492
  166MOL   H14023570   0.592   2.753   1.841 -1.5068  2.0438 -0.6312
  166MOL   H14123571   0.561   2.844   1.989 -0.7721  1.0282 -0.9021
  166MOL   H14223572   0.409   2.621   1.908  1.1337  0.7230 -0.4271
  167MOL     C123573   6.327   1.962   5.216 -0.4100 -0.4861 -0.0628
  167MOL     C223574   6.176   1.948   5.242  0.4913 -0.1120  0.6621
  167MOL     O323575   6.140   1.924   5.377 -0.4207  0.0744 -0.0813
  167MOL     H423576   6.339   1.951   5.108  1.2464 -0.4728  0.1074
  167MOL     H523577   6.377   1.881   5.269 -1.0389 -0.0697  1.1882
  167MOL     H623578   6.154   1.861   5.180  2.4862 -0.0797 -0.1387
  167MOL     H723579   6.133   2.040   5.202 -3.2731 -1.0725  2.2875
  167MOL     H823580   6.360   2.061   5.249 -1.4608  0.0866 -0.7093
  167MOL     C923581   6.003   1.915   5.403  0.5571  0.0620  0.5133
  167MOL    C1023582   5.966   1.917   5.554  0.1616  0.4298 -0.7992
  167MOL    O1123583   6.024   1.811   5.623 -0.0302  0.7487  0.1436
  167MOL    H1223584   5.954   2.000   5.355  1.7358  1.3257  1.4928
  167MOL    H1323585   5.969   1.824   5.352 -0.2303  0.1850  0.8025
  167MOL    H1423586   5.858   1.919   5.568  0.1545  2.4667 -1.0197
  167MOL    H1523587   5.998   2.009   5.603  0.6692  0.9834 -2.1472
  167MOL    C1623588   5.977   1.798   5.755  0.3211  0.1692 -0.6543
  167MOL    C1723589   6.073   1.686   5.806 -0.6687  0.0271  0.4415
  167MOL    O1823590   6.041   1.681   5.942  0.2053 -0.5795 -0.5475
  167MOL    H1923591   5.999   1.892   5.805 -1.6151  1.2180 -1.7190
  167MOL    H2023592   5.877   1.757   5.772  1.5685 -2.3515  0.8632
  167MOL    H2123593   6.176   1.722   5.797 -1.3694  1.7126 -1.4713
  167MOL    H2223594   6.074   1.587   5.762 -0.6359  0.1138  0.2462
  167MOL    C2323595   6.125   1.603   6.024 -0.0324 -0.4424 -0.1633
  167MOL    C2423596   6.085   1.629   6.167 -1.3465 -0.2028  0.1822
  167MOL    O2523597   6.079   1.509   6.238  0.5012 -0.0180 -0.6902
  167MOL    H2623598   6.102   1.500   5.994  2.6922 -1.8482  2.2957
  167MOL    H2723599   6.231   1.626   6.008  0.9079 -2.7138  2.3927
  167MOL    H2823600   5.987   1.674   6.185 -1.0390 -0.0472  1.5035
  167MOL    H2923601   6.153   1.695   6.220 -0.2193 -2.1746  1.2520
  167MOL    C3023602   6.076   1.515   6.380  0.2349  0.3115  0.5304
  167MOL    C3123603   6.063   1.385   6.457 -0.5947 -0.2680 -0.7899
  167MOL    O3223604   6.171   1.293   6.427 -0.0785 -0.2093 -0.1794
  167MOL    H3323605   6.159   1.579   6.409  0.7640 -0.3654  0.5015
  167MOL    H3423606   5.986   1.574   6.400 -0.5256 -0.9825  1.0072
  167MOL    H3523607   5.961   1.348   6.447 -0.4691 -0.8865  0.1495
  167MOL    H3623608   6.076   1.405   6.563 -0.3522  2.6040 -1.3220
  167MOL    C3723609   6.175   1.183   6.517 -0.3678  0.1583  0.6539
  167MOL    C3823610   6.073   1.073   6.467 -0.2281 -0.1128  0.1081
  167MOL    O3923611   5.932   1.105   6.465  0.1937 -0.1729 -0.3101
  167MOL    H4023612   6.277   1.145   6.512 -0.3344  0.2546  0.6185
  167MOL    H4123613   6.170   1.205   6.623 -0.5332  1.5006  0.3735
  167MOL    H4223614   6.088   0.985   6.530 -1.4296 -0.2226  0.2503
  167MOL    H4323615   6.105   1.054   6.365 -0.1313  3.7274 -0.6799
  167MOL    C4423616   5.848   0.993   6.466 -0.1122  0.5645  0.5678
  167MOL    C4523617   5.696   1.026   6.461  0.0503  0.0397 -0.3596
  167MOL    O4623618   5.642   1.052   6.588  0.4487 -0.4323 -0.1243
  167MOL    H4723619   5.871   0.928   6.382  2.5501 -1.2151  2.6266
  167MOL    H4823620   5.871   0.937   6.556 -0.1595  0.7426  0.6927
  167MOL    H4923621   5.651   0.933   6.427  1.3588 -0.6285 -0.3182
  167MOL    H5023622   5.664   1.110   6.399 -1.9732  1.6076  2.6780
  167MOL    C5123623   5.689   1.170   6.653 -0.1436  0.1006 -0.0932
  167MOL    C5223624   5.605   1.219   6.778  0.5266 -0.5293  0.0155
  167MOL    O5323625   5.641   1.158   6.900  0.5368 -0.5020 -0.1486
  167MOL    H5423626   5.789   1.168   6.696 -0.6774 -1.6091  1.1427
  167MOL    H5523627   5.688   1.250   6.579 -0.4181  1.2589  1.1515
  167MOL    H5623628   5.497   1.209   6.769  0.2541  1.4338  0.8939
  167MOL    H5723629   5.621   1.326   6.792  2.6597 -1.2013  3.4347
  167MOL    C5823630   5.617   1.021   6.906  0.3819 -0.4941 -0.1939
  167MOL    C5923631   5.620   0.978   7.048  0.0403  0.3131 -0.0451
  167MOL    O6023632   5.491   1.005   7.102 -0.0243 -0.6268 -0.2158
  167MOL    H6123633   5.520   0.996   6.865  0.2068 -0.0072 -0.0767
  167MOL    H6223634   5.690   0.980   6.835 -1.5678 -2.5007 -1.0953
  167MOL    H6323635   5.712   1.007   7.099  0.6522  0.5822 -1.2965
  167MOL    H6423636   5.627   0.869   7.048 -0.1517  0.3024 -0.4965
  167MOL    C6523637   5.491   0.974   7.244 -0.2825  0.1751  0.2515
  167MOL    C6623638   5.361   1.029   7.315  0.5334  0.3272  0.5623
  167MOL    O6723639   5.356   0.990   7.446  0.4590 -0.5152  0.1434
  167MOL    H6823640   5.499   0.867   7.264  0.2682 -0.0152 -0.9176
  167MOL    H6923641   5.581   1.019   7.285 -0.8155  2.5641 -1.1022
  167MOL    H7023642   5.272   0.989   7.267  1.0206 -0.8488  0.6213
  167MOL    H7123643   5.366   1.137   7.331 -0.2110  0.3804  0.4562
  167MOL    C7223644   5.239   0.994   7.530 -0.3176 -0.3123 -0.1905
  167MOL    C7323645   5.170   0.856   7.530 -0.5085 -0.4040  0.4125
  167MOL    O7423646   5.090   0.835   7.409 -0.3914  0.0360 -0.0421
  167MOL    H7523647   5.276   1.022   7.628  1.4974  0.9094 -1.1963
  167MOL    H7623648   5.168   1.071   7.499 -0.7157 -1.0732 -1.1929
  167MOL    H7723649   5.117   0.842   7.624 -0.1702 -0.7937  0.5437
  167MOL    H7823650   5.250   0.788   7.560  0.7905  2.0254  2.5870
  167MOL    C7923651   5.040   0.703   7.401  0.0177  0.2808 -0.0116
  167MOL    C8023652   4.999   0.682   7.254 -0.4710  0.5414  0.2746
  167MOL    O8123653   4.884   0.765   7.220  0.1874  0.2720 -0.3661
  167MOL    H8223654   5.110   0.629   7.441 -0.5400 -0.6712 -0.7898
  167MOL    H8323655   4.955   0.723   7.466  1.2511  1.1711  1.3702
  167MOL    H8423656   4.977   0.575   7.245 -1.1597  0.9127 -2.7843
  167MOL    H8523657   5.078   0.701   7.182  1.7577 -2.8666  1.6585
  167MOL    C8623658   4.840   0.736   7.084 -0.3395 -0.1727 -0.5587
  167MOL    C8723659   4.708   0.808   7.055  0.0598 -0.4473 -0.8238
  167MOL    O8823660   4.606   0.743   7.138  0.4980  0.2354 -0.4060
  167MOL    H8923661   4.910   0.765   7.006  0.1000  1.7135  0.5174
  167MOL    H9023662   4.825   0.629   7.065 -1.4822  0.0299 -0.8765
  167MOL    H9123663   4.691   0.801   6.948 -2.8160 -1.6485 -0.3289
  167MOL    H9223664   4.702   0.913   7.085 -0.7415  0.1140 -2.8578
  167MOL    C9323665   4.474   0.800   7.107  0.0147  0.9625 -0.4049
  167MOL    C9423666   4.368   0.722   7.197 -0.1716 -0.6946  0.6075
  167MOL    O9523667   4.238   0.782   7.194  0.3232 -0.1466 -0.0016
  167MOL    H9623668   4.474   0.907   7.129  1.0470  1.0363 -0.7511
  167MOL    H9723669   4.457   0.784   7.000 -1.9259  1.8639 -0.2537
  167MOL    H9823670   4.400   0.713   7.301  0.5594 -0.0338  0.4466
  167MOL    H9923671   4.366   0.618   7.162  1.6377 -0.2546 -0.8411
  167MOL   C10023672   4.143   0.715   7.278 -0.8622  0.0845 -0.2128
  167MOL   C10123673   4.001   0.763   7.255  0.4853  0.0229 -0.9588
  167MOL   O10223674   3.980   0.882   7.324  0.0742 -0.0346 -0.2850
  167MOL   H10323675   4.148   0.609   7.250  0.7318  0.2550 -0.6341
  167MOL   H10423676   4.167   0.730   7.383  1.4585 -1.1397 -0.5277
  167MOL   H10523677   3.929   0.686   7.280  0.5594  0.7094  1.4533
  167MOL   H10623678   3.987   0.773   7.147  0.5801  0.1543 -0.9601
  167MOL   C10723679   3.855   0.935   7.301  0.8943  0.0285  0.0638
  167MOL   C10823680   3.823   1.047   7.394  1.0081  0.5662  0.9157
  167MOL   O10923681   3.796   1.007   7.528  0.4053 -0.2419 -0.6202
  167MOL   H11023682   3.844   0.964   7.196 -4.3616 -1.5895  0.0376
  167MOL   H11123683   3.772   0.867   7.319 -0.5390  0.9021 -2.7749
  167MOL   H11223684   3.721   1.072   7.365  0.4050 -1.1544  1.5025
  167MOL   H11323685   3.887   1.135   7.386 -0.5524  1.7194  0.8467
  167MOL   C11423686   3.909   1.014   7.607  0.0476 -0.3390 -0.4321
  167MOL   C11523687   3.872   0.974   7.747  0.3945  0.0598 -0.2734
  167MOL   O11623688   3.803   1.084   0.028  0.0788  0.2130  0.0300
  167MOL   H11723689   3.982   0.939   7.578  0.2017  1.1027 -3.9529
  167MOL   H11823690   3.961   1.110   7.608  1.4467 -1.0441  2.6098
  167MOL   H11923691   3.967   0.963   0.028 -0.0802 -2.6136  0.0654
  167MOL   H12023692   3.827   0.875   7.752  1.6312 -0.5434 -0.7377
  167MOL   C12123693   3.673   1.039   0.062  0.6647 -0.2650  0.2100
  167MOL   C12223694   3.582   1.153   0.110 -0.0871 -0.0413 -0.0515
  167MOL   O12323695   3.595   1.189   0.243 -0.5581 -0.3129 -0.1774
  167MOL   H12423696   3.630   0.987   7.748  0.1248 -0.4708  0.6014
  167MOL   H12523697   3.684   0.961   0.137  1.2982  0.2051  0.6141
  167MOL   H12623698   3.477   1.122   0.105 -0.2112  0.6471 -1.7941
  167MOL   H12723699   3.583   1.235   0.039 -0.4337  1.0351  1.1739
  167MOL   C12823700   3.525   1.304   0.277  0.1003  0.2433  0.7958
  167MOL   C12923701   3.531   1.330   0.427  0.3177 -0.2098 -0.3775
  167MOL   O13023702   3.662   1.373   0.478 -0.1362  0.0170 -0.2552
  167MOL   H13123703   3.562   1.397   0.235 -1.6637  0.4736 -0.2981
  167MOL   H13223704   3.423   1.296   0.241  0.1965  1.3116  0.2771
  167MOL   H13323705   3.492   1.244   0.483 -0.7842  0.1434 -0.5922
  167MOL   H13423706   3.463   1.406   0.464 -0.3715 -1.2017  0.4317
  167MOL   C13523707   3.693   1.503   0.444 -0.5408  0.3548  0.0323
  167MOL   C13623708   3.807   1.552   0.538  0.6989  0.2216  0.2014
  167MOL   O13723709   3.768   1.620   0.662  0.3822  0.3134  0.8158
  167MOL   H13823710   3.721   1.525   0.341  2.7443 -0.8029  0.6252
  167MOL   H13923711   3.604   1.563   0.466 -0.2983  1.5369 -2.1833
  167MOL   H14023712   3.867   1.615   0.472 -2.0640 -0.9541 -3.6556
  167MOL   H14123713   3.881   1.477   0.566 -0.2146 -0.5296  0.6339
  167MOL   H14223714   3.712   1.566   0.715  0.0672  0.7243  0.9069
  168MOL     C123715   7.030   3.381   5.636 -0.3091  0.3085 -0.2406
  168MOL     C223716   7.117   3.276   5.705  0.1787  0.1502 -0.1252
  168MOL     O323717   7.142   3.304   5.843 -0.4743  0.2017 -0.3474
  168MOL     H423718   7.009   3.362   5.531  0.2625  1.5962 -0.5905
  168MOL     H523719   7.057   3.486   5.651  1.5193  0.0659 -1.6896
  168MOL     H623720   7.211   3.266   5.651 -1.5349 -1.6457 -2.8855
  168MOL     H723721   7.066   3.180   5.703  0.5871 -0.0627 -0.4597
  168MOL     H823722   6.932   3.366   5.681  0.0800 -3.6230 -0.5276
  168MOL     C923723   7.250   3.390   5.872 -0.5736 -0.6199  0.3616
  168MOL    C1023724   7.252   3.427   6.014  0.3640 -0.6080  0.4999
  168MOL    O1123725   7.176   3.542   6.025  0.2831 -0.6319  0.0305
  168MOL    H1223726   7.334   3.333   5.833 -1.9284 -1.3528 -1.5697
  168MOL    H1323727   7.241   3.483   5.816  0.4812 -0.6282  0.1648
  168MOL    H1423728   7.353   3.438   6.053  0.8009 -0.5270 -0.6424
  168MOL    H1523729   7.218   3.351   6.085  0.2612 -0.0108  1.1031
  168MOL    C1623730   7.195   3.598   6.156  0.1400  0.2079 -0.3810
  168MOL    C1723731   7.085   3.701   6.189 -0.1990  0.0618  0.2205
  168MOL    O1823732   7.133   3.796   6.293 -0.4521  0.2073 -0.1553
  168MOL    H1923733   7.189   3.521   6.233  1.1304 -0.3108 -0.8099
  168MOL    H2023734   7.297   3.637   6.159 -0.2279  1.0776  1.9546
  168MOL    H2123735   7.004   3.645   6.236 -0.0018 -1.4472 -1.1952
  168MOL    H2223736   7.040   3.734   6.096 -1.9190  0.6982  1.2443
  168MOL    C2323737   7.039   3.883   6.339  0.3302 -0.1775 -0.3145
  168MOL    C2423738   7.109   3.999   6.413 -1.0261 -0.0169 -0.1706
  168MOL    O2523739   7.172   4.075   6.314 -0.2043  0.0725  0.4001
  168MOL    H2623740   6.971   3.924   6.265  0.7952  0.1183 -0.5811
  168MOL    H2723741   6.987   3.821   6.412 -1.0117  0.5730 -0.6132
  168MOL    H2823742   7.178   3.959   6.487 -2.1041 -1.5025  0.0598
  168MOL    H2923743   7.030   4.059   6.457 -0.7507  1.2388 -1.3339
  168MOL    C3023744   7.163   4.217   6.325  0.3221  0.0615 -0.0003
  168MOL    C3123745   7.268   4.291   6.244 -0.2188 -0.7272  0.3877
  168MOL    O3223746   7.386   4.289   6.310  0.1028 -0.7311 -0.3852
  168MOL    H3323747   7.057   4.232   6.307  0.1912 -1.1814 -0.2981
  168MOL    H3423748   7.176   4.246   6.429 -1.1767 -1.2439  0.5732
  168MOL    H3523749   7.248   4.397   6.228  0.3190 -0.8140 -0.9010
  168MOL    H3623750   7.252   4.235   6.153 -1.2414  2.8350 -1.7447
  168MOL    C3723751   7.493   4.333   6.223  0.7572  0.7298  0.7839
  168MOL    C3823752   7.628   4.298   6.294 -0.0052  0.2257  0.0668
  168MOL    O3923753   7.731   4.357   6.213  0.3283  0.4964  0.1687
  168MOL    H4023754   7.487   4.284   6.126  2.2313  2.8604 -0.4360
  168MOL    H4123755   7.488   4.438   6.191 -1.5396 -0.0927 -1.8255
  168MOL    H4223756   7.642   4.190   6.293  0.2196  0.2559 -0.2105
  168MOL    H4323757   7.613   4.336   6.395  0.8694 -1.4488  0.8454
  168MOL    C4423758   0.089   4.349   6.272  0.2385  0.2782  0.4287
  168MOL    C4523759   0.180   4.396   6.160  0.0682  0.1524  0.0769
  168MOL    O4623760   0.185   4.536   6.144 -0.6411 -0.0517 -0.5479
  168MOL    H4723761   0.099   4.422   6.352 -1.3921  3.0988 -1.8128
  168MOL    H4823762   0.121   4.249   6.301 -0.4597  0.5001  2.0062
  168MOL    H4923763   0.156   4.346   6.067  0.4934  0.7273 -0.3466
  168MOL    H5023764   0.278   4.353   6.186  1.0945  3.6893  2.3935
  168MOL    C5123765   0.287   4.587   6.058  0.7319 -0.4511  0.1445
  168MOL    C5223766   0.271   4.740   6.045  0.6821 -0.2384  0.1123
  168MOL    O5323767   0.276   4.806   6.174  0.1232 -0.8562 -0.6922
  168MOL    H5423768   0.381   4.553   6.103  1.5372  0.5174 -0.7733
  168MOL    H5523769   0.275   4.555   5.955 -0.5615  2.1141 -0.5325
  168MOL    H5623770   0.179   4.768   5.992 -0.1276  0.6394  1.9265
  168MOL    H5723771   0.349   4.788   5.986 -0.6028  0.2129 -1.2902
  168MOL    C5823772   0.252   4.949   6.176 -0.0753 -0.1752  0.0233
  168MOL    C5923773   0.285   5.004   6.316 -0.8189  0.3483 -0.5465
  168MOL    O6023774   0.168   5.026   6.396 -0.1033  0.2336 -0.8173
  168MOL    H6123775   0.313   5.005   6.105 -0.9544  3.0373  1.6988
  168MOL    H6223776   0.152   4.977   6.142  0.3461  2.6797  0.9911
  168MOL    H6323777   0.361   5.083   6.316  0.6589 -1.0455  0.3384
  168MOL    H6423778   0.345   4.926   6.362 -1.8867  1.1449  2.2842
  168MOL    C6523779   0.193   4.997   6.532  0.0533  0.7084 -0.2020
  168MOL    C6623780   0.159   4.853   6.556 -0.5405 -0.7818 -0.4018
  168MOL    O6723781   0.030   4.827   6.502 -0.3186  0.3324  0.7130
  168MOL    H6823782   0.299   5.015   6.552  0.3538 -1.6630  0.5481
  168MOL    H6923783   0.141   5.076   6.586  0.6269  0.7579  0.2797
  168MOL    H7023784   0.152   4.853   6.664  0.3117 -1.5445 -0.3394
  168MOL    H7123785   0.239   4.785   6.528 -0.9078 -0.9150 -1.1604
  168MOL    C7223786   7.768   4.693   6.490  0.9294  0.1639  0.1587
  168MOL    C7323787   7.623   4.659   6.463 -0.6541 -0.0549  0.7890
  168MOL    O7423788   7.565   4.651   6.592 -0.7585  0.2061  0.3747
  168MOL    H7523789   0.036   4.645   6.400  0.5950 -2.0010  1.1450
  168MOL    H7623790   0.034   4.633   6.573 -0.6727 -1.4468 -0.2543
  168MOL    H7723791   7.618   4.566   6.407  1.4763  0.2831 -0.0375
  168MOL    H7823792   7.582   4.738   6.400  0.5940 -0.4512 -0.5619
  168MOL    C7923793   7.535   4.767   6.668 -0.3548 -0.3384  0.5074
  168MOL    C8023794   7.449   4.722   6.788 -0.6476  0.4130 -0.3566
  168MOL    O8123795   7.533   4.655   6.881 -0.5083  0.0147 -0.3320
  168MOL    H8223796   7.633   4.793   6.709 -0.1376 -0.3304 -0.0093
  168MOL    H8323797   7.493   4.841   6.601 -2.2353 -1.9349 -0.1146
  168MOL    H8423798   7.372   4.655   6.749  1.0186 -2.4241  1.0393
  168MOL    H8523799   7.391   4.798   6.840 -1.6665 -1.9511  2.1041
  168MOL    C8623800   7.576   4.735   6.991 -0.7398  0.2721  0.2944
  168MOL    C8723801   7.720   4.701   7.023  0.1646  0.2749  0.8124
  168MOL    O8823802   7.730   4.572   7.071  0.6356  0.7080 -0.0064
  168MOL    H8923803   7.585   4.838   6.957  1.5902 -0.5573 -1.7257
  168MOL    H9023804   7.500   4.736   7.069 -2.1133 -1.5408 -0.9758
  168MOL    H9123805   7.760   4.772   7.095 -1.4916  1.3670  0.6915
  168MOL    H9223806   0.004   4.704   6.929 -1.1915 -0.8611 -0.0429
  168MOL    C9323807   0.093   4.534   7.102  0.0788 -0.0197  0.3174
  168MOL    C9423808   0.097   4.412   7.189 -0.0882 -0.6670 -0.0223
  168MOL    O9523809   0.120   4.450   7.324  0.5690 -0.1176  0.1329
  168MOL    H9623810   0.149   4.512   7.011  0.7198  1.7763  0.2552
  168MOL    H9723811   0.149   4.615   7.148  0.8996  0.4147 -1.4244
  168MOL    H9823812   0.186   4.360   7.154  0.0893  0.2645 -0.9871
  168MOL    H9923813   0.022   4.334   7.175 -0.6748 -0.6123  2.5314
  168MOL   C10023814   0.114   4.343   7.413 -0.3614 -0.5635  0.1720
  168MOL   C10123815   0.251   4.267   7.412  0.9742  0.7944  0.1329
  168MOL   O10223816   0.362   4.326   7.479 -0.4661 -0.4326 -0.3051
  168MOL   H10323817   0.091   4.371   7.516 -1.1016 -0.5941  0.0191
  168MOL   H10423818   0.029   4.283   7.381 -0.1315 -1.0128  0.4087
  168MOL   H10523819   0.289   4.242   7.312  2.9733  0.8345  0.8600
  168MOL   H10623820   0.237   4.163   7.443  2.2702  0.6926  0.4349
  168MOL   C10723821   0.429   4.429   7.411  0.2920 -0.0608  0.4171
  168MOL   C10823822   0.568   4.446   7.470 -0.3752 -0.6284  0.2276
  168MOL   O10923823   0.657   4.345   7.447 -0.3773 -0.3951 -0.8498
  168MOL   H11023824   0.429   4.418   7.303  1.7778 -0.1684  0.4283
  168MOL   H11123825   0.377   4.525   7.420 -1.1594 -0.6810 -1.0555
  168MOL   H11223826   0.558   4.471   7.575  2.2029 -1.2585  0.6569
  168MOL   H11323827   0.620   4.529   7.423 -0.7020 -0.7217 -0.3103
  168MOL   C11423828   0.780   4.342   7.524 -0.1103 -0.1892 -0.4509
  168MOL   C11523829   0.874   4.234   7.490 -0.0616  0.0574  0.2100
  168MOL   O11623830   0.823   4.115   7.543 -0.4629  0.3483 -0.0316
  168MOL   H11723831   0.828   4.438   7.501  0.4123 -0.4129 -0.3043
  168MOL   H11823832   0.750   4.329   7.628  0.1413 -2.7851 -0.6732
  168MOL   H11923833   0.973   4.264   7.526 -0.9890  2.9266  0.5068
  168MOL   H12023834   0.875   4.227   7.382 -1.7898 -1.9593  0.3057
  168MOL   C12123835   0.916   4.013   7.567 -0.4809  0.2051 -0.7980
  168MOL   C12223836   0.879   3.906   7.667 -0.0872  0.0502 -0.0697
  168MOL   O12323837   0.817   3.965   0.012  0.8823 -0.5475 -0.2467
  168MOL   H12423838   0.946   3.966   7.473  1.0241 -0.3141 -0.0757
  168MOL   H12523839   1.003   4.064   7.609 -2.0811  0.8236  1.8784
  168MOL   H12623840   0.967   3.843   7.675  0.9784  1.5094 -0.1753
  168MOL   H12723841   0.809   3.842   7.612  0.2999  0.4705 -1.0581
  168MOL   C12823842   0.891   4.058   0.088  0.3431  0.6500 -0.0193
  168MOL   C12923843   0.840   4.068   0.237 -0.1012  0.3816 -0.1703
  168MOL   O13023844   0.887   3.966   0.324  0.3240 -0.4762  0.3777
  168MOL   H13123845   0.997   4.038   0.071 -0.1116 -1.7997 -0.0449
  168MOL   H13223846   0.865   4.156   0.047  0.2306  0.5062 -0.2876
  168MOL   H13323847   0.731   4.061   0.244  0.0718 -1.1350  1.3129
  168MOL   H13423848   0.862   4.162   0.288 -1.8551  2.0056 -2.3100
  168MOL   C13523849   0.869   3.820   0.289 -0.0599 -0.7238  0.6224
  168MOL   C13623850   0.726   3.777   0.286  0.5438 -0.3372 -0.4717
  168MOL   O13723851   0.673   3.772   0.418 -0.5399  0.7679 -0.1406
  168MOL   H13823852   0.920   3.795   0.196  1.8262 -1.3267  1.7960
  168MOL   H13923853   0.924   3.758   0.360 -0.3024  0.2320  1.6478
  168MOL   H14023854   0.730   3.681   0.236  0.5050  0.1246 -1.3732
  168MOL   H14123855   0.658   3.835   0.224  0.3763 -1.2010 -1.0978
  168MOL   H14223856   0.659   3.864   0.436 -1.6856  0.7649 -0.9316
  169MOL     C123857   0.864   2.073   2.846  0.1974 -0.5052  0.4813
  169MOL     C223858   0.728   2.078   2.901  0.0771 -0.2003 -0.6015
  169MOL     O323859   0.638   2.022   2.804 -1.0081  0.5395 -0.0780
  169MOL     H423860   0.903   1.972   2.852  0.6212 -0.3502  0.3377
  169MOL     H523861   0.931   2.125   2.914  0.2166  2.3386 -1.5644
  169MOL     H623862   0.708   2.185   2.909  0.8613 -0.1776  1.1996
  169MOL     H723863   0.728   2.038   3.002  1.2681  0.9571 -0.1353
  169MOL     H823864   0.865   2.118   2.746 -1.8880 -0.9131  0.2542
  169MOL     C923865   0.520   1.990   2.867 -0.8056 -0.4048  0.3917
  169MOL    C1023866   0.422   2.112   2.853  0.3443  0.0280 -0.4797
  169MOL    O1123867   0.292   2.060   2.882 -0.2838  0.2440 -0.1815
  169MOL    H1223868   0.492   1.903   2.808  3.2844 -0.7068 -1.2767
  169MOL    H1323869   0.526   1.970   2.974  1.3921  0.4068  0.4421
  169MOL    H1423870   0.415   2.164   2.758 -1.5307  1.1054  0.2127
  169MOL    H1523871   0.434   2.184   2.935  0.4958 -0.6331  0.0907
  169MOL    C1623872   0.194   2.159   2.892  0.3036  0.0244 -0.3621
  169MOL    C1723873   0.201   2.245   3.025 -0.3852 -0.7287  0.6036
  169MOL    O1823874   0.145   2.161   3.125  0.2851  0.6040 -0.0088
  169MOL    H1923875   0.202   2.213   2.798 -1.5080  1.0010  0.0091
  169MOL    H2023876   0.096   2.111   2.884  0.2135  0.3517 -1.2438
  169MOL    H2123877   0.144   2.337   3.010 -0.1183 -0.4370  1.3431
  169MOL    H2223878   0.299   2.275   3.062 -0.1904  0.9368 -1.1517
  169MOL    C2323879   0.237   2.079   3.189  0.3232 -0.1467 -0.5989
  169MOL    C2423880   0.156   2.016   3.309 -0.1676  0.3547 -0.3198
  169MOL    O2523881   0.133   2.105   3.412 -0.2952  0.0450  0.2536
  169MOL    H2623882   0.275   1.996   3.129  0.5174 -1.4359  1.2767
  169MOL    H2723883   0.318   2.140   3.229 -0.8709  0.2108  1.3102
  169MOL    H2823884   0.221   1.934   3.340  0.6637  1.3825  0.6594
  169MOL    H2923885   0.063   1.971   3.273 -0.4736  1.1938 -0.6039
  169MOL    C3023886   0.050   2.053   3.514  0.5526  0.4698  0.4879
  169MOL    C3123887   0.001   2.157   3.610 -0.0820 -0.2218  0.3063
  169MOL    O3223888   0.111   2.189   3.698 -0.5674  0.3426  0.0715
  169MOL    H3323889   7.727   2.018   3.471  1.4910  0.1627 -1.3508
  169MOL    H3423890   0.098   1.967   3.559  1.3439  2.0583  2.7337
  169MOL    H3523891   7.695   2.121   3.677  0.4308 -1.2740  0.3461
  169MOL    H3623892   7.744   2.254   3.570 -1.9046 -0.7080  0.3714
  169MOL    C3723893   0.079   2.283   3.803 -0.4344 -0.2272 -0.3783
  169MOL    C3823894   0.143   2.237   3.945 -0.0614 -0.2012 -0.3718
  169MOL    O3923895   0.062   2.147   4.015  0.2341 -0.7385 -0.1593
  169MOL    H4023896   0.118   2.379   3.772  0.1203 -0.4644 -0.4147
  169MOL    H4123897   7.745   2.311   3.815 -0.1615 -0.5329  3.1549
  169MOL    H4223898   0.149   2.330   4.001  4.3079 -0.2059 -0.7352
  169MOL    H4323899   0.235   2.184   3.920  0.7893  0.9067  0.4194
  169MOL    C4423900   0.004   2.032   3.953  0.3280  0.1599  0.7320
  169MOL    C4523901   7.690   1.981   4.060 -0.2007 -0.6809  0.4453
  169MOL    O4623902   7.601   1.893   4.015  0.4288  0.4292  0.4477
  169MOL    H4723903   7.706   2.063   3.874  0.3227 -2.8644 -0.5323
  169MOL    H4823904   0.070   1.958   3.909 -0.9907 -1.5475  1.5543
  169MOL    H4923905   7.636   2.069   4.096 -0.0174 -0.5678  0.4416
  169MOL    H5023906   7.748   1.940   4.142  0.3551  0.1921  0.5001
  169MOL    C5123907   7.513   1.854   4.119 -0.5180  0.4891 -0.6614
  169MOL    C5223908   7.391   1.786   4.050  0.0153  0.3853 -0.6209
  169MOL    O5323909   7.291   1.754   4.144  0.5393  0.1814 -0.1033
  169MOL    H5423910   7.564   1.789   4.189 -0.7700 -1.0525 -1.8805
  169MOL    H5523911   7.473   1.933   4.182  2.7541 -1.6137  4.3655
  169MOL    H5623912   7.425   1.699   3.993  0.1929 -0.3441  0.5714
  169MOL    H5723913   7.349   1.859   3.981 -2.0744 -1.6281 -1.5178
  169MOL    C5823914   7.159   1.736   4.097 -0.0658 -0.2965  0.2598
  169MOL    C5923915   7.063   1.739   4.212 -0.4048  0.1389  0.7622
  169MOL    O6023916   7.090   1.653   4.323  0.3445  0.5287 -0.5566
  169MOL    H6123917   7.136   1.814   4.024  1.5264  1.4617  1.6217
  169MOL    H6223918   7.133   1.646   4.041 -1.4980  0.9129 -1.0825
  169MOL    H6323919   6.969   1.717   4.162  0.1069 -0.2162 -0.0436
  169MOL    H6423920   7.042   1.837   4.253 -2.4070  0.2030 -0.3519
  169MOL    C6523921   7.074   1.513   4.301 -0.4623 -0.2415 -0.3258
  169MOL    C6623922   7.125   1.426   4.422  0.2589 -0.0134 -1.0586
  169MOL    O6723923   7.051   1.445   4.544 -0.5295  0.2931 -0.3237
  169MOL    H6823924   6.973   1.481   4.276  0.8273 -4.0850 -0.9427
  169MOL    H6923925   7.119   1.476   4.209 -1.5592 -1.9861 -0.1762
  169MOL    H7023926   7.227   1.455   4.446 -0.1974  0.4519  0.3541
  169MOL    H7123927   7.122   1.319   4.402 -0.3036 -0.1108 -0.4935
  169MOL    C7223928   7.119   1.391   4.659 -0.0444  0.3343  0.2791
  169MOL    C7323929   7.091   1.451   4.801 -0.4354 -0.1758  0.2240
  169MOL    O7423930   6.999   1.363   4.866 -0.3951 -0.5646 -0.5236
  169MOL    H7523931   7.099   1.284   4.656 -0.9670  0.5307 -0.8571
  169MOL    H7623932   7.226   1.403   4.644  0.2589 -2.6201 -0.2552
  169MOL    H7723933   7.048   1.550   4.796 -1.2297 -0.6016 -2.0059
  169MOL    H7823934   7.187   1.454   4.852 -1.1847 -0.3746  1.6780
  169MOL    C7923935   6.864   1.375   4.819  0.0483 -0.1562 -1.0522
  169MOL    C8023936   6.791   1.486   4.896  0.1684 -0.0445 -0.8820
  169MOL    O8123937   6.752   1.433   5.026  0.1492  0.7219  0.3140
  169MOL    H8223938   6.865   1.402   4.714 -0.8728  0.4504 -0.9160
  169MOL    H8323939   6.816   1.277   4.820  0.6177 -0.4381 -1.1451
  169MOL    H8423940   6.701   1.498   4.835  0.0218 -0.5223 -0.7627
  169MOL    H8523941   6.847   1.579   4.891  0.7853 -0.4345 -1.3589
  169MOL    C8623942   6.845   1.454   5.137  0.0784 -0.1592 -0.1315
  169MOL    C8723943   6.761   1.390   5.250 -0.4995  0.1554 -0.1119
  169MOL    O8823944   6.772   1.244   5.253 -0.2444  0.6135 -0.0470
  169MOL    H8923945   6.938   1.401   5.115  0.2485  0.2683 -0.4541
  169MOL    H9023946   6.856   1.562   5.140  0.4829 -0.1103 -2.2552
  169MOL    H9123947   6.659   1.428   5.257  0.3955  2.8294 -1.0474
  169MOL    H9223948   6.817   1.418   5.339  1.1472 -2.7506 -0.1690
  169MOL    C9323949   6.709   1.182   5.366 -0.3312 -0.5404  0.3867
  169MOL    C9423950   6.774   1.214   5.499  0.2174  0.0479 -0.7293
  169MOL    O9523951   6.716   1.338   5.545  0.6714 -0.4157  0.4381
  169MOL    H9623952   6.603   1.208   5.367  0.0701  1.1825  1.8095
  169MOL    H9723953   6.707   1.075   5.349  1.7394 -0.6460  0.6209
  169MOL    H9823954   6.883   1.213   5.485  0.1520  0.5363 -1.2664
  169MOL    H9923955   6.752   1.127   5.561  1.2354 -1.2340 -2.1237
  169MOL   C10023956   6.777   1.380   5.666 -0.0505  0.2481 -0.0898
  169MOL   C10123957   6.917   1.443   5.649  0.0395 -0.9009 -0.6019
  169MOL   O10223958   7.019   1.348   5.627  0.0629 -0.1058 -0.3900
  169MOL   H10323959   6.724   1.467   5.705  0.3725 -1.0103  3.4989
  169MOL   H10423960   6.773   1.305   5.745  0.6304  1.4551  1.1106
  169MOL   H10523961   6.957   1.503   5.731  1.5006 -0.9495 -1.2654
  169MOL   H10623962   6.918   1.511   5.564 -1.7302  2.2485  1.7752
  169MOL   C10723963   7.062   1.289   5.749 -0.8747  0.5212  0.2647
  169MOL   C10823964   7.179   1.196   5.718  0.3146 -0.2965  0.2780
  169MOL   O10923965   7.125   1.100   5.631 -0.9676 -1.0734  0.3478
  169MOL   H11023966   7.082   1.370   5.819 -2.2020  1.8408 -0.8496
  169MOL   H11123967   6.985   1.227   5.794 -0.4081 -0.5207 -0.3604
  169MOL   H11223968   7.226   1.149   5.804  0.4780  1.9589  1.4488
  169MOL   H11323969   7.254   1.256   5.667 -1.1183  0.8449 -0.5597
  169MOL   C11423970   7.212   1.035   5.534  0.0335 -0.3801 -0.1275
  169MOL   C11523971   7.134   0.964   5.426  0.0884 -0.1180  0.1446
  169MOL   O11623972   7.072   0.854   5.486  0.3412  0.2403 -0.2274
  169MOL   H11723973   7.274   1.115   5.494 -0.6249 -0.4521 -1.3048
  169MOL   H11823974   7.275   0.959   5.581  2.0458  1.7367  0.7228
  169MOL   H11923975   7.187   0.934   5.335 -1.6737 -1.2968 -0.5187
  169MOL   H12023976   7.060   1.034   5.389  1.8483  1.0745 -1.2252
  169MOL   C12123977   6.975   0.784   5.406  0.4529  0.6363  0.2307
  169MOL   C12223978   6.954   0.632   5.449  0.5786 -0.6605  0.0043
  169MOL   O12323979   7.031   0.542   5.366  0.1539  0.5708  0.5436
  169MOL   H12423980   6.880   0.836   5.417  0.9455  1.5442  0.2072
  169MOL   H12523981   7.008   0.792   5.303 -0.0777 -0.7474 -0.0612
  169MOL   H12623982   6.847   0.614   5.434  1.1114 -2.6449 -1.5438
  169MOL   H12723983   6.970   0.612   5.555 -0.2408 -0.0021  0.2598
  169MOL   C12823984   6.991   0.400   5.364 -0.4300 -1.2302 -0.0586
  169MOL   C12923985   7.069   0.336   5.249  0.2887  0.2046  0.4550
  169MOL   O13023986   7.024   0.377   5.116  0.1178 -0.0308  1.3229
  169MOL   H13123987   7.015   0.363   5.464 -2.9989 -1.3414  0.5624
  169MOL   H13223988   6.882   0.392   5.356 -0.5930  1.5943 -1.3312
  169MOL   H13323989   7.057   0.227   5.251  1.1976  0.0674 -0.7762
  169MOL   H13423990   7.178   0.337   5.253  0.2204  1.1765  2.4316
  169MOL   C13523991   7.100   0.483   5.067 -0.3195 -0.2208  0.3826
  169MOL   C13623992   7.020   0.560   4.953 -0.0880 -0.4525  0.0467
  169MOL   O13723993   7.090   0.674   4.902  0.1060  0.5895 -0.4139
  169MOL   H13823994   7.129   0.564   5.134 -1.7819  1.9404 -1.5107
  169MOL   H13923995   7.193   0.442   5.027 -0.7803 -0.0984 -0.8557
  169MOL   H14023996   6.926   0.587   5.001 -0.1845 -0.5416 -0.0937
  169MOL   H14123997   6.986   0.500   4.869 -0.1282  0.6436 -0.7238
  169MOL   H14223998   7.045   0.747   4.941 -0.3769 -0.3096  0.7305
  170MOL     C123999   0.671   1.487   1.256 -0.6913  0.2644 -0.5859
  170MOL     C224000   0.651   1.604   1.150 -0.3860  0.8623 -0.4614
  170MOL     O324001   0.714   1.569   1.029  0.0295 -0.3028  0.1618
  170MOL     H424002   0.645   1.516   1.358  1.0571  1.3915 -0.4370
  170MOL     H524003   0.773   1.449   1.261 -1.5079 -2.0836 -1.3236
  170MOL     H624004   0.691   1.690   1.204  2.9909 -1.2061  0.5034
  170MOL     H724005   0.545   1.612   1.130 -1.2818  0.2563  3.5482
  170MOL     H824006   0.602   1.407   1.229 -0.6085 -0.2311  0.6567
  170MOL     C924007   0.714   1.666   0.929 -0.4163 -0.3504  0.6488
  170MOL    C1024008   0.831   1.648   0.833  0.2996 -0.2592 -0.2449
  170MOL    O1124009   0.781   1.632   0.698  0.0592 -0.2141 -0.3548
  170MOL    H1224010   0.624   1.671   0.868  0.5044 -1.5083 -0.8156
  170MOL    H1324011   0.719   1.770   0.962 -1.8574  0.4845 -1.6116
  170MOL    H1424012   0.881   1.557   0.866  1.1767  0.3209  0.0486
  170MOL    H1524013   0.902   1.730   0.847 -0.2061 -0.0801  1.4095
  170MOL    C1624014   0.764   1.504   0.656  0.0443 -0.6777  0.0879
  170MOL    C1724015   0.697   1.500   0.521  0.5243  0.6195  0.1894
  170MOL    O1824016   0.783   1.553   0.420  0.1022 -0.3860 -0.4814
  170MOL    H1924017   0.858   1.449   0.649 -0.5325 -1.7649  0.6709
  170MOL    H2024018   0.703   1.451   0.730 -0.3952 -0.5739 -0.1978
  170MOL    H2124019   0.592   1.527   0.516  0.2048 -1.0230 -3.2096
  170MOL    H2224020   0.688   1.395   0.495 -0.6748  1.0564 -1.1735
  170MOL    C2324021   0.731   1.543   0.289 -0.2570 -0.7424 -0.0886
  170MOL    C2424022   0.837   1.594   0.193 -0.8598  0.2243 -0.0383
  170MOL    O2524023   0.833   1.556   0.056  0.1069 -0.2736 -0.2399
  170MOL    H2624024   0.708   1.440   0.261  1.5913 -1.3306  0.4824
  170MOL    H2724025   0.635   1.594   0.278  0.3385  0.5666  0.5874
  170MOL    H2824026   0.931   1.558   0.234 -1.6599 -2.1648 -0.1853
  170MOL    H2924027   0.834   1.703   0.195  0.0514  0.2645 -0.8702
  170MOL    C3024028   0.868   1.423   0.030 -0.3938  0.4544 -0.3670
  170MOL    C3124029   0.891   1.401   7.653  0.2381  0.5054  0.0018
  170MOL    O3224030   1.021   1.431   7.606 -0.1317 -0.0035  0.3602
  170MOL    H3324031   0.962   1.404   0.081 -1.1002 -1.4740  0.2391
  170MOL    H3424032   0.789   1.357   0.065  1.3844 -2.8437 -2.3915
  170MOL    H3524033   0.832   1.471   7.593 -0.4953 -0.7433 -0.7469
  170MOL    H3624034   0.861   1.305   7.611 -0.5962  0.7548 -0.0007
  170MOL    C3724035   1.044   1.411   7.465 -0.4127  0.0527  0.0299
  170MOL    C3824036   1.195   1.406   7.431 -0.6305 -0.1740 -0.5433
  170MOL    O3924037   1.268   1.522   7.460 -0.3980 -0.0418 -0.3250
  170MOL    H4024038   0.998   1.322   7.423 -0.5365 -0.1630  0.6096
  170MOL    H4124039   0.996   1.501   7.427  0.6035  1.1554  1.2800
  170MOL    H4224040   1.206   1.401   7.323 -1.1077  2.4059 -0.7394
  170MOL    H4324041   1.236   1.317   7.480  0.5143  0.9097  0.4960
  170MOL    C4424042   1.402   1.488   7.482 -0.5221  0.0773 -0.3011
  170MOL    C4524043   1.467   1.616   7.528 -0.4899  0.4491  0.1506
  170MOL    O4624044   1.609   1.571   7.547 -0.3371  0.1921 -0.1904
  170MOL    H4724045   1.421   1.419   7.565 -0.2708 -0.7779 -1.0703
  170MOL    H4824046   1.459   1.452   7.397  1.3318  0.0157  0.9393
  170MOL    H4924047   1.440   1.654   7.627 -1.2610  1.6945 -0.5229
  170MOL    H5024048   1.449   1.704   7.466  2.9001  1.8440  1.0450
  170MOL    C5124049   1.698   1.683   7.540  0.4046  0.0061  0.1286
  170MOL    C5224050   1.673   1.788   7.655  0.1245 -0.4610  0.5386
  170MOL    O5324051   1.558   1.861   7.630  0.3512 -0.3744  0.1845
  170MOL    H5424052   1.794   1.633   7.544  0.4186  0.0781  0.7140
  170MOL    H5524053   1.696   1.730   7.442  3.7806 -2.1036 -1.0217
  170MOL    H5624054   1.751   1.860   7.677  1.5679 -1.9944  0.5841
  170MOL    H5724055   1.657   1.744   7.754 -0.2044  1.3319  1.3027
  170MOL    C5824056   1.500   1.912   7.756  0.6078 -0.4506  0.1075
  170MOL    C5924057   1.443   2.054   7.720 -0.1547  0.4374 -0.5999
  170MOL    O6024058   1.546   2.155   7.722  0.0324  0.8394  0.6264
  170MOL    H6124059   1.419   1.845   0.011 -1.0560  0.8118 -1.6311
  170MOL    H6224060   1.563   1.909   0.074  2.1231 -2.4961 -0.9927
  170MOL    H6324061   1.375   2.063   0.034  2.6570  0.0320  1.7481
  170MOL    H6424062   1.381   2.051   7.630 -1.4844  0.5861  0.2808
  170MOL    C6524063   1.531   2.244   7.613 -0.0822 -0.8657  0.3406
  170MOL    C6624064   1.401   2.322   7.629 -0.3071  0.8075 -0.3192
  170MOL    O6724065   1.289   2.255   7.562 -0.6139 -0.8057 -0.0005
  170MOL    H6824066   1.621   2.305   7.604 -0.1638 -0.9466 -1.0969
  170MOL    H6924067   1.534   2.198   7.515  1.8448  0.5871 -0.3076
  170MOL    H7024068   1.415   2.423   7.591 -2.6270  1.5939  0.7784
  170MOL    H7124069   1.383   2.342   7.735  1.2863 -0.7141  0.2555
  170MOL    C7224070   1.176   2.341   7.531 -0.1115 -1.0121  0.8385
  170MOL    C7324071   1.123   2.401   7.662  0.1343 -0.7390  0.1195
  170MOL    O7424072   1.196   2.516   7.694 -0.2193  0.0765  0.2945
  170MOL    H7524073   1.198   2.423   7.463 -1.1299  0.9998  2.8403
  170MOL    H7624074   1.098   2.290   7.474  0.8094  0.5857 -1.9372
  170MOL    H7724075   1.127   2.326   7.741 -0.4038 -0.2097  0.6560
  170MOL    H7824076   1.018   2.425   7.648  0.2005 -0.4467  0.1340
  170MOL    C7924077   1.156   2.629   7.626  0.3809 -0.4510  0.3663
  170MOL    C8024078   1.235   2.752   7.679  0.2272 -0.0500  0.1769
  170MOL    O8124079   1.377   2.762   7.666  0.0872 -0.0834  0.2426
  170MOL    H8224080   1.162   2.627   7.517 -0.6473  3.0834  0.2040
  170MOL    H8324081   1.052   2.656   7.645  0.5861  0.1375  0.6492
  170MOL    H8424082   1.208   2.757   0.014  2.5549 -1.2415  0.8430
  170MOL    H8524083   1.200   2.839   7.624 -0.2063  0.3410  1.0587
  170MOL    C8624084   1.454   2.694   7.768  0.1305  0.1210  0.6745
  170MOL    C8724085   1.591   2.690   7.710 -0.2896  0.2434 -0.0422
  170MOL    O8824086   1.670   2.808   7.743  0.3901  0.2332  0.8607
  170MOL    H8924087   1.472   2.749   0.089  2.6160 -2.0654  1.5672
  170MOL    H9024088   1.417   2.592   0.010 -1.8438  0.8804  1.1336
  170MOL    H9124089   1.585   2.653   7.608 -0.7868 -1.6211  0.6431
  170MOL    H9224090   1.651   2.613   7.760 -0.5872 -0.3596 -0.6062
  170MOL    C9324091   1.662   2.905   7.640  0.8186  0.7417 -0.4027
  170MOL    C9424092   1.776   2.865   7.541 -0.2057  0.3836 -0.6520
  170MOL    O9524093   1.731   2.782   7.434 -0.2172 -0.0541  0.2489
  170MOL    H9624094   1.563   2.912   7.594 -1.2028  0.7634  3.6988
  170MOL    H9724095   1.687   3.004   7.678  0.1222  0.4117  0.9096
  170MOL    H9824096   1.855   2.816   7.598  0.7720  1.7446 -0.8286
  170MOL    H9924097   1.817   2.953   7.492  2.6922 -0.8605 -0.5241
  170MOL   C10024098   1.804   2.786   7.314  0.5675  0.2648 -0.5797
  170MOL   C10124099   1.765   2.907   7.232  0.0152  0.2867 -0.3220
  170MOL   O10224100   1.840   3.027   7.262  0.0775  0.0169  0.3057
  170MOL   H10324101   1.911   2.772   7.325  0.4016 -0.0586  0.7297
  170MOL   H10424102   1.783   2.696   7.256 -0.1417 -0.1841  0.3544
  170MOL   H10524103   1.662   2.934   7.254  1.0741  1.8966  3.0005
  170MOL   H10624104   1.777   2.898   7.124  2.1736 -1.0742  0.0050
  170MOL   C10724105   1.790   3.137   7.190  0.7954  0.3480  0.4859
  170MOL   C10824106   1.904   3.242   7.188  0.3910 -0.5073  0.2267
  170MOL   O10924107   1.919   3.322   7.301 -0.8781  1.0054  0.0501
  170MOL   H11024108   1.747   3.112   7.093  2.0331 -1.7245  0.4539
  170MOL   H11124109   1.712   3.182   7.252 -0.0813 -0.2864 -0.1515
  170MOL   H11224110   1.873   3.310   7.108 -0.3454  0.9250  1.6999
  170MOL   H11324111   2.002   3.199   7.166 -0.2043 -1.4370 -0.6146
  170MOL   C11424112   1.953   3.243   7.411  0.5411 -0.1554  0.0822
  170MOL   C11524113   2.000   3.345   7.513 -0.0757 -0.3346  0.2715
  170MOL   O11624114   2.131   3.386   7.488  0.4635 -0.1889  0.2421
  170MOL   H11724115   1.857   3.203   7.443 -0.0825  1.7210  0.6312
  170MOL   H11824116   2.018   3.156   7.409  0.5614 -0.1382 -0.0085
  170MOL   H11924117   1.989   3.310   7.616 -0.5798  1.0294  0.7042
  170MOL   H12024118   1.943   3.437   7.497 -0.1456 -0.0502  1.9937
  170MOL   C12124119   2.176   3.480   7.580  0.2215  0.3037  0.6531
  170MOL   C12224120   2.324   3.507   7.566 -0.2158  0.2569  0.4702
  170MOL   O12324121   2.344   3.622   7.478 -0.1862  1.0528 -0.1226
  170MOL   H12424122   2.124   3.573   7.558 -0.2213  0.1005  0.8417
  170MOL   H12524123   2.159   3.458   7.685 -0.2871  0.0165  0.5147
  170MOL   H12624124   2.368   3.421   7.516 -2.1434 -0.3183 -0.2746
  170MOL   H12724125   2.367   3.520   7.665 -0.4368 -0.4773  0.6665
  170MOL   C12824126   2.479   3.652   7.442  0.2719  0.0019 -0.6567
  170MOL   C12924127   2.481   3.767   7.343  0.0845  0.1010 -0.5437
  170MOL   O13024128   2.501   3.892   7.415 -0.1426  0.2683 -0.3277
  170MOL   H13124129   2.532   3.675   7.535 -0.9220 -2.2560  0.6302
  170MOL   H13224130   2.508   3.556   7.401 -0.0997  0.4315 -1.9396
  170MOL   H13324131   2.388   3.766   7.285 -0.5402  0.1712  0.4358
  170MOL   H13424132   2.563   3.757   7.272  0.2503 -0.9538 -0.2067
  170MOL   C13524133   2.386   3.977   7.432 -0.1681 -0.1972 -0.6498
  170MOL   C13624134   2.345   3.977   7.577 -0.4245  1.2491 -0.8467
  170MOL   O13724135   2.296   3.857   7.626  0.4046  0.1143 -0.0551
  170MOL   H13824136   2.403   4.077   7.394 -1.7369  1.2423  2.2265
  170MOL   H13924137   2.303   3.942   7.371 -0.2502 -0.6776 -0.2694
  170MOL   H14024138   2.272   4.055   7.603 -1.3918  0.5358 -1.4020
  170MOL   H14124139   2.431   3.986   7.644  0.3304  1.7741 -1.8756
  170MOL   H14224140   2.339   3.788   7.577  1.7459 -0.4069  1.8019
  171MOL     C124141   0.558   0.872   3.246 -0.3128 -0.1014  0.5232
  171MOL     C224142   0.540   0.735   3.304  0.4103  0.0844 -0.2312
  171MOL     O324143   0.652   0.702   3.380 -0.0418 -0.3405  0.3385
  171MOL     H424144   0.642   0.875   3.176 -0.2066  0.0865  0.6578
  171MOL     H524145   0.579   0.951   3.318  0.9287 -0.3435  0.4514
  171MOL     H624146   0.524   0.658   3.228 -0.9601 -0.1552  0.2899
  171MOL     H724147   0.460   0.732   3.377  0.8172  0.6081  0.2374
  171MOL     H824148   0.464   0.894   3.196  0.3106 -2.6936 -1.9438
  171MOL     C924149   0.638   0.571   3.446  0.3481  0.6063  0.5080
  171MOL    C1024150   0.769   0.541   3.522 -0.1735 -0.9060 -0.1677
  171MOL    O1124151   0.866   0.500   3.419  0.2053 -0.0364  0.8246
  171MOL    H1224152   0.551   0.560   3.510 -0.1789 -1.9441 -0.6027
  171MOL    H1324153   0.631   0.496   3.367  1.3348 -0.8204  1.7529
  171MOL    H1424154   0.740   0.460   3.589 -2.6425 -2.2258 -2.7199
  171MOL    H1524155   0.792   0.624   3.589 -0.1567 -1.5787  0.6668
  171MOL    C1624156   0.969   0.427   3.480  0.5035  0.4756 -0.7063
  171MOL    C1724157   1.081   0.398   3.380 -0.3231 -0.0069 -0.5126
  171MOL    O1824158   1.040   0.295   3.291  0.7115 -0.0034 -0.9116
  171MOL    H1924159   1.003   0.476   3.571 -1.8984  0.8547  0.0318
  171MOL    H2024160   0.925   0.332   3.510  3.1002  0.3265  2.9013
  171MOL    H2124161   1.162   0.352   3.438 -0.3489  0.5308 -0.0388
  171MOL    H2224162   1.128   0.484   3.332 -0.5458  0.2001 -0.3639
  171MOL    C2324163   1.153   0.251   3.218  0.4686  0.2689  0.1710
  171MOL    C2424164   1.100   0.139   3.135 -0.4678 -0.3747  0.0260
  171MOL    O2524165   1.011   0.195   3.037 -0.7374 -0.0723 -0.5017
  171MOL    H2624166   1.181   0.332   3.150  1.1122 -1.0215 -1.1239
  171MOL    H2724167   1.237   0.223   3.282 -1.2707 -0.4874  2.1462
  171MOL    H2824168   1.049   0.068   3.200 -2.1872  1.2449  0.4931
  171MOL    H2924169   1.182   0.092   3.080  0.9835  0.9542  1.0051
  171MOL    C3024170   0.928   0.099   2.988  1.1567  0.4105 -0.1747
  171MOL    C3124171   0.846   0.156   2.866  0.2485  0.1413 -0.6910
  171MOL    O3224172   0.904   0.109   2.743 -0.1297 -0.8296 -0.3130
  171MOL    H3324173   0.983   0.013   2.950 -0.5196 -0.6166 -0.3391
  171MOL    H3424174   0.863   0.090   3.075 -1.1384  0.3543 -1.8212
  171MOL    H3524175   0.824   0.262   2.865  2.0318  0.5437  1.0950
  171MOL    H3624176   0.747   0.112   2.870 -0.3223  1.4624 -0.2869
  171MOL    C3724177   0.851   0.178   2.626 -0.4546 -0.0999 -0.4006
  171MOL    C3824178   0.866   0.108   2.491  0.0842  0.4765  0.4011
  171MOL    O3924179   0.796   7.757   2.515  0.4678  0.7749  0.1022
  171MOL    H4024180   0.744   0.200   2.635 -0.1407  3.0680 -3.2428
  171MOL    H4124181   0.898   0.276   2.623 -1.4225  0.3420 -3.3777
  171MOL    H4224182   0.972   0.094   2.469 -0.2910  0.8598 -1.7180
  171MOL    H4324183   0.814   0.170   2.418 -1.4654  0.1086  1.1614
  171MOL    C4424184   0.807   7.672   2.405 -0.1922  0.2939 -0.0666
  171MOL    C4524185   0.770   7.534   2.460 -0.1035 -0.6960 -0.0626
  171MOL    O4624186   0.632   7.527   2.490 -0.3224 -0.2195  0.3904
  171MOL    H4724187   0.734   7.694   2.327 -0.7021  1.2447  0.6586
  171MOL    H4824188   0.908   7.669   2.364  0.3168  0.9423  1.1063
  171MOL    H4924189   0.826   7.500   2.546 -2.0720 -2.9907  0.3483
  171MOL    H5024190   0.791   7.468   2.375  0.1146 -0.1018 -0.4747
  171MOL    C5124191   0.597   7.400   2.526 -0.1584 -0.0699  0.1493
  171MOL    C5224192   0.469   7.403   2.614  0.0013  0.0927  0.1040
  171MOL    O5324193   0.356   7.395   2.532  0.6171 -0.4317  0.0771
  171MOL    H5424194   0.568   7.338   2.440  1.4412 -0.0730 -0.4106
  171MOL    H5524195   0.675   7.343   2.576  3.3074  2.9975 -1.5161
  171MOL    H5624196   0.463   7.495   2.672 -0.7625 -1.5829  2.7446
  171MOL    H5724197   0.473   7.312   2.673 -0.1369  0.7442  1.1271
  171MOL    C5824198   0.260   7.298   2.586  0.2216  0.0298  0.3117
  171MOL    C5924199   0.132   7.286   2.492 -0.0737  0.2874 -0.4886
  171MOL    O6024200   0.042   7.388   2.515  0.0307 -0.4847  0.3140
  171MOL    H6124201   0.312   7.202   2.593  1.0763  0.5614  1.4585
  171MOL    H6224202   0.238   7.324   2.690  0.4248 -0.3894  0.4578
  171MOL    H6324203   0.087   7.192   2.524 -0.7984  0.9367  0.4033
  171MOL    H6424204   0.156   7.269   2.387 -0.6914  1.7522 -0.8799
  171MOL    C6524205   7.682   7.370   2.448  0.2959  0.2117  0.3303
  171MOL    C6624206   7.580   7.480   2.475 -0.3639  0.1439 -0.1035
  171MOL    O6724207   7.614   7.608   2.421 -0.5635  0.4279  0.8850
  171MOL    H6824208   7.704   7.354   2.343  3.8888  0.5508  0.9398
  171MOL    H6924209   7.630   7.279   2.479 -1.4610  1.2818  0.5539
  171MOL    H7024210   7.575   7.496   2.583  1.3313 -0.6632  0.1164
  171MOL    H7124211   7.478   7.460   2.442 -0.8883  2.7575 -0.1353
  171MOL    C7224212   7.548   7.723   2.470 -0.2669 -0.6022  0.3326
  171MOL    C7324213   7.590   0.078   2.390  0.0275 -0.2506 -0.2338
  171MOL    O7424214   7.553   0.078   2.251 -0.6949  0.5789 -0.0105
  171MOL    H7524215   7.444   7.709   2.442  0.1209 -1.3860 -0.7356
  171MOL    H7624216   7.559   7.734   2.578  1.5964  2.4941 -0.1019
  171MOL    H7724217   7.695   0.102   2.405 -0.4511  1.4668  0.5463
  171MOL    H7824218   7.536   0.158   2.442 -1.4233 -1.2466 -0.1845
  171MOL    C7924219   7.545   0.213   2.210  0.4963 -0.4320 -0.6734
  171MOL    C8024220   7.503   0.217   2.064 -0.4483 -0.3612 -0.6233
  171MOL    O8124221   7.615   0.183   1.984  0.2020  0.1349 -0.4274
  171MOL    H8224222   7.469   0.263   2.270  0.4300  0.2599 -1.3269
  171MOL    H8324223   7.639   0.265   2.227  1.0143 -1.7172  0.4583
  171MOL    H8424224   7.469   0.318   2.042 -2.2784 -0.9769 -0.6968
  171MOL    H8524225   7.418   0.152   2.043 -0.1182 -0.9797 -0.0532
  171MOL    C8624226   7.579   0.178   1.849  0.2367  0.1412 -0.1932
  171MOL    C8724227   7.634   0.300   1.789  0.4687  0.1737  0.2665
  171MOL    O8824228   0.007   0.293   1.789  0.3193  0.2821 -0.5296
  171MOL    H8924229   7.636   0.095   1.806  0.3850  1.4694 -2.6443
  171MOL    H9024230   7.475   0.153   1.827 -0.0791  0.1559  1.2430
  171MOL    H9124231   7.589   0.383   1.844 -0.0893  0.5851 -0.7929
  171MOL    H9224232   7.598   0.300   1.686 -1.6803  0.9159  1.0026
  171MOL    C9324233   0.073   0.413   1.758  0.2400 -0.0816  0.4723
  171MOL    C9424234   0.229   0.381   1.774  0.4369 -0.4050  0.1348
  171MOL    O9524235   0.274   0.320   1.654 -0.3384  0.1899  0.0276
  171MOL    H9624236   0.062   0.445   1.654  0.2220  1.3028  0.8797
  171MOL    H9724237   0.040   0.502   1.812 -0.1844 -0.6808  1.2153
  171MOL    H9824238   0.241   0.319   1.863  0.3771 -1.6428 -0.6975
  171MOL    H9924239   0.267   0.481   1.790 -0.8689  0.1777 -0.3488
  171MOL   C10024240   0.409   0.274   1.673 -1.0212 -0.4081 -0.0355
  171MOL   C10124241   0.467   0.208   1.548 -0.1048  0.3752  0.3864
  171MOL   O10224242   0.445   0.073   1.546  0.1795  0.4435 -0.3374
  171MOL   H10324243   0.466   0.353   1.722 -1.4062  0.2013 -0.5680
  171MOL   H10424244   0.406   0.195   1.748 -1.3265 -1.0336 -0.7024
  171MOL   H10524245   0.574   0.226   1.561 -0.1650  0.3918  0.8799
  171MOL   H10624246   0.426   0.249   1.456 -0.5389 -0.1510  0.3422
  171MOL   C10724247   0.541   0.007   1.463 -1.1080  0.4072  0.2309
  171MOL   C10824248   0.520   7.624   1.462 -0.3963 -0.5213  0.5128
  171MOL   O10924249   0.401   7.595   1.387  0.4180 -0.4644 -0.1349
  171MOL   H11024250   0.539   0.036   1.358 -0.3339  1.0430  0.3904
  171MOL   H11124251   0.639   0.023   1.509 -0.5660 -1.1393 -0.3548
  171MOL   H11224252   0.520   7.586   1.564 -0.2238 -0.2344  0.6179
  171MOL   H11324253   0.608   7.585   1.411 -0.8943  0.2147 -0.9404
  171MOL   C11424254   0.396   7.456   1.365  0.5529  0.4437  0.6524
  171MOL   C11524255   0.288   7.436   1.259  0.6297 -0.3222  0.1492
  171MOL   O11624256   0.156   7.451   1.318  0.3884  0.0711 -0.6455
  171MOL   H11724257   0.495   7.421   1.334 -1.0210 -3.2992 -0.5065
  171MOL   H11824258   0.377   7.391   1.451  0.8118 -0.3774  0.0967
  171MOL   H11924259   0.304   7.336   1.220  1.5639  0.1451 -0.6746
  171MOL   H12024260   0.300   7.508   1.178  2.5039  0.8942  1.4738
  171MOL   C12124261   0.055   7.463   1.215 -0.5601 -0.8354  0.5715
  171MOL   C12224262   7.684   7.463   1.275  0.0510  0.1826  0.8088
  171MOL   O12324263   7.621   7.340   1.235 -0.2384 -0.2572 -0.3152
  171MOL   H12424264   0.076   7.558   1.166 -2.9608  0.1729  1.4354
  171MOL   H12524265   0.069   7.384   1.141  1.6242 -2.2717  2.4932
  171MOL   H12624266   7.626   7.539   1.221 -0.1095  0.6941  1.6973
  171MOL   H12724267   7.691   7.482   1.382 -0.1446  0.9993  0.6864
  171MOL   C12824268   7.506   7.319   1.298 -0.0781  0.0450 -0.0779
  171MOL   C12924269   7.453   7.180   1.259  0.0656 -0.5978 -0.3819
  171MOL   O13024270   7.424   7.175   1.119  0.4724 -0.0190  0.0396
  171MOL   H13124271   7.520   7.324   1.406  1.4389 -0.7420 -0.2272
  171MOL   H13224272   7.431   7.391   1.265  0.4417 -0.2337 -1.9586
  171MOL   H13324273   7.363   7.159   1.317 -1.6754  0.8486 -2.4560
  171MOL   H13424274   7.536   7.113   1.279 -1.4637 -2.2826  0.4548
  171MOL   C13524275   7.514   7.083   1.048 -0.3676  0.5939 -0.2713
  171MOL   C13624276   7.492   6.932   1.081  0.4104  0.2073 -0.8035
  171MOL   O13724277   7.615   6.880   1.132  0.1898  0.5426 -0.6803
  171MOL   H13824278   7.495   7.095   0.941 -2.3083  0.2173  0.0146
  171MOL   H13924279   7.618   7.112   1.059 -0.3736  1.1147 -1.4925
  171MOL   H14024280   7.465   6.888   0.985 -0.3707  0.5317 -0.7339
  171MOL   H14124281   7.404   6.915   1.142  0.4347  0.9610 -0.5467
  171MOL   H14224282   7.653   6.944   1.191 -3.4815 -0.1372  2.5932
  172MOL     C124283   2.903   4.315   1.642  0.4711 -0.3527  0.2038
  172MOL     C224284   2.753   4.305   1.660  0.2903  0.5818 -0.2721
  172MOL     O324285   2.714   4.376   1.779  0.7136 -0.2196  0.0184
  172MOL     H424286   2.947   4.258   1.725 -0.9681 -0.0828  1.1815
  172MOL     H524287   2.934   4.419   1.638  1.1662 -0.4947  1.5983
  172MOL     H624288   2.715   4.202   1.661 -1.5194  1.2313 -0.5579
  172MOL     H724289   2.699   4.342   1.573 -0.7152 -1.6819 -0.6524
  172MOL     H824290   2.931   4.273   1.546  2.4899  0.4973  0.3898
  172MOL     C924291   2.573   4.383   1.796  0.0842  0.8061  1.0788
  172MOL    C1024292   2.538   4.461   1.924 -0.0189 -0.0728  0.4064
  172MOL    O1124293   2.574   4.385   2.036  0.0580  0.1886  0.1000
  172MOL    H1224294   2.534   4.448   1.717 -1.0715  3.0115  3.3934
  172MOL    H1324295   2.526   4.284   1.794  1.7397  0.0357 -1.1492
  172MOL    H1424296   2.431   4.482   1.923  0.4554  2.4498 -0.5452
  172MOL    H1524297   2.594   4.554   1.927 -0.0398 -0.0450 -0.0478
  172MOL    C1624298   2.560   4.439   2.162  0.3243  0.1757 -0.1680
  172MOL    C1724299   2.587   4.337   2.267  0.0480 -0.3603 -0.2392
  172MOL    O1824300   2.476   4.264   2.313 -0.0536  0.8418 -0.2012
  172MOL    H1924301   2.637   4.514   2.177 -1.7251  2.2607  0.2441
  172MOL    H2024302   2.461   4.473   2.191  0.1719  0.0764 -0.5690
  172MOL    H2124303   2.647   4.369   2.352 -1.2340 -1.3013  1.0431
  172MOL    H2224304   2.657   4.270   2.216 -0.3381 -0.1440 -1.0580
  172MOL    C2324305   2.523   4.150   2.392 -0.4482  0.3521  0.3858
  172MOL    C2424306   2.411   4.088   2.471  0.8658  0.0087  0.0943
  172MOL    O2524307   2.336   3.989   2.404  0.1418  0.1753 -0.5582
  172MOL    H2624308   2.575   4.080   2.327 -1.3210 -0.7472  0.8465
  172MOL    H2724309   2.593   4.185   2.468 -1.4562  0.3646  1.3240
  172MOL    H2824310   2.349   4.167   2.513  0.7313 -0.1394  0.1758
  172MOL    H2924311   2.455   4.042   2.560 -0.9218  3.1384  2.6828
  172MOL    C3024312   2.247   4.043   2.304  0.6132 -0.2401  0.0076
  172MOL    C3124313   2.128   3.949   2.273 -0.3602 -0.6417 -0.2734
  172MOL    O3224314   2.173   3.870   2.164 -0.3212  0.1405  0.6271
  172MOL    H3324315   2.189   4.127   2.341 -0.8322 -0.8108 -0.9015
  172MOL    H3424316   2.297   4.066   2.210 -0.2528  0.0516 -0.3881
  172MOL    H3524317   2.042   4.007   2.239  2.2444  2.5918 -1.6406
  172MOL    H3624318   2.101   3.894   2.363  0.1217 -1.5069 -0.6545
  172MOL    C3724319   2.072   3.786   2.098 -0.1993  0.1897 -0.0984
  172MOL    C3824320   2.115   3.729   1.960 -0.1592 -0.3371  0.1959
  172MOL    O3924321   2.007   3.666   1.894 -0.2260 -0.0590  0.1458
  172MOL    H4024322   2.066   3.700   2.165  0.0649 -0.5003 -0.9526
  172MOL    H4124323   1.976   3.835   2.082 -0.9266 -0.8505  0.9921
  172MOL    H4224324   2.205   3.667   1.971 -0.0541 -0.2591 -0.2209
  172MOL    H4324325   2.147   3.813   1.900  0.5007 -1.2800 -0.7905
  172MOL    C4424326   2.040   3.645   1.757 -0.1168 -0.3401 -0.6620
  172MOL    C4524327   1.916   3.582   1.692  0.0322 -0.0043  0.2629
  172MOL    O4624328   1.925   3.557   1.556 -0.7337  0.1886 -0.3224
  172MOL    H4724329   2.057   3.741   1.708  0.3814  0.3691  0.8757
  172MOL    H4824330   2.123   3.575   1.749  1.0045  0.8113  0.6784
  172MOL    H4924331   1.831   3.643   1.723  0.3687  0.2683  0.6522
  172MOL    H5024332   1.898   3.483   1.734  1.0796  0.2705  1.3802
  172MOL    C5124333   1.800   3.531   1.493  0.4629  0.6783 -0.2296
  172MOL    C5224334   1.829   3.530   1.343 -0.0302  0.0374 -0.4596
  172MOL    O5324335   1.813   3.665   1.284  0.2978  0.1699 -0.1093
  172MOL    H5424336   1.759   3.437   1.529 -0.6282  1.0536 -0.4823
  172MOL    H5524337   1.725   3.606   1.518  1.3055  0.9806  1.4629
  172MOL    H5624338   1.757   3.460   1.302 -2.0975  1.5041  0.6019
  172MOL    H5724339   1.919   3.481   1.305 -0.5417  1.2350 -3.3623
  172MOL    C5824340   1.796   3.656   1.141  0.0988 -0.0022  0.1301
  172MOL    C5924341   1.788   3.789   1.067  0.1296 -0.1311 -0.4221
  172MOL    O6024342   1.767   3.757   0.933  0.4772 -0.4180  0.2100
  172MOL    H6124343   1.875   3.595   1.096 -1.2254  0.1971 -2.5245
  172MOL    H6224344   1.705   3.598   1.129 -1.2086  2.5146 -2.8337
  172MOL    H6324345   1.885   3.832   1.091  0.1926 -0.9617  0.8467
  172MOL    H6424346   1.719   3.864   1.105  2.5863  1.8663  0.2781
  172MOL    C6524347   1.761   3.877   0.855 -0.2625  0.6027  0.5246
  172MOL    C6624348   1.897   3.955   0.842 -0.9287 -0.4894  0.0132
  172MOL    O6724349   1.914   4.047   0.948 -0.0174  0.3521  0.5667
  172MOL    H6824350   1.733   3.848   0.754 -2.0860  0.4338  1.0562
  172MOL    H6924351   1.675   3.940   0.879 -2.5213 -2.6915  1.5343
  172MOL    H7024352   1.890   4.025   0.758  0.3576 -0.1663  0.1591
  172MOL    H7124353   1.969   3.874   0.830 -0.1511  0.0628  0.8317
  172MOL    C7224354   2.042   4.098   0.959 -0.0092  0.0987  0.0187
  172MOL    C7324355   2.053   4.194   1.077  0.1871  0.2234  1.0072
  172MOL    O7424356   1.975   4.147   1.185 -0.0857  0.6964  0.3766
  172MOL    H7524357   2.111   4.014   0.974  0.1480  0.0967 -0.7110
  172MOL    H7624358   2.075   4.154   0.872  0.6939 -1.9414 -1.0571
  172MOL    H7724359   2.007   4.286   1.041 -0.7525 -0.0060  1.6001
  172MOL    H7824360   2.159   4.216   1.090  0.1514 -0.5242  2.5977
  172MOL    C7924361   2.009   4.217   1.305  0.0268  0.7946 -0.6538
  172MOL    C8024362   1.956   4.359   1.313 -0.1525  0.0133 -0.0011
  172MOL    O8124363   2.025   4.451   1.219  0.4275 -0.0175  0.1190
  172MOL    H8224364   1.968   4.156   1.385 -1.3214  1.7490 -0.6016
  172MOL    H8324365   2.116   4.216   1.324 -0.0402 -0.0913 -0.3054
  172MOL    H8424366   1.950   4.400   1.414  1.1224  0.7859 -0.2244
  172MOL    H8524367   1.855   4.363   1.272  0.1747  0.5698 -0.7584
  172MOL    C8624368   1.985   4.587   1.254  0.0965  0.2878  0.4073
  172MOL    C8724369   2.070   4.688   1.180  0.4529  0.4664 -0.1330
  172MOL    O8824370   2.049   4.671   1.040 -0.0000 -0.4108  0.1820
  172MOL    H8924371   1.878   4.607   1.247  0.3441  1.3585 -0.5719
  172MOL    H9024372   1.996   4.612   1.359  1.1319  0.9592  0.1518
  172MOL    H9124373   2.175   4.671   1.204 -0.1864  0.1381  2.5397
  172MOL    H9224374   2.049   4.795   1.188  1.3644  0.8153 -2.0890
  172MOL    C9324375   2.125   4.757   0.950  0.4618  0.0022 -0.4054
  172MOL    C9424376   2.130   4.706   0.811 -0.2769  0.3992 -0.4798
  172MOL    O9524377   2.006   4.740   0.747 -0.2803  0.3798 -0.0009
  172MOL    H9624378   2.082   4.856   0.960 -2.1152 -1.2312  1.4312
  172MOL    H9724379   2.225   4.767   0.991  0.2904 -2.2858  0.6496
  172MOL    H9824380   2.144   4.598   0.805 -1.7091  0.1041  1.0968
  172MOL    H9924381   2.220   4.750   0.769 -0.5285  0.1445 -1.2982
  172MOL   C10024382   2.009   4.692   0.612  0.1920 -0.3382  0.2565
  172MOL   C10124383   1.959   4.546   0.594 -0.4899 -0.5206 -0.0083
  172MOL   O10224384   2.057   4.449   0.619 -0.7620  0.2712 -0.0372
  172MOL   H10324385   1.951   4.759   0.548 -0.6876 -0.7852  0.5793
  172MOL   H10424386   2.109   4.696   0.569 -0.4841  0.8661 -1.2310
  172MOL   H10524387   1.906   4.529   0.501 -3.0583  0.2303  1.2692
  172MOL   H10624388   1.890   4.531   0.677 -1.2886  1.4920 -0.2838
  172MOL   C10724389   2.013   4.315   0.588 -0.5332 -0.8164 -0.0088
  172MOL   C10824390   2.142   4.236   0.573  0.9052 -0.7900 -0.1887
  172MOL   O10924391   2.112   4.095   0.563  0.1967 -0.1574 -0.5838
  172MOL   H11024392   1.952   4.279   0.671 -0.9476 -2.3558 -0.9552
  172MOL   H11124393   1.951   4.305   0.499 -0.9944  0.1671  0.1987
  172MOL   H11224394   2.198   4.248   0.666 -0.7303  2.1029  0.4951
  172MOL   H11324395   2.203   4.269   0.489 -3.5264  0.9883 -2.8643
  172MOL   C11424396   2.232   4.020   0.542  0.3313  0.5133  0.9205
  172MOL   C11524397   2.216   3.873   0.585  0.1600 -0.2698  0.3656
  172MOL   O11624398   2.313   3.815   0.665 -0.7531 -0.0387  0.0274
  172MOL   H11724399   2.268   4.035   0.440  1.3733  1.3471  1.3972
  172MOL   H11824400   2.316   4.066   0.594  1.2156 -0.1049  0.0428
  172MOL   H11924401   2.206   3.808   0.498  1.0440 -1.8167  1.3989
  172MOL   H12024402   2.121   3.863   0.636 -0.9648  1.4258 -1.2911
  172MOL   C12124403   2.306   3.673   0.665  1.2074  1.1007  0.3709
  172MOL   C12224404   2.195   3.625   0.762  0.4212  0.1332  0.2561
  172MOL   O12324405   2.069   3.622   0.695  0.3404  0.1207  0.2571
  172MOL   H12424406   2.289   3.626   0.568  0.1827  0.5694  0.7962
  172MOL   H12524407   2.407   3.650   0.698  0.9883  1.7570  1.5600
  172MOL   H12624408   2.189   3.690   0.850 -0.6869  0.3002  0.0653
  172MOL   H12724409   2.203   3.525   0.805 -1.8419 -0.2847 -0.2448
  172MOL   C12824410   1.973   3.548   0.774 -0.1960 -0.0697 -0.0582
  172MOL   C12924411   1.838   3.564   0.695 -0.2660  0.0220  0.8378
  172MOL   O13024412   1.733   3.533   0.782 -0.2693  0.4346  0.3184
  172MOL   H13124413   2.002   3.444   0.792 -0.8347 -0.0823  0.9219
  172MOL   H13224414   1.957   3.592   0.873  1.4113  1.0524 -0.2815
  172MOL   H13324415   1.841   3.490   0.615 -1.9495 -0.1995  0.9604
  172MOL   H13424416   1.827   3.665   0.657 -1.8220  0.1162  1.5108
  172MOL   C13524417   1.605   3.543   0.726  0.1235 -1.1101  0.3539
  172MOL   C13624418   1.516   3.486   0.835 -0.2503  0.1766  0.0856
  172MOL   O13724419   1.503   3.582   0.939 -0.5999  0.0304 -0.6129
  172MOL   H13824420   1.570   3.645   0.710 -0.8951 -1.6184 -0.6741
  172MOL   H13924421   1.580   3.498   0.631 -1.1876 -0.4170  0.3565
  172MOL   H14024422   1.554   3.393   0.876  1.6497  1.2865  0.9332
  172MOL   H14124423   1.414   3.461   0.809  0.0046  0.0893 -0.8427
  172MOL   H14224424   1.580   3.637   0.944  0.1185 -1.1639  2.6051
  173MOL     C124425   4.472   1.713   6.069  0.1233  0.5976 -0.0576
  173MOL     C224426   4.606   1.682   6.137 -0.2537 -0.0354 -0.5634
  173MOL     O324427   4.700   1.775   6.103 -0.2271  0.1593  0.2068
  173MOL     H424428   4.393   1.656   6.119  0.2753 -1.4032 -2.0385
  173MOL     H524429   4.476   1.685   5.964  0.0625  0.3349  0.0093
  173MOL     H624430   4.639   1.583   6.105 -0.5701  0.3384 -2.0627
  173MOL     H724431   4.589   1.674   6.245  0.6679 -0.5119 -0.4437
  173MOL     H824432   4.449   1.820   6.077  0.1761  0.7787 -2.0132
  173MOL     C924433   4.817   1.775   6.182  0.1071 -0.0475  1.3526
  173MOL    C1024434   4.914   1.685   6.105 -0.4849 -0.4190 -0.3141
  173MOL    O1124435   4.879   1.555   6.139  0.2737  0.3108  0.0062
  173MOL    H1224436   4.850   1.878   6.182 -1.5253  0.5306 -0.8284
  173MOL    H1324437   4.797   1.748   6.286 -1.8004 -0.4622  0.9002
  173MOL    H1424438   5.010   1.695   6.156 -0.9200  0.6211  0.3098
  173MOL    H1524439   4.931   1.701   5.998 -1.5280 -2.4283 -0.8115
  173MOL    C1624440   4.959   1.459   6.069 -0.3054 -0.0819  0.1733
  173MOL    C1724441   4.911   1.309   6.103  0.3746 -0.4319 -0.1212
  173MOL    O1824442   4.956   1.277   6.239 -0.4042  0.1763 -0.4357
  173MOL    H1924443   4.952   1.481   5.962  2.6591  1.0294  0.1668
  173MOL    H2024444   5.061   1.462   6.107 -0.0666 -0.7064 -0.4310
  173MOL    H2124445   4.941   1.236   6.028  1.5707  0.4914 -0.5766
  173MOL    H2224446   4.803   1.318   6.101  0.4561  0.5332 -2.1909
  173MOL    C2324447   4.942   1.140   6.259 -0.9691  0.0770  0.4385
  173MOL    C2424448   5.012   1.131   6.392 -0.4792  0.2004 -0.4955
  173MOL    O2524449   5.155   1.138   6.372  0.1837  0.7837  0.3337
  173MOL    H2624450   4.838   1.108   6.254 -0.8539 -0.4516  1.2583
  173MOL    H2724451   5.003   1.079   6.192  0.2261  0.1037  1.4684
  173MOL    H2824452   4.977   1.031   6.417  1.4169  0.2540  2.8068
  173MOL    H2924453   4.976   1.199   6.470  1.8657  0.6140  0.2732
  173MOL    C3024454   5.220   1.095   6.485 -0.3601 -0.8191  0.2405
  173MOL    C3124455   5.219   1.194   6.609 -0.7838  0.0382  0.5949
  173MOL    O3224456   5.287   1.314   6.571  0.2474  0.0097 -0.2668
  173MOL    H3324457   5.192   0.994   6.514  0.7986 -1.9413 -2.3658
  173MOL    H3424458   5.324   1.085   6.454 -0.5157 -1.3281 -0.1261
  173MOL    H3524459   5.282   1.162   6.691 -0.0429 -0.5150 -0.1900
  173MOL    H3624460   5.119   1.194   6.653 -0.8394 -0.4515  0.4753
  173MOL    C3724461   5.206   1.435   6.579  0.2467  1.2264  0.4159
  173MOL    C3824462   5.278   1.552   6.504 -0.3820 -0.1827 -0.3222
  173MOL    O3924463   5.213   1.674   6.536 -0.3830 -0.4830 -0.4586
  173MOL    H4024464   5.105   1.434   6.538 -0.2166 -0.5744  1.5745
  173MOL    H4124465   5.207   1.474   6.681  0.7835  1.5267  0.2994
  173MOL    H4224466   5.275   1.549   6.395  2.1224  0.1724 -0.4482
  173MOL    H4324467   5.381   1.556   6.541 -0.4444 -2.0327  0.1130
  173MOL    C4424468   5.085   1.697   6.478 -0.0764  0.2168  0.4091
  173MOL    C4524469   5.028   1.835   6.502 -0.1739  0.2875  0.8891
  173MOL    O4624470   5.059   1.912   6.392  0.5810 -0.7379  0.5043
  173MOL    H4724471   5.088   1.676   6.371  0.2477  1.5588  0.1449
  173MOL    H4824472   5.018   1.618   6.511  0.1732  0.2193  0.9239
  173MOL    H4924473   5.058   1.878   6.597  0.6322  2.8347 -0.4840
  173MOL    H5024474   4.920   1.816   6.501 -0.3658  1.3558  0.9911
  173MOL    C5124475   5.008   2.049   6.401  0.2477 -0.4285  0.5087
  173MOL    C5224476   5.118   2.137   6.454  0.4457 -0.7169 -0.1025
  173MOL    O5324477   5.065   2.264   6.468 -0.1039  0.4384 -0.1644
  173MOL    H5424478   4.996   2.069   6.294  4.1232 -3.0036 -0.5300
  173MOL    H5524479   4.913   2.043   6.454 -0.3826 -0.2008 -0.5815
  173MOL    H5624480   5.202   2.140   6.384 -0.6708  2.4333 -1.3775
  173MOL    H5724481   5.156   2.085   6.542 -2.7268 -2.2383  0.4287
  173MOL    C5824482   5.156   2.366   6.507 -0.2418 -0.1003 -0.0752
  173MOL    C5924483   5.073   2.492   6.559 -0.1065  0.2372  0.0710
  173MOL    O6024484   5.040   2.559   6.442 -0.4466  0.5142  0.5872
  173MOL    H6124485   5.215   2.324   6.589 -0.1804 -0.4203 -0.2800
  173MOL    H6224486   5.220   2.394   6.423 -1.6805  1.9694 -0.4978
  173MOL    H6324487   5.138   2.557   6.618  0.9515 -0.2821 -0.5072
  173MOL    H6424488   4.984   2.464   6.615  0.0903  0.6607  0.5980
  173MOL    C6524489   4.968   2.678   6.467 -0.3765 -0.0052  0.1184
  173MOL    C6624490   4.963   2.766   6.340  0.1771  0.1114 -0.1929
  173MOL    O6724491   5.027   2.897   6.360 -0.5994  0.2534  0.5269
  173MOL    H6824492   4.867   2.652   6.498 -0.6281  0.3375 -0.3902
  173MOL    H6924493   5.009   2.730   6.553  1.4989  2.8825 -2.3870
  173MOL    H7024494   4.859   2.784   6.315  0.4713  0.0938 -1.4731
  173MOL    H7124495   4.994   2.711   6.251 -2.1589  1.2246 -1.7573
  173MOL    C7224496   4.970   2.977   6.457  0.2345  0.4393  0.5026
  173MOL    C7324497   5.002   3.130   6.433 -0.2127  0.3150 -0.2559
  173MOL    O7424498   5.129   3.166   6.470  0.5121  0.0439 -0.1231
  173MOL    H7524499   4.863   2.958   6.466  0.2208 -0.7875 -1.9116
  173MOL    H7624500   5.006   2.953   6.557 -0.5676 -0.1494  0.6503
  173MOL    H7724501   4.933   3.191   6.491 -0.3066 -0.2470  0.2224
  173MOL    H7824502   4.987   3.156   6.328  1.3912 -0.4897 -0.6936
  173MOL    C7924503   5.177   3.283   6.408  0.1693 -0.9656 -0.7480
  173MOL    C8024504   5.308   3.321   6.478  0.5490  0.2472 -0.2741
  173MOL    O8124505   5.384   3.411   6.398 -0.5094  0.5725 -0.7627
  173MOL    H8224506   5.198   3.271   6.302 -1.9175  1.5044 -1.4711
  173MOL    H8324507   5.112   3.370   6.412 -0.5472 -1.5337  0.1219
  173MOL    H8424508   5.365   3.229   6.488  0.7433  0.2314 -1.4004
  173MOL    H8524509   5.282   3.358   6.577  2.5277 -2.2948  1.2488
  173MOL    C8624510   5.493   3.475   6.470 -0.4975 -0.3874  0.1577
  173MOL    C8724511   5.509   3.619   6.407 -0.6291  0.1469 -0.3463
  173MOL    O8824512   5.554   3.620   6.267  0.6531  0.0160  0.1045
  173MOL    H8924513   5.468   3.492   6.575 -0.0994  1.7632 -0.0691
  173MOL    H9024514   5.580   3.410   6.463  1.7059  2.0719  2.9817
  173MOL    H9124515   5.595   3.664   6.457 -0.2362  1.3730 -2.0848
  173MOL    H9224516   5.445   3.697   6.448  0.6812  1.2526 -0.3588
  173MOL    C9324517   5.457   3.586   6.166 -0.1981  0.0414  0.0463
  173MOL    C9424518   5.481   3.679   6.044  0.6056  0.3773  0.1728
  173MOL    O9524519   5.605   3.634   5.989  0.3297  0.4508  0.7877
  173MOL    H9624520   5.470   3.479   6.148  0.5492  0.5207 -2.3424
  173MOL    H9724521   5.351   3.594   6.188 -0.4752  1.5633 -1.8069
  173MOL    H9824522   5.480   3.783   6.078  0.5336 -0.3490  2.4748
  173MOL    H9924523   5.402   3.658   5.972 -1.4862  1.9236  1.9593
  173MOL   C10024524   5.654   3.714   5.889  0.2332  0.1843 -0.4072
  173MOL   C10124525   5.791   3.665   5.845 -0.5377 -0.4724 -0.8211
  173MOL   O10224526   5.904   3.701   5.931 -0.1997 -0.4543 -1.2625
  173MOL   H10324527   5.583   3.721   5.806 -2.9684  1.3262  2.3226
  173MOL   H10424528   5.667   3.814   5.930  1.5495  0.4056 -1.3275
  173MOL   H10524529   5.815   3.716   5.752  1.1057 -0.0373 -0.1847
  173MOL   H10624530   5.785   3.562   5.809 -0.4936  0.2787 -3.0166
  173MOL   C10724531   5.910   3.615   6.054  0.5358  0.2730  0.0399
  173MOL   C10824532   6.053   3.597   6.093 -0.3654 -0.2485  0.4226
  173MOL   O10924533   6.119   3.717   6.109  0.6397 -0.4943  0.4382
  173MOL   H11024534   5.853   3.656   6.137  0.0541  1.1628 -0.7165
  173MOL   H11124535   5.861   3.522   6.028 -0.3970  0.6038  0.5907
  173MOL   H11224536   6.102   3.533   6.019 -0.6172  0.3082 -0.2364
  173MOL   H11324537   6.058   3.551   6.191  0.2468  1.1071  1.0456
  173MOL   C11424538   6.232   3.712   6.191 -0.4663  0.4587 -0.3199
  173MOL   C11524539   6.315   3.836   6.196  0.7364 -0.4535 -0.1088
  173MOL   O11624540   6.397   3.846   6.079  0.3973  0.0685 -1.1547
  173MOL   H11724541   6.193   3.697   6.292 -1.3374  2.9915 -0.2464
  173MOL   H11824542   6.293   3.623   6.176 -1.4473 -0.8786  3.0362
  173MOL   H11924543   6.366   3.838   6.292 -1.4861 -1.5350  1.1273
  173MOL   H12024544   6.257   3.927   6.207 -0.1566 -0.8099 -1.7041
  173MOL   C12124545   6.487   3.954   6.081  0.3192 -0.7773  0.1677
  173MOL   C12224546   6.418   4.076   6.017  0.2725  0.0335 -0.3559
  173MOL   O12324547   6.465   4.088   5.890  0.0164  0.3730 -0.1335
  173MOL   H12424548   6.503   3.975   6.187 -1.0191 -0.3640  0.2978
  173MOL   H12524549   6.570   3.921   6.018  0.7574 -3.0702  1.8869
  173MOL   H12624550   6.452   4.163   6.073 -0.9325  1.5789 -1.9850
  173MOL   H12724551   6.309   4.076   6.025  0.3641  2.5758  1.5173
  173MOL   C12824552   6.418   4.189   5.810 -0.4761 -0.2346 -0.1237
  173MOL   C12924553   6.457   4.172   5.661  0.1310 -0.2680 -0.0180
  173MOL   O13024554   6.592   4.202   5.637 -0.5226  0.7733  0.4255
  173MOL   H13124555   6.309   4.192   5.819 -0.4006  2.4389  0.1674
  173MOL   H13224556   6.459   4.283   5.847  0.0946  0.3302 -2.1292
  173MOL   H13324557   6.391   4.234   5.602 -0.8204 -0.4706  0.8246
  173MOL   H13424558   6.428   4.077   5.616 -1.4198  1.2490 -2.3591
  173MOL   C13524559   6.686   4.117   5.705  0.0617  0.1323 -0.7171
  173MOL   C13624560   6.831   4.131   5.651 -0.2767 -0.0043  0.1520
  173MOL   O13724561   6.840   4.072   5.529 -0.0433 -0.0734  0.5240
  173MOL   H13824562   6.688   4.129   5.814  1.2819 -0.3366 -0.6778
  173MOL   H13924563   6.660   4.013   5.687 -1.3404  0.6076 -1.4668
  173MOL   H14024564   6.902   4.079   5.716  0.1170  1.3509  0.8105
  173MOL   H14124565   6.862   4.234   5.664 -0.3967 -0.0233  0.5966
  173MOL   H14224566   6.766   4.100   5.478  2.4752  1.5237 -2.4563
  174MOL     C124567   4.653   2.157   0.541  0.2688 -0.6193  0.0747
  174MOL     C224568   4.722   2.023   0.528  0.7478 -0.5552 -0.4934
  174MOL     O324569   4.736   1.955   0.647 -0.3012 -0.1281 -0.2051
  174MOL     H424570   4.644   2.199   0.440 -1.8488  1.3280  1.0284
  174MOL     H524571   4.708   2.231   0.598  0.9001 -1.8284  1.0496
  174MOL     H624572   4.810   2.051   0.469  0.8709  3.1327  1.3130
  174MOL     H724573   4.662   1.962   0.461 -1.1050  1.0326 -0.3262
  174MOL     H824574   4.555   2.136   0.586  0.7332 -2.0590  0.4582
  174MOL     C924575   4.844   1.865   0.636 -0.4858  0.0167  0.6198
  174MOL    C1024576   4.837   1.766   0.750 -0.0406 -0.2130  0.1563
  174MOL    O1124577   4.930   1.665   0.730  0.0805  0.2112 -0.0356
  174MOL    H1224578   4.826   1.822   0.537  1.3702  2.0241 -0.6197
  174MOL    H1324579   4.936   1.924   0.635 -0.2263 -0.3413 -2.8388
  174MOL    H1424580   4.738   1.721   0.746  0.3703 -0.9937 -1.7598
  174MOL    H1524581   4.840   1.798   0.854  0.8888 -0.7826  0.3078
  174MOL    C1624582   5.062   1.709   0.769 -0.3764 -0.3210 -1.1206
  174MOL    C1724583   5.154   1.579   0.774  0.1776  0.4547 -0.1462
  174MOL    O1824584   5.286   1.617   0.805 -0.2318  0.0288  0.3689
  174MOL    H1924585   5.107   1.785   0.705  1.9570  0.9149  1.8743
  174MOL    H2024586   5.060   1.752   0.869  0.5963 -1.1477 -0.7411
  174MOL    H2124587   5.149   1.526   0.679 -0.8694 -0.1546  0.2412
  174MOL    H2224588   5.110   1.503   0.839  0.2106  1.4204  1.0281
  174MOL    C2324589   5.388   1.527   0.763 -0.3824  0.4257 -0.3058
  174MOL    C2424590   5.523   1.586   0.812 -0.2911 -0.8096  0.0957
  174MOL    O2524591   5.633   1.497   0.784 -0.3441  0.2619 -0.0912
  174MOL    H2624592   5.374   1.429   0.810 -1.0262  0.2881 -0.7735
  174MOL    H2724593   5.394   1.506   0.656 -0.7295  0.4332 -0.3259
  174MOL    H2824594   5.509   1.619   0.915  0.0571 -0.0863 -0.0804
  174MOL    H2924595   5.552   1.676   0.757  1.6492 -1.1703  0.4840
  174MOL    C3024596   5.728   1.467   0.892  0.3984  0.3301 -0.2468
  174MOL    C3124597   5.693   1.346   0.984 -0.4651  0.3336 -0.3729
  174MOL    O3224598   5.597   1.381   1.078 -0.1288 -0.3653 -0.3906
  174MOL    H3324599   5.820   1.445   0.839  0.2787  1.4138 -0.9097
  174MOL    H3424600   5.757   1.551   0.954  2.4968 -0.8007  0.3588
  174MOL    H3524601   5.781   1.318   1.041 -0.3136  0.3520 -0.5968
  174MOL    H3624602   5.656   1.260   0.927 -1.7464  1.0093 -0.5803
  174MOL    C3724603   5.559   1.276   1.165 -0.4078 -0.0098 -0.4490
  174MOL    C3824604   5.446   1.185   1.118 -0.2926 -0.0228 -0.0105
  174MOL    O3924605   5.498   1.058   1.065 -0.2503 -0.3743  0.4660
  174MOL    H4024606   5.640   1.210   1.194  0.0224  0.7233  0.0598
  174MOL    H4124607   5.526   1.327   1.256  4.5245  2.6441  0.0234
  174MOL    H4224608   5.392   1.248   1.047 -1.1025  0.4705  1.0285
  174MOL    H4324609   5.373   1.158   1.194  0.5042  1.0842  1.1620
  174MOL    C4424610   5.390   0.989   1.012 -0.0082 -0.2927  0.4866
  174MOL    C4524611   5.440   0.870   0.933  0.2354  0.5232  0.2250
  174MOL    O4624612   5.490   0.767   1.026 -0.0348  0.0873 -0.3724
  174MOL    H4724613   5.324   0.972   1.097 -2.5829  1.9728 -0.9806
  174MOL    H4824614   5.338   1.050   0.939  0.5867  0.9950  1.1298
  174MOL    H4924615   5.528   0.905   0.878  1.1146 -1.4329  0.3408
  174MOL    H5024616   5.374   0.817   0.865  0.1436 -0.3583  0.9942
  174MOL    C5124617   5.523   0.641   0.967 -1.0347  0.5335  0.5831
  174MOL    C5224618   5.543   0.530   1.081 -0.0649 -0.3435  0.7773
  174MOL    O5324619   5.620   0.420   1.018 -0.1155  0.1191  0.0072
  174MOL    H5424620   5.464   0.613   0.879 -0.8917  0.2863  0.5647
  174MOL    H5524621   5.624   0.651   0.928 -2.5332  1.7468 -3.2566
  174MOL    H5624622   5.446   0.493   1.114 -1.1168  0.9902 -0.7150
  174MOL    H5724623   5.597   0.568   1.167  0.7312  0.7685 -0.1855
  174MOL    C5824624   5.625   0.307   1.097  0.8661 -0.6021 -0.0903
  174MOL    C5924625   5.722   0.208   1.018 -0.3864  0.3947  0.1313
  174MOL    O6024626   5.639   0.144   0.915 -0.2872 -0.4603  0.1796
  174MOL    H6124627   5.674   0.350   1.184  1.1494  1.1580 -1.0816
  174MOL    H6224628   5.535   0.258   1.134  0.2688  0.1889 -0.4835
  174MOL    H6324629   5.749   0.133   1.093 -1.7530  0.9515  1.2133
  174MOL    H6424630   5.801   0.260   0.963 -0.2630  1.0038  0.8678
  174MOL    C6524631   5.700   0.118   0.793  0.5060  0.5649  0.4756
  174MOL    C6624632   5.601   0.047   0.701 -0.0834  0.2227 -0.1082
  174MOL    O6724633   5.645   0.064   0.571 -0.2996 -0.5019 -0.2816
  174MOL    H6824634   5.726   0.209   0.738  1.3209 -0.0883 -0.2303
  174MOL    H6924635   5.787   0.060   0.824  0.5113 -0.4068 -1.2915
  174MOL    H7024636   5.503   0.092   0.716  0.7269  1.0600  3.0885
  174MOL    H7124637   5.592   7.712   0.725  0.4979 -0.0679 -1.1351
  174MOL    C7224638   5.570   7.768   0.475 -0.6015 -0.0442 -0.5192
  174MOL    C7324639   5.594   0.051   0.339  0.4489 -0.3928  0.0434
  174MOL    O7424640   5.505   0.160   0.309  0.1882  0.0322  0.4388
  174MOL    H7524641   5.607   7.665   0.471  0.3397  0.2909 -0.5515
  174MOL    H7624642   5.463   7.754   0.488 -0.5135  0.1477  0.4551
  174MOL    H7724643   5.569   7.745   0.266  0.8206 -2.4158  1.9888
  174MOL    H7824644   5.697   0.086   0.334 -0.1468  1.4987  0.4975
  174MOL    C7924645   5.545   0.225   0.186 -0.0325 -0.7204 -0.1190
  174MOL    C8024646   5.484   0.363   0.183  0.2235 -0.0654  0.3786
  174MOL    O8124647   5.581   0.444   0.129 -0.1130  0.0624  0.5658
  174MOL    H8224648   5.654   0.236   0.180 -0.3707  2.3184 -2.0988
  174MOL    H8324649   5.504   0.177   0.097 -0.8021  1.7189 -1.1290
  174MOL    H8424650   5.457   0.405   0.280  2.6093 -0.0095  1.0656
  174MOL    H8524651   5.399   0.359   0.115  0.9984  0.1688 -0.6116
  174MOL    C8624652   5.558   0.580   0.135  0.1141 -0.7914 -0.3121
  174MOL    C8724653   5.679   0.652   0.082  0.0347 -0.1137 -0.0775
  174MOL    O8824654   5.694   0.644   7.717 -0.4893  0.6425  0.3408
  174MOL    H8924655   5.466   0.606   0.082 -1.0756 -0.5761  1.8265
  174MOL    H9024656   5.551   0.612   0.239 -0.8719 -1.1042 -0.2721
  174MOL    H9124657   5.773   0.611   0.118  0.9857  1.2207 -1.0004
  174MOL    H9224658   5.677   0.757   0.110  0.1944  0.1096 -0.8794
  174MOL    C9324659   5.824   0.683   7.672  0.4177  1.1486  0.1714
  174MOL    C9424660   5.816   0.786   7.547 -0.7625  0.3171  0.7813
  174MOL    O9524661   5.791   0.922   7.594 -0.4015  0.2819  1.1449
  174MOL    H9624662   5.885   0.718   7.755 -0.2756  1.3913  0.5814
  174MOL    H9724663   5.877   0.591   7.650 -1.4561  0.1793 -0.4454
  174MOL    H9824664   5.737   0.760   7.476  1.0345 -0.7928 -0.8519
  174MOL    H9924665   5.913   0.786   7.496 -0.9519  0.7806  0.4120
  174MOL   C10024666   5.656   0.955   7.616 -0.1117 -0.2894 -0.4412
  174MOL   C10124667   5.639   1.108   7.639  0.4810 -0.4598  0.2457
  174MOL   O10224668   5.650   1.132   0.004  0.3613  0.2557 -0.2324
  174MOL   H10324669   5.600   0.922   7.529  1.5972  0.5660 -1.9062
  174MOL   H10424670   5.609   0.894   7.693  0.8451  1.2619  1.4244
  174MOL   H10524671   5.542   1.136   7.598  0.3688  0.4129  1.0896
  174MOL   H10624672   5.710   1.170   7.584 -1.0589 -1.5387 -3.0657
  174MOL   C10724673   5.580   1.254   0.036  0.0324 -0.4925 -0.3195
  174MOL   C10824674   5.584   1.280   0.192  0.2634  0.2209  0.6375
  174MOL   O10924675   5.531   1.411   0.229 -0.3766 -0.1059 -0.6444
  174MOL   H11024676   5.634   1.338   7.762 -2.0169  0.8229 -0.4068
  174MOL   H11124677   5.475   1.252   0.008 -1.1220 -2.1223  3.8722
  174MOL   H11224678   5.687   1.267   0.223  0.7538 -1.5922 -1.5788
  174MOL   H11324679   5.520   1.210   0.247 -1.6345  0.4219 -1.2328
  174MOL   C11424680   5.555   1.436   0.368  0.1723 -0.7523 -0.4300
  174MOL   C11524681   5.530   1.579   0.408  0.3203 -0.4800 -0.1419
  174MOL   O11624682   5.384   1.602   0.407 -0.3153 -0.0972 -0.4906
  174MOL   H11724683   5.492   1.370   0.427  0.6046 -1.6258 -0.9288
  174MOL   H11824684   5.654   1.414   0.409 -1.0558 -1.4373  2.3513
  174MOL   H11924685   5.576   1.640   0.330 -0.6104  0.6524  0.1799
  174MOL   H12024686   5.574   1.624   0.497 -0.3666  1.5788 -0.8303
  174MOL   C12124687   5.348   1.740   0.418  0.4118  0.1410  0.0170
  174MOL   C12224688   5.370   1.817   0.289  0.1036  0.5925 -0.4897
  174MOL   O12324689   5.478   1.910   0.308  0.2285  0.0763 -0.1295
  174MOL   H12424690   5.241   1.732   0.437  0.6041 -0.7944  0.7131
  174MOL   H12524691   5.385   1.793   0.506  0.7391  2.0241 -1.2137
  174MOL   H12624692   5.280   1.874   0.264 -2.0422 -2.3685  0.2354
  174MOL   H12724693   5.382   1.734   0.220  1.1621 -0.3788  0.8291
  174MOL   C12824694   5.496   1.984   0.191 -0.1368 -0.4061  0.3873
  174MOL   C12924695   5.630   2.068   0.191  0.6045  0.3405  0.2283
  174MOL   O13024696   5.589   2.196   0.229  0.3680 -0.0701 -0.1139
  174MOL   H13124697   5.502   1.915   0.107 -0.7681 -0.3898  0.3307
  174MOL   H13224698   5.408   2.045   0.174 -0.7117 -0.8924  1.5442
  174MOL   H13324699   5.669   2.068   0.090  1.9504 -0.1856  0.7361
  174MOL   H13424700   5.701   2.017   0.256 -0.5716  0.1636  1.4021
  174MOL   C13524701   5.585   2.221   0.368 -0.1552 -0.0387  0.3699
  174MOL   C13624702   5.522   2.365   0.380 -0.4565 -0.1476 -0.1886
  174MOL   O13724703   5.533   2.417   0.509 -0.4848  0.3695 -0.1443
  174MOL   H13824704   5.520   2.144   0.409  0.9178 -0.4744  1.2871
  174MOL   H13924705   5.687   2.208   0.406 -0.0191 -0.3567 -0.0973
  174MOL   H14024706   5.416   2.352   0.355 -0.6939 -0.1472  0.7944
  174MOL   H14124707   5.562   2.436   0.308  2.8383  0.5281  2.1925
  174MOL   H14224708   5.493   2.503   0.516 -0.5639  0.5262 -2.2551
  175MOL     C124709   5.261   4.897   1.223 -0.2672 -0.7151 -0.4869
  175MOL     C224710   5.382   4.985   1.181  0.3121 -0.5725 -0.1738
  175MOL     O324711   5.482   4.897   1.144 -0.3236  0.2662  0.2062
  175MOL     H424712   5.273   4.839   1.314  0.6366 -2.3307 -1.6251
  175MOL     H524713   5.237   4.838   1.135  2.0731 -1.0341 -0.9526
  175MOL     H624714   5.411   5.056   1.259  0.1094 -0.5959 -0.0798
  175MOL     H724715   5.344   5.039   1.094 -0.2580 -2.4038 -1.0724
  175MOL     H824716   5.182   4.970   1.239  1.3529  0.3867  3.1720
  175MOL     C924717   5.603   4.953   1.085  0.1185  0.2464 -0.2586
  175MOL    C1024718   5.581   5.013   0.941  0.1252  0.4350  0.0378
  175MOL    O1124719   5.541   5.148   0.950 -0.1832 -0.0423  0.8982
  175MOL    H1224720   5.651   5.023   1.154  0.4974  2.9436 -3.1588
  175MOL    H1324721   5.679   4.875   1.073  0.6037  0.9408 -1.8477
  175MOL    H1424722   5.510   4.939   0.906  1.3943 -2.0102  2.4060
  175MOL    H1524723   5.672   4.996   0.883  0.4378 -0.5798  0.8036
  175MOL    C1624724   5.466   5.169   0.835  0.2611 -0.2798 -0.2393
  175MOL    C1724725   5.412   5.313   0.829 -0.1919 -0.1839  0.1485
  175MOL    O1824726   5.306   5.330   0.928  0.2242 -0.3596  0.0257
  175MOL    H1924727   5.523   5.145   0.745 -1.4479  0.3345 -1.5225
  175MOL    H2024728   5.375   5.109   0.827 -0.4847  1.0041 -1.7104
  175MOL    H2124729   5.374   5.327   0.728 -0.6539  0.2292  0.3759
  175MOL    H2224730   5.494   5.377   0.860 -0.8363  0.6276  0.1876
  175MOL    C2324731   5.241   5.457   0.910 -0.0791  0.0183  0.1780
  175MOL    C2424732   5.326   5.572   0.965  0.7634 -0.0905 -0.3566
  175MOL    O2524733   5.415   5.624   0.863 -0.6862 -0.9917  0.0631
  175MOL    H2624734   5.201   5.470   0.810 -1.4553 -0.5418  0.6351
  175MOL    H2724735   5.158   5.446   0.981  1.0849 -2.2049  1.2535
  175MOL    H2824736   5.378   5.549   1.058  0.7667  0.5521 -0.1962
  175MOL    H2924737   5.262   5.657   0.987  0.0764 -0.6869 -0.0568
  175MOL    C3024738   5.511   5.722   0.914 -0.2477  0.3117 -0.5734
  175MOL    C3124739   5.600   5.759   0.790  0.3676 -0.4412  0.2973
  175MOL    O3224740   5.679   5.879   0.795  0.0262  1.0486 -0.4180
  175MOL    H3324741   5.462   5.814   0.945  0.5355  0.5325  0.0131
  175MOL    H3424742   5.576   5.683   0.992 -0.7852 -0.2232 -0.3990
  175MOL    H3524743   5.532   5.772   0.706  1.3965  0.0862 -0.4719
  175MOL    H3624744   5.666   5.677   0.760  0.5115 -0.4922  0.7402
  175MOL    C3724745   5.782   5.881   0.892 -0.4568 -0.7299 -0.2456
  175MOL    C3824746   5.786   6.020   0.957  0.2896  1.3378  0.7113
  175MOL    O3924747   5.683   6.028   1.059  0.7129  0.1780  0.3986
  175MOL    H4024748   5.770   5.801   0.964  0.4731 -0.3370  0.3602
  175MOL    H4124749   5.877   5.858   0.844  1.4387  2.3200  1.8742
  175MOL    H4224750   5.785   6.097   0.879  0.1451 -0.2176 -0.8407
  175MOL    H4324751   5.886   6.037   0.999  1.4240 -1.2113 -0.8359
  175MOL    C4424752   5.690   6.139   1.144 -0.4319 -0.2515 -0.0676
  175MOL    C4524753   5.795   6.104   1.255  0.0561  0.0005  0.2118
  175MOL    O4624754   5.908   6.184   1.230 -0.3539 -0.6546  0.1200
  175MOL    H4724755   5.718   6.225   1.084 -1.2857 -0.4277 -0.7282
  175MOL    H4824756   5.596   6.162   1.195  0.6145 -0.1481  1.8610
  175MOL    H4924757   5.823   6.000   1.242  0.6564  0.2658 -0.6395
  175MOL    H5024758   5.751   6.125   1.353 -2.0224 -0.9179 -0.5056
  175MOL    C5124759   5.984   6.201   1.358 -0.0357 -0.0668 -0.2027
  175MOL    C5224760   6.120   6.266   1.321 -0.1579 -0.5805  0.0986
  175MOL    O5324761   6.223   6.165   1.310 -0.1004  0.0559 -0.1697
  175MOL    H5424762   5.945   6.278   1.425  1.1738  0.0464  0.3898
  175MOL    H5524763   6.006   6.109   1.412  1.3435 -0.5970 -1.6219
  175MOL    H5624764   6.147   6.337   1.399 -0.6310  2.1544 -2.1441
  175MOL    H5724765   6.117   6.323   1.228  0.9057 -2.1595 -0.9392
  175MOL    C5824766   6.298   6.154   1.436  0.0916 -0.0341 -0.1507
  175MOL    C5924767   6.415   6.247   1.451 -0.1506 -0.0780 -0.4362
  175MOL    O6024768   6.381   6.351   1.536  0.2044  0.2230  0.3640
  175MOL    H6124769   6.225   6.164   1.517  1.9571  1.3611  1.3763
  175MOL    H6224770   6.336   6.052   1.444  2.9679  1.1287  1.8617
  175MOL    H6324771   6.421   6.285   1.349 -2.0647 -1.7974 -1.2141
  175MOL    H6424772   6.516   6.214   1.475 -0.7984 -2.2204 -0.6059
  175MOL    C6524773   6.471   6.459   1.521  0.1017 -0.6608 -0.0923
  175MOL    C6624774   6.433   6.581   1.606 -0.2749  0.1442  0.1531
  175MOL    O6724775   6.415   6.537   1.745 -0.1791 -0.2716  0.4486
  175MOL    H6824776   6.574   6.440   1.553  0.8033  1.0799 -1.2274
  175MOL    H6924777   6.479   6.494   1.418 -1.0181  1.0452  0.3760
  175MOL    H7024778   6.334   6.621   1.585  0.7148  1.0941 -2.9162
  175MOL    H7124779   6.501   6.666   1.602 -0.8521  0.5664 -1.0066
  175MOL    C7224780   6.416   6.642   1.845 -0.0202 -0.5993  0.2039
  175MOL    C7324781   6.326   6.586   1.956  0.1185  0.0652 -0.0841
  175MOL    O7424782   6.382   6.478   2.035  0.0327  0.1898  0.5095
  175MOL    H7524783   6.517   6.666   1.879 -0.4886 -0.8602  1.8153
  175MOL    H7624784   6.370   6.734   1.808  2.0126  1.2790  2.1584
  175MOL    H7724785   6.221   6.570   1.929 -0.1867  2.5713 -0.4195
  175MOL    H7824786   6.324   6.665   2.031  0.5791 -0.3798  0.4064
  175MOL    C7924787   6.291   6.429   2.136 -0.2943 -0.2735  0.1720
  175MOL    C8024788   6.365   6.333   2.231  0.0697  0.0984 -0.1261
  175MOL    O8124789   6.384   6.370   2.366 -0.4792 -0.3189  0.0887
  175MOL    H8224790   6.250   6.508   2.199 -1.1696  1.2361 -2.2363
  175MOL    H8324791   6.210   6.370   2.093  1.1086 -2.8656  0.9173
  175MOL    H8424792   6.463   6.316   2.188  0.2974 -0.8211  0.7462
  175MOL    H8524793   6.324   6.233   2.223 -0.1222  0.2865 -1.6116
  175MOL    C8624794   6.470   6.472   2.400 -0.1415 -0.0389 -0.2939
  175MOL    C8724795   6.473   6.490   2.552 -0.3806 -0.4844 -0.2201
  175MOL    O8824796   6.549   6.388   2.611 -0.1795  0.0343 -0.2975
  175MOL    H8924797   6.569   6.461   2.355 -0.9198 -1.4290 -1.6735
  175MOL    H9024798   6.434   6.564   2.355  1.9399  1.1125  0.3110
  175MOL    H9124799   6.373   6.512   2.587 -1.0203 -1.4760 -1.4046
  175MOL    H9224800   6.519   6.588   2.566  0.9462 -1.0606 -0.4079
  175MOL    C9324801   6.523   6.377   2.752 -0.0571  0.3116  0.7825
  175MOL    C9424802   6.609   6.281   2.817 -0.0165 -0.2232  0.1650
  175MOL    O9524803   6.739   6.323   2.807 -0.3715  0.2255 -0.3426
  175MOL    H9624804   6.554   6.469   2.801  0.6713  0.4317  0.0928
  175MOL    H9724805   6.418   6.354   2.774 -1.9273  6.1843 -0.9908
  175MOL    H9824806   6.597   6.178   2.782 -1.1046 -0.4020  1.0641
  175MOL    H9924807   6.569   6.281   2.918  1.6739  0.7681  0.8571
  175MOL   C10024808   6.840   6.246   2.873  0.2964 -0.3834  0.2827
  175MOL   C10124809   6.987   6.302   2.846  0.3758 -0.1202 -0.0168
  175MOL   O10224810   7.063   6.312   2.966  0.2642 -0.8257  0.6736
  175MOL   H10324811   6.829   6.266   2.980  0.7766  1.7352 -0.0468
  175MOL   H10424812   6.845   6.140   2.850 -1.9083 -0.0303 -2.0666
  175MOL   H10524813   6.974   6.394   2.788  0.7592  1.3087  2.0937
  175MOL   H10624814   7.044   6.239   2.778 -1.4491 -0.7934 -0.9369
  175MOL   C10724815   7.039   6.425   3.047  0.2920  0.0771  0.2634
  175MOL   C10824816   7.142   6.432   3.161 -0.7962  0.1455  0.0662
  175MOL   O10924817   7.112   6.341   3.255 -0.0183 -0.3412 -0.7700
  175MOL   H11024818   7.041   6.510   2.979  0.6117 -0.8065 -0.8612
  175MOL   H11124819   6.943   6.408   3.097  0.7187  0.9622  1.3935
  175MOL   H11224820   7.139   6.529   3.209  0.7766  0.6903 -0.9060
  175MOL   H11324821   7.241   6.421   3.118 -0.0426 -0.7120  1.9453
  175MOL   C11424822   7.222   6.297   3.339 -0.3720  0.2259  0.2470
  175MOL   C11524823   7.181   6.242   3.476  0.1448  0.8275  0.0318
  175MOL   O11624824   7.144   6.340   3.564 -0.2879  0.0921  0.6025
  175MOL   H11724825   7.263   6.213   3.283  0.2126  2.1283 -2.2639
  175MOL   H11824826   7.294   6.379   3.346  0.6104 -0.7211  1.3919
  175MOL   H11924827   7.273   6.196   3.512 -0.4980 -2.1520 -1.9358
  175MOL   H12024828   7.103   6.166   3.468  0.0517  0.8456  0.7363
  175MOL   C12124829   7.148   6.307   3.701  0.4200  0.0914  0.1744
  175MOL   C12224830   7.279   6.363   3.753  0.3267  0.7231 -0.3711
  175MOL   O12324831   7.389   6.273   3.743  0.1997  0.4759  0.7082
  175MOL   H12424832   7.069   6.370   3.742 -1.2653 -0.0156 -2.7081
  175MOL   H12524833   7.109   6.211   3.734 -1.7058 -0.1627 -2.8364
  175MOL   H12624834   7.262   6.406   3.852 -1.0336  0.1074 -0.3270
  175MOL   H12724835   7.305   6.450   3.691  1.1345 -0.3783 -1.6081
  175MOL   C12824836   7.373   6.157   3.824  0.1200 -0.7637 -0.1286
  175MOL   C12924837   7.511   6.096   3.839 -0.6690 -0.7296 -0.4847
  175MOL   O13024838   7.567   6.166   3.950  0.3128  0.1281 -0.2809
  175MOL   H13124839   7.335   6.180   3.924  0.7060 -1.2551  0.2124
  175MOL   H13224840   7.306   6.083   3.780  0.3336 -0.8322 -0.3388
  175MOL   H13324841   7.573   6.088   3.749 -0.3549  0.4585 -0.3816
  175MOL   H13424842   7.495   5.992   3.866  0.8388 -1.7331 -3.2437
  175MOL   C13524843   7.695   6.117   3.990 -0.4703 -0.0848  0.7999
  175MOL   C13624844   7.729   6.168   4.126  0.3532 -0.3028  0.4483
  175MOL   O13724845   0.038   6.067   4.191 -0.2623 -0.0214 -0.2401
  175MOL   H13824846   7.694   6.008   3.999 -1.3714 -0.2963 -1.5573
  175MOL   H13924847   0.009   6.139   3.925  1.0222 -0.9503  2.4379
  175MOL   H14024848   7.641   6.182   4.188  0.9330 -1.7561  1.6268
  175MOL   H14124849   0.007   6.265   4.131 -0.3127  0.0921 -0.5106
  175MOL   H14224850   7.751   6.000   4.223  1.3461 -1.9948 -1.3105
  176MOL     C124851   1.483   1.119   6.401 -0.2995  0.2604 -0.5239
  176MOL     C224852   1.514   1.096   6.248 -0.1231 -0.7589 -0.1763
  176MOL     O324853   1.388   1.080   6.190  0.2871  0.0152 -0.7881
  176MOL     H424854   1.571   1.107   6.464  0.1316 -0.6571 -1.2864
  176MOL     H524855   1.401   1.060   6.442 -0.0690  0.6777  0.5326
  176MOL     H624856   1.579   1.010   6.230  1.8386  0.7274 -0.2889
  176MOL     H724857   1.567   1.180   6.204  0.6340 -1.2248 -0.1660
  176MOL     H824858   1.447   1.220   6.421  2.3725  0.7799  2.0162
  176MOL     C924859   1.370   1.135   6.059  0.3763 -0.2918 -0.0494
  176MOL    C1024860   1.222   1.138   6.019 -0.8185  0.0542  0.6681
  176MOL    O1124861   1.191   1.235   5.921  0.0140 -0.3798  0.0167
  176MOL    H1224862   1.399   1.240   6.057  1.0602 -0.4289  1.7563
  176MOL    H1324863   1.426   1.077   5.986  0.8573  0.6399 -0.4312
  176MOL    H1424864   1.159   1.153   6.107 -1.8124  0.3531 -0.0807
  176MOL    H1524865   1.206   1.040   5.975  1.0784 -0.6156  1.4355
  176MOL    C1624866   1.055   1.234   5.870  0.6541 -0.1189 -0.0302
  176MOL    C1724867   1.026   1.138   5.756 -0.2628 -0.3423 -0.4154
  176MOL    O1824868   0.997   1.010   5.812 -0.0336  0.5401  0.0191
  176MOL    H1924869   0.986   1.225   5.954  0.3839  0.4321 -0.1945
  176MOL    H2024870   1.045   1.333   5.826  0.9600 -0.5024 -0.9864
  176MOL    H2124871   1.102   1.147   5.678  0.3591  2.6291  0.4474
  176MOL    H2224872   0.931   1.167   5.711  0.4869  1.0613 -1.1485
  176MOL    C2324873   0.944   0.923   5.718 -0.1718 -0.3569 -0.9053
  176MOL    C2424874   0.922   0.788   5.794  0.6194 -0.3110 -0.6489
  176MOL    O2524875   1.039   0.714   5.821 -0.4915  0.7143 -0.5509
  176MOL    H2624876   0.844   0.954   5.688 -0.7860 -0.9993  0.4076
  176MOL    H2724877   1.009   0.900   5.634  0.3100 -2.1936 -0.0651
  176MOL    H2824878   0.849   0.723   5.745  0.8050 -0.4280 -0.7653
  176MOL    H2924879   0.874   0.807   5.891  1.8018  1.0374 -0.3186
  176MOL    C3024880   1.014   0.572   5.860 -0.0417 -0.4959  0.4437
  176MOL    C3124881   0.957   0.549   6.006 -0.7368  0.5748  0.5169
  176MOL    O3224882   0.818   0.573   6.006  0.9829 -0.2945 -0.4619
  176MOL    H3324883   0.949   0.528   5.783 -0.4537 -0.2267  0.6365
  176MOL    H3424884   1.108   0.517   5.859 -0.0121 -0.4490 -1.1343
  176MOL    H3524885   1.019   0.602   6.078 -0.7052  0.0205  0.9014
  176MOL    H3624886   0.968   0.443   6.029  0.0819  0.0293 -2.2639
  176MOL    C3724887   0.742   0.518   6.115 -0.2764 -0.1287  0.1333
  176MOL    C3824888   0.589   0.532   6.107  0.7174 -0.1397 -0.0026
  176MOL    O3924889   0.530   0.452   6.001 -0.1297 -0.3512 -0.8134
  176MOL    H4024890   0.765   0.412   6.105 -1.2088 -0.2898 -0.3409
  176MOL    H4124891   0.776   0.561   6.210  0.5150  1.7242 -0.9631
  176MOL    H4224892   0.557   0.636   6.103  0.4650 -0.2659 -1.5235
  176MOL    H4324893   0.540   0.498   6.198  1.5980  2.5822  1.5409
  176MOL    C4424894   0.576   0.465   5.867  0.2477  0.4811  1.0276
  176MOL    C4524895   0.506   0.368   5.779  0.2606 -0.1594  0.5969
  176MOL    O4624896   0.551   0.230   5.796 -0.1307 -0.0488 -0.0519
  176MOL    H4724897   0.556   0.565   5.827  1.7233  1.2017  2.0436
  176MOL    H4824898   0.682   0.443   5.853  0.0783  0.9728 -1.3565
  176MOL    H4924899   0.513   0.395   5.674  0.6608 -0.3002  0.5863
  176MOL    H5024900   0.399   0.384   5.792  0.0334 -2.2201  1.3382
  176MOL    C5124901   0.526   0.167   5.919  0.4695 -0.7384  0.6525
  176MOL    C5224902   0.545   0.020   5.897 -0.3336  0.3664  0.3260
  176MOL    O5324903   0.445   7.744   5.814  0.0985 -0.0232  0.4309
  176MOL    H5424904   0.605   0.213   5.979  1.5628 -1.2400 -0.3900
  176MOL    H5524905   0.432   0.199   5.964  1.1476 -0.0115  1.5893
  176MOL    H5624906   0.553   7.737   5.992  1.6860 -0.8356 -0.5110
  176MOL    H5724907   0.639   0.009   5.842 -1.1006  0.0599 -0.9428
  176MOL    C5824908   0.435   7.603   5.827  0.0833 -0.6577  0.7660
  176MOL    C5924909   0.356   7.543   5.713  0.0766  0.3139 -0.4141
  176MOL    O6024910   0.393   7.598   5.591 -0.3067  0.2011  0.5836
  176MOL    H6124911   0.534   7.559   5.836  1.1019  1.3190 -0.4338
  176MOL    H6224912   0.387   7.578   5.921 -0.2181  0.7749  0.9895
  176MOL    H6324913   0.256   7.584   5.727  0.3026  0.4379  0.8454
  176MOL    H6424914   0.359   7.434   5.711 -1.7347  0.2451 -0.6950
  176MOL    C6524915   0.500   7.530   5.519  0.3863 -0.4736  0.1102
  176MOL    C6624916   0.515   7.601   5.386  0.1920 -0.1012 -0.8168
  176MOL    O6724917   0.417   7.552   5.296 -0.0889  0.5868 -0.3718
  176MOL    H6824918   0.596   7.514   5.569  0.8561 -1.1038 -0.9878
  176MOL    H6924919   0.459   7.432   5.492 -1.5460  1.1112 -2.9200
  176MOL    H7024920   0.616   7.588   5.346  0.8650  2.5066 -0.1135
  176MOL    H7124921   0.497   7.708   5.401  0.7607 -0.2378  1.0070
  176MOL    C7224922   0.394   7.635   5.183  0.0783  0.6351 -0.7199
  176MOL    C7324923   0.320   7.561   5.066  0.2963  0.3694  0.2793
  176MOL    O7424924   0.179   7.559   5.095  0.3063 -0.0640  0.1590
  176MOL    H7524925   0.331   7.722   5.203 -0.4333  0.0090  0.5069
  176MOL    H7624926   0.483   7.680   5.139 -0.3934  0.7929 -1.5139
  176MOL    H7724927   0.375   7.466   5.063  1.0384  0.7691  0.8312
  176MOL    H7824928   0.344   7.603   4.968 -0.7781  0.2568 -0.0325
  176MOL    C7924929   0.106   7.487   4.993  0.5544  0.2590 -0.8406
  176MOL    C8024930   0.131   7.334   4.999 -1.0335  0.1481 -0.5588
  176MOL    O8124931   0.232   7.303   4.902  0.1188 -0.3393  0.0535
  176MOL    H8224932   7.771   7.507   5.006 -0.1181 -2.8215 -1.2652
  176MOL    H8324933   0.110   7.539   4.898  1.4977  1.4748 -0.1555
  176MOL    H8424934   0.042   7.274   4.979 -1.5047 -0.0127  1.8492
  176MOL    H8524935   0.147   7.301   5.102  0.3486 -0.2181 -0.8787
  176MOL    C8624936   0.210   7.168   4.858 -0.0693  0.2249 -0.5177
  176MOL    C8724937   0.327   7.136   4.765  0.3855 -0.4961  0.8347
  176MOL    O8824938   0.444   7.147   4.844  0.3446  0.3616  0.8754
  176MOL    H8924939   0.204   7.091   4.934  0.6564  0.3847 -0.3014
  176MOL    H9024940   0.124   7.159   4.791  0.0555 -1.1616 -0.5073
  176MOL    H9124941   0.334   7.209   4.684  0.9707  1.3399  2.5217
  176MOL    H9224942   0.319   7.034   4.727  0.4924 -0.2528  0.1538
  176MOL    C9324943   0.566   7.131   4.768  0.2897 -0.1545  0.0684
  176MOL    C9424944   0.689   7.104   4.861 -0.1798  0.2865 -0.1571
  176MOL    O9524945   0.704   6.961   4.880  0.5565  0.2440 -0.1764
  176MOL    H9624946   0.561   7.050   4.695  1.3712  0.7439 -1.0526
  176MOL    H9724947   0.583   7.229   4.721 -0.0216  0.1538  0.5985
  176MOL    H9824948   0.672   7.163   4.951 -2.0566  0.8826 -0.8638
  176MOL    H9924949   0.775   7.137   4.803 -0.1492  0.7691  0.1591
  176MOL   C10024950   0.807   6.928   4.967 -0.0077  0.1198 -0.4942
  176MOL   C10124951   0.837   6.780   4.944  0.5358 -0.4325  0.2524
  176MOL   O10224952   0.743   6.696   5.009 -0.1818 -0.1498 -0.1260
  176MOL   H10324953   0.887   6.993   4.931 -0.7153  0.7940 -0.8793
  176MOL   H10424954   0.778   6.952   5.069 -0.4342  1.4613 -0.9171
  176MOL   H10524955   0.937   6.747   4.972  0.1414 -0.6269  1.4266
  176MOL   H10624956   0.831   6.771   4.835 -0.8666  0.4733  0.2303
  176MOL   C10724957   0.767   6.558   4.983 -0.1265 -0.0933  0.6294
  176MOL   C10824958   0.675   6.477   5.063  0.4963 -0.8665 -0.1908
  176MOL   O10924959   0.551   6.457   4.987 -0.5713  0.3887  0.0298
  176MOL   H11024960   0.750   6.553   4.876  1.1087  1.5357  0.3241
  176MOL   H11124961   0.864   6.528   5.024 -0.6707 -0.4917  1.6552
  176MOL   H11224962   0.656   6.511   5.165  1.2138 -4.1907  1.0989
  176MOL   H11324963   0.710   6.375   5.072 -0.7216 -1.5056 -2.3264
  176MOL   C11424964   0.445   6.425   5.070  0.2330 -0.2669  0.1846
  176MOL   C11524965   0.314   6.386   4.997  0.8337 -0.0801  1.0917
  176MOL   O11624966   0.300   6.254   4.963  0.2279  0.2318  0.5583
  176MOL   H11724967   0.483   6.350   5.139 -0.2048  0.9402  1.7656
  176MOL   H11824968   0.425   6.514   5.129 -1.2723 -0.0396 -0.6562
  176MOL   H11924969   0.307   6.447   4.907  1.5907  1.5189  2.1045
  176MOL   H12024970   0.219   6.414   5.043 -1.2400  0.0882 -2.9801
  176MOL   C12124971   0.249   6.164   5.061 -0.1520 -0.2810  0.2126
  176MOL   C12224972   0.279   6.019   5.036 -0.3845  0.0973  0.0853
  176MOL   O12324973   0.199   5.973   4.929 -0.0446 -0.0843 -0.5889
  176MOL   H12424974   0.300   6.189   5.154 -0.6513  0.2143  0.3575
  176MOL   H12524975   0.144   6.182   5.083 -0.5171 -1.7908 -0.2890
  176MOL   H12624976   0.262   5.960   5.126  0.3438 -1.4820 -0.8060
  176MOL   H12724977   0.386   6.014   5.017 -0.3628 -0.1838  0.2856
  176MOL   C12824978   0.249   5.849   4.880 -0.3171  0.2626  0.9115
  176MOL   C12924979   0.140   5.781   4.803  0.9433  0.4591 -1.1023
  176MOL   O13024980   0.051   5.725   4.895  0.1318  0.0925  0.3257
  176MOL   H13124981   0.331   5.869   4.812 -1.2492 -0.7097 -0.5493
  176MOL   H13224982   0.284   5.792   4.966 -1.3877 -1.4284  0.2704
  176MOL   H13324983   0.189   5.715   4.731  0.0016 -0.6815 -0.7259
  176MOL   H13424984   0.087   5.849   4.737  0.0667  0.5253 -0.3417
  176MOL   C13524985   7.719   5.649   4.827  0.7012 -0.2917 -0.2286
  176MOL   C13624986   7.627   5.578   4.938 -0.2541 -0.0377  0.2630
  176MOL   O13724987   7.530   5.663   5.000  0.1927 -0.0628  0.1846
  176MOL   H13824988   7.664   5.709   4.755  3.3815 -0.2574 -2.3194
  176MOL   H13924989   7.765   5.565   4.776  0.1272 -1.5548  1.2798
  176MOL   H14024990   7.683   5.552   5.027 -0.1970 -0.6832  0.0420
  176MOL   H14124991   7.585   5.485   4.899 -1.2681  0.0173  1.1876
  176MOL   H14224992   7.576   5.729   5.048 -1.1344  1.4948 -0.6321
  177MOL     C124993   6.982   2.180   7.180 -0.0517 -0.7560  0.1053
  177MOL     C224994   7.073   2.298   7.149 -0.5750  0.1693 -0.2536
  177MOL     O324995   7.201   2.238   7.158 -0.3337  0.3341  0.8123
  177MOL     H424996   7.005   2.103   7.106  2.2560 -0.8548  0.8706
  177MOL     H524997   6.877   2.207   7.186  0.1791  0.5358 -1.2519
  177MOL     H624998   7.061   2.385   7.214 -1.0962  0.8606 -1.2758
  177MOL     H724999   7.056   2.341   7.051  1.0691 -2.9411 -1.9956
  177MOL     H825000   7.013   2.143   7.278  2.8918  0.9288 -0.1056
  177MOL     C925001   7.301   2.309   7.086 -0.1322  0.7218  0.0245
  177MOL    C1025002   7.432   2.241   7.126  0.2868  0.0236  0.2761
  177MOL    O1125003   7.475   2.270   7.259  0.3718 -0.7122  0.1809
  177MOL    H1225004   7.279   2.298   6.979  1.0547  3.7056 -0.5788
  177MOL    H1325005   7.299   2.415   7.109 -0.6990  1.1713 -1.9347
  177MOL    H1425006   7.512   2.277   7.062 -0.8533  0.8182 -0.7152
  177MOL    H1525007   7.417   2.133   7.120  2.5296 -0.3514  0.9399
  177MOL    C1625008   7.618   2.261   7.272  0.8572  0.3985 -0.3231
  177MOL    C1725009   7.668   2.306   7.410 -0.1687 -0.0146  0.1276
  177MOL    O1825010   7.662   2.449   7.411  0.2131 -0.1806  0.0921
  177MOL    H1925011   7.643   2.155   7.265  0.8067  0.3428  0.3207
  177MOL    H2025012   7.660   2.320   7.190 -0.9502 -0.4150 -1.8719
  177MOL    H2125013   0.001   2.276   7.425 -0.1615  0.7896  1.7635
  177MOL    H2225014   7.601   2.269   7.487 -1.1221 -0.1929 -0.7624
  177MOL    C2325015   7.746   2.510   7.508 -0.2643  0.1791  0.7434
  177MOL    C2425016   7.648   2.562   7.615  0.0003 -0.1129  0.3433
  177MOL    O2525017   7.581   2.684   7.584  0.2388  0.4945  0.0356
  177MOL    H2625018   0.048   2.445   7.556  1.0143  0.1222 -1.1970
  177MOL    H2725019   0.029   2.588   7.454  0.5537 -0.3986  0.7223
  177MOL    H2825020   7.697   2.583   7.710 -1.8853  0.3278  1.2486
  177MOL    H2925021   7.575   2.484   7.638 -0.8192  0.3939 -0.4710
  177MOL    C3025022   7.472   2.716   7.678 -0.4599 -0.5860  0.1821
  177MOL    C3125023   7.408   2.855   7.656 -0.1151 -0.3100  0.7584
  177MOL    O3225024   7.496   2.952   7.714  1.0171  0.2721  0.8429
  177MOL    H3325025   7.392   2.642   7.672 -1.6460  0.5086  2.2041
  177MOL    H3425026   7.511   2.702   0.008  1.9810 -1.1568 -0.7984
  177MOL    H3525027   7.310   2.869   7.702 -1.1676  1.5724 -1.9458
  177MOL    H3625028   7.396   2.866   7.549 -0.3395 -1.2851  0.6813
  177MOL    C3725029   7.434   3.080   7.693 -0.0298 -0.2798  0.3202
  177MOL    C3825030   7.539   3.189   7.741  0.3930 -0.9013  0.4674
  177MOL    O3925031   7.499   3.313   7.679 -0.1354  0.1179  0.5496
  177MOL    H4025032   7.413   3.092   7.587 -0.9145 -0.7992  0.4320
  177MOL    H4125033   7.335   3.078   7.738 -0.5379 -2.1333 -0.8250
  177MOL    H4225034   7.625   3.148   7.689  0.1744 -0.5930 -0.1447
  177MOL    H4325035   7.552   3.187   0.078 -0.2174 -1.1887  0.5423
  177MOL    C4425036   7.394   3.382   7.746  0.1324 -0.1504  0.1298
  177MOL    C4525037   7.368   3.513   7.665  0.9482 -0.4459 -0.9970
  177MOL    O4625038   7.486   3.577   7.624  0.2901  1.0348 -0.3202
  177MOL    H4725039   7.306   3.318   7.752  1.7027 -2.3453  0.0517
  177MOL    H4825040   7.407   3.407   0.080 -0.7512 -1.0750  0.4720
  177MOL    H4925041   7.292   3.568   7.719 -1.2026 -4.5295  0.3770
  177MOL    H5025042   7.311   3.482   7.578  0.2740 -0.1706 -0.6583
  177MOL    C5125043   7.452   3.713   7.581 -0.5833 -0.3942  0.3341
  177MOL    C5225044   7.580   3.785   7.526  0.1012 -0.3619 -0.1509
  177MOL    O5325045   7.665   3.789   7.632  0.1143  0.7473 -0.0333
  177MOL    H5425046   7.380   3.718   7.499 -0.5619  1.2825  0.3957
  177MOL    H5525047   7.402   3.765   7.663  0.1074 -0.0833  0.5643
  177MOL    H5625048   7.550   3.888   7.508  0.5615 -0.5783 -2.3746
  177MOL    H5725049   7.620   3.735   7.438 -0.5001 -2.2418  0.6244
  177MOL    C5825050   0.009   3.866   7.612 -0.4593 -0.2450 -0.5057
  177MOL    C5925051   0.096   3.864   7.735 -0.4576  0.0132  0.1792
  177MOL    O6025052   0.035   3.939   0.062 -0.2122 -0.2885  0.0129
  177MOL    H6125053   0.064   3.830   7.525  2.3324 -1.5795  1.7282
  177MOL    H6225054   7.758   3.968   7.580  0.1635 -0.1895 -0.7723
  177MOL    H6325055   0.194   3.906   7.716 -0.4271  0.2925  0.9832
  177MOL    H6425056   0.118   3.761   7.764  0.1534 -0.0245 -0.3946
  177MOL    C6525057   0.120   3.963   0.173 -0.2983 -0.0406  0.2572
  177MOL    C6625058   0.229   4.069   0.138 -0.2379 -0.3920  0.0349
  177MOL    O6725059   0.351   4.023   0.080  0.5031  0.0097  0.2996
  177MOL    H6825060   0.053   4.017   0.240  0.0114  1.8391 -0.9366
  177MOL    H6925061   0.158   3.876   0.227  3.5113  1.9663  0.9830
  177MOL    H7025062   0.254   4.139   0.219  0.4080 -1.9201  1.1857
  177MOL    H7125063   0.190   4.122   0.052 -0.5113  1.2268  1.1346
  177MOL    C7225064   0.420   4.132   0.016 -0.2528  0.6951  0.6041
  177MOL    C7325065   0.503   4.065   7.679 -0.0430  0.1457 -1.0062
  177MOL    O7425066   0.425   4.017   7.568  0.6508  0.1439  0.2947
  177MOL    H7525067   0.370   4.202   7.721 -0.9254 -0.1236  0.2344
  177MOL    H7625068   0.482   4.186   0.088 -0.8589  0.5178  1.2637
  177MOL    H7725069   0.565   3.993   7.733 -1.1170  1.1729  1.6451
  177MOL    H7825070   0.564   4.145   7.636  0.0726  0.6061  0.0108
  177MOL    C7925071   0.501   4.002   7.449  0.3741 -0.1826 -0.1428
  177MOL    C8025072   0.420   3.932   7.345 -0.3579  0.6514  0.4846
  177MOL    O8125073   0.486   3.803   7.320 -1.2381 -0.5992  0.0962
  177MOL    H8225074   0.540   4.099   7.416  0.7483 -0.3973 -0.3389
  177MOL    H8325075   0.591   3.946   7.474 -0.3977 -1.5182 -0.3327
  177MOL    H8425076   0.412   3.991   7.254 -0.3074 -2.9222 -1.9599
  177MOL    H8525077   0.312   3.920   7.361 -0.5334  1.4952 -0.0108
  177MOL    C8625078   0.423   3.716   7.230  0.4476 -0.0093  0.2950
  177MOL    C8725079   0.511   3.590   7.206  0.0655  0.0721 -0.1469
  177MOL    O8825080   0.510   3.564   7.066  0.1827 -0.4947 -0.2046
  177MOL    H8925081   0.321   3.690   7.257 -0.4036  2.7079 -0.1457
  177MOL    H9025082   0.416   3.776   7.139 -0.4997 -1.2495 -0.4753
  177MOL    H9125083   0.483   3.506   7.271  1.6680  0.7186  1.4288
  177MOL    H9225084   0.613   3.608   7.239  1.0266 -2.3557 -1.6274
  177MOL    C9325085   0.567   3.438   7.030 -0.1059  0.1253 -0.4739
  177MOL    C9425086   0.535   3.405   6.885 -0.2621 -0.3045  0.1581
  177MOL    O9525087   0.631   3.485   6.803 -0.4197  0.4263  0.2548
  177MOL    H9625088   0.675   3.433   7.047 -0.0937 -0.9931 -0.8325
  177MOL    H9725089   0.513   3.367   7.093 -0.9873 -0.8780 -2.3220
  177MOL    H9825090   0.430   3.428   6.870  0.0650  0.5075 -0.9825
  177MOL    H9925091   0.542   3.302   6.851  1.6002  0.5963 -2.4198
  177MOL   C10025092   0.606   3.475   6.664 -0.8648 -0.5460  0.4551
  177MOL   C10125093   0.681   3.571   6.576  0.9399 -0.3149 -0.2080
  177MOL   O10225094   0.799   3.526   6.508  0.4361  0.6393 -0.1993
  177MOL   H10325095   0.620   3.374   6.624  2.3158  0.1900 -0.4114
  177MOL   H10425096   0.498   3.489   6.652 -1.0345 -3.1671 -1.6091
  177MOL   H10525097   0.718   3.639   6.653 -0.5244 -2.1427  2.1735
  177MOL   H10625098   0.609   3.629   6.518  0.4652 -0.5012  0.1989
  177MOL   C10725099   0.869   3.632   6.454 -0.4295 -0.6245 -0.0834
  177MOL   C10825100   1.015   3.583   6.432  0.9567 -1.3309 -0.2542
  177MOL   O10925101   1.026   3.518   6.303  0.1850 -0.1076 -0.3874
  177MOL   H11025102   0.822   3.667   6.362 -0.1632 -1.5453 -0.5760
  177MOL   H11125103   0.881   3.715   6.524 -0.1438  0.8744 -1.8496
  177MOL   H11225104   1.047   3.522   6.517  1.5270 -2.6777 -1.4008
  177MOL   H11325105   1.074   3.675   6.433 -2.0087  0.6363 -0.7118
  177MOL   C11425106   1.130   3.421   6.271  0.0571  0.4652  0.0773
  177MOL   C11525107   1.183   3.448   6.134 -0.2414  0.6579  1.0498
  177MOL   O11625108   1.275   3.346   6.090 -0.3332 -0.7490 -0.4061
  177MOL   H11725109   1.204   3.425   6.350 -1.4858  0.4908  1.5480
  177MOL   H11825110   1.080   3.324   6.281  0.2295  0.6511  2.9906
  177MOL   H11925111   1.214   3.552   6.135  0.7970  0.3567  0.6202
  177MOL   H12025112   1.100   3.444   6.063 -1.3470 -1.0776  2.3830
  177MOL   C12125113   1.345   3.390   5.968 -0.7476  0.4848  0.4730
  177MOL   C12225114   1.451   3.286   5.912  0.5074 -0.3704 -0.4421
  177MOL   O12325115   1.568   3.281   5.997 -0.7156 -0.0742 -0.2924
  177MOL   H12425116   1.274   3.414   5.890  0.4142  1.8216 -0.1972
  177MOL   H12525117   1.400   3.481   5.992  0.5493 -0.3769  0.8691
  177MOL   H12625118   1.468   3.312   5.808 -0.5634 -0.0651 -0.5460
  177MOL   H12725119   1.413   3.184   5.912  0.9444 -0.5335 -0.8895
  177MOL   C12825120   1.694   3.258   5.925  1.2937 -0.0019  0.6978
  177MOL   C12925121   1.800   3.204   6.012 -0.7359 -0.4969  0.2803
  177MOL   O13025122   1.928   3.202   5.942  0.2886 -0.2282 -0.0520
  177MOL   H13125123   1.688   3.181   5.848  1.5879  0.1365  0.5375
  177MOL   H13225124   1.729   3.347   5.874 -0.1992  2.3041  3.5804
  177MOL   H13325125   1.785   3.102   6.047  1.8259 -0.0261  2.9915
  177MOL   H13425126   1.807   3.269   6.100 -0.8385  0.0504 -0.1090
  177MOL   C13525127   1.949   3.093   5.856 -0.0518  0.9066 -0.0980
  177MOL   C13625128   2.055   3.125   5.759 -0.1934 -0.0114  0.1178
  177MOL   O13725129   2.179   3.105   5.819  0.6606 -0.2330 -0.5066
  177MOL   H13825130   1.979   3.004   5.911  1.1308  0.5653 -1.2846
  177MOL   H13925131   1.861   3.073   5.795  0.6273  1.0121 -1.1266
  177MOL   H14025132   2.043   3.216   5.700  0.2232 -0.6154 -0.9105
  177MOL   H14125133   2.045   3.034   5.700 -0.3512  0.4197 -0.5216
  177MOL   H14225134   2.240   3.173   5.795  0.5598  0.5678  1.3877
  178MOL     C125135   1.006   1.085   5.338 -0.4185 -0.4175 -0.7482
  178MOL     C225136   1.001   1.229   5.274 -0.0092 -0.4698  0.4878
  178MOL     O325137   0.961   1.207   5.139 -0.3078 -0.1589 -0.3734
  178MOL     H425138   1.056   1.012   5.275  0.6644 -0.3460  0.0226
  178MOL     H525139   0.905   1.044   5.349  0.5036 -2.3962  0.5883
  178MOL     H625140   1.095   1.281   5.291 -0.3359 -0.5987  2.9096
  178MOL     H725141   0.928   1.292   5.325  1.3316 -1.3967  3.6934
  178MOL     H825142   1.059   1.094   5.433 -0.7581  2.4519 -0.7818
  178MOL     C925143   0.951   1.329   5.067  0.4998  0.0057  0.4968
  178MOL    C1025144   0.860   1.295   4.955  0.0773  0.1584 -0.2911
  178MOL    O1125145   0.794   1.415   4.907  0.0804 -0.7300 -0.2952
  178MOL    H1225146   0.910   1.410   5.128 -2.9362 -0.0995 -1.5596
  178MOL    H1325147   1.047   1.361   5.027  0.6407 -1.9962 -0.8261
  178MOL    H1425148   0.773   1.239   4.990 -0.3309  1.0964  0.2072
  178MOL    H1525149   0.909   1.241   4.874  0.6804  0.0618  0.1327
  178MOL    C1625150   0.856   1.475   4.790 -0.2854  0.0178 -0.1840
  178MOL    C1725151   0.799   1.612   4.754 -0.2893 -0.0311 -0.1257
  178MOL    O1825152   0.814   1.693   4.874 -0.4873 -0.4568  0.3979
  178MOL    H1925153   0.963   1.487   4.808 -0.0283 -0.7366 -1.0993
  178MOL    H2025154   0.848   1.406   4.705 -1.6216  0.2861 -0.2771
  178MOL    H2125155   0.694   1.599   4.727 -0.3063  1.4278 -0.8181
  178MOL    H2225156   0.854   1.641   4.664  0.8741 -2.0373 -0.0886
  178MOL    C2325157   0.797   1.825   4.842  0.3391 -0.0956  0.5448
  178MOL    C2425158   0.827   1.932   4.955 -0.1680 -0.2385  0.1440
  178MOL    O2525159   0.783   2.052   4.905 -0.1615 -0.2067 -0.1202
  178MOL    H2625160   0.855   1.857   4.755 -0.4646 -1.5930 -0.5623
  178MOL    H2725161   0.690   1.827   4.820  0.5974 -0.1842 -0.7703
  178MOL    H2825162   0.932   1.933   4.983 -0.2062  0.1075  0.2705
  178MOL    H2925163   0.774   1.897   5.044  0.3301 -0.9402  0.1689
  178MOL    C3025164   0.742   2.147   5.009 -0.0235 -0.3350  0.3319
  178MOL    C3125165   0.856   2.252   5.041  0.3201  0.0344 -0.0104
  178MOL    O3225166   0.838   2.370   4.958  0.0584 -0.1960 -0.2227
  178MOL    H3325167   0.653   2.194   4.968 -1.2197 -1.8502  1.1197
  178MOL    H3425168   0.715   2.098   5.103  0.3884 -0.1227  0.5606
  178MOL    H3525169   0.953   2.208   5.019  1.4135  2.4172 -0.0736
  178MOL    H3625170   0.854   2.274   5.148  0.7409  3.0513 -0.5830
  178MOL    C3725171   0.947   2.456   4.979 -0.2914 -0.1997 -0.7451
  178MOL    C3825172   0.905   2.587   5.036  0.3404  0.2029 -0.7638
  178MOL    O3925173   0.930   2.585   5.176 -0.1064 -0.5612  0.4845
  178MOL    H4025174   1.041   2.412   5.015  0.6700  2.8064  0.5293
  178MOL    H4125175   0.978   2.468   4.875  0.2857 -0.8467 -0.6536
  178MOL    H4225176   0.802   2.614   5.016  0.3954  0.7472 -0.3088
  178MOL    H4325177   0.967   2.670   5.002  1.6178  1.7254  4.7634
  178MOL    C4425178   0.882   2.707   5.231  0.2748 -0.4177 -0.9654
  178MOL    C4525179   0.919   2.707   5.380 -0.1640 -0.3672 -0.2099
  178MOL    O4625180   0.832   2.644   5.458  0.3493  0.2550 -0.2965
  178MOL    H4725181   0.944   2.786   5.189  0.9176 -0.7292 -0.6269
  178MOL    H4825182   0.776   2.722   5.212  0.3142  1.3860  0.1261
  178MOL    H4925183   0.938   2.811   5.405  1.9045 -0.8989  0.4868
  178MOL    H5025184   1.018   2.663   5.394  0.1553  0.7324  1.0202
  178MOL    C5125185   0.870   2.633   5.598  0.3392  0.3056  0.2214
  178MOL    C5225186   0.740   2.626   5.687 -0.3541  0.5548  0.1010
  178MOL    O5325187   0.704   2.760   5.719  0.3733 -0.2233  0.0897
  178MOL    H5425188   0.923   2.538   5.594 -0.7797 -0.3132 -0.1870
  178MOL    H5525189   0.938   2.713   5.630  2.2147 -0.9580 -0.5434
  178MOL    H5625190   0.767   2.575   5.780  0.8304 -0.6362 -0.8684
  178MOL    H5725191   0.667   2.555   5.647 -3.0111  0.4909  4.7826
  178MOL    C5825192   0.580   2.776   5.775 -0.6998  1.3775  0.5913
  178MOL    C5925193   0.585   2.909   5.848 -0.5997  0.7114 -0.0739
  178MOL    O6025194   0.651   2.888   5.970 -0.3379  0.1033  0.6617
  178MOL    H6125195   0.492   2.767   5.711 -0.2903  0.7472  0.1227
  178MOL    H6225196   0.550   2.701   5.848  1.3482  1.1506  1.2346
  178MOL    H6325197   0.485   2.952   5.848 -0.0149  2.0921 -1.0742
  178MOL    H6425198   0.658   2.977   5.802  1.0562 -1.9644 -1.5442
  178MOL    C6525199   0.656   3.002   6.058  0.4917 -0.3456  0.2284
  178MOL    C6625200   0.714   2.966   6.194  0.3758  0.4875 -0.5960
  178MOL    O6725201   0.624   2.938   6.291  0.3811  0.2797 -0.4216
  178MOL    H6825202   0.720   3.077   6.013 -0.2981  0.0745 -0.1993
  178MOL    H6925203   0.556   3.045   6.059  1.3440  1.7850 -1.8216
  178MOL    H7025204   0.774   3.054   6.219 -0.4062  0.6724  0.6813
  178MOL    H7125205   0.788   2.891   6.163  0.3614  0.2286 -0.0115
  178MOL    C7225206   0.557   2.812   6.278  0.4904 -0.3094  0.1733
  178MOL    C7325207   0.476   2.778   6.413  0.6715  0.1770  0.3847
  178MOL    O7425208   0.547   2.706   6.511 -0.0571 -0.3251  0.3316
  178MOL    H7525209   0.494   2.820   6.190  2.0597  2.9449 -0.6979
  178MOL    H7625210   0.631   2.733   6.261 -2.1297 -2.3416 -2.1934
  178MOL    H7725211   0.388   2.716   6.397  0.9681  0.3573 -2.2586
  178MOL    H7825212   0.442   2.878   6.441  2.4738  1.2389 -1.0172
  178MOL    C7925213   0.474   2.699   6.636  0.2201 -0.0205 -0.6540
  178MOL    C8025214   0.540   2.614   6.741  0.8296  0.2172  0.4147
  178MOL    O8125215   0.661   2.675   6.787  0.2925 -0.0624  0.2111
  178MOL    H8225216   0.452   2.792   6.690  3.1169 -0.2216  0.9732
  178MOL    H8325217   0.379   2.647   6.624  1.0917 -2.3437  1.8714
  178MOL    H8425218   0.562   2.522   6.687 -0.0418  0.1289  0.2001
  178MOL    H8525219   0.472   2.584   6.820  0.6015  0.9793  0.5128
  178MOL    C8625220   0.743   2.604   6.882  0.3601 -0.0249 -0.5765
  178MOL    C8725221   0.885   2.662   6.881 -1.2065  0.3106  0.0614
  178MOL    O8825222   0.873   2.801   6.891 -0.3442  0.2755  0.0658
  178MOL    H8925223   0.692   2.608   6.979  0.0293 -3.3316 -0.5727
  178MOL    H9025224   0.742   2.498   6.857 -1.3728  0.0390 -0.8766
  178MOL    H9125225   0.942   2.624   6.796 -0.6439 -1.8715  1.3641
  178MOL    H9225226   0.937   2.630   6.972  2.6555  1.2692 -1.7222
  178MOL    C9325227   1.000   2.865   6.909 -0.4416 -0.1856 -0.1122
  178MOL    C9425228   0.964   3.016   6.938 -0.3672  2.1083  0.6256
  178MOL    O9525229   0.927   3.044   7.077 -0.4912 -0.0048 -0.3077
  178MOL    H9625230   1.068   2.826   6.985  0.0467 -0.6731 -0.7974
  178MOL    H9725231   1.061   2.862   6.819  0.8294 -0.9828  0.7591
  178MOL    H9825232   0.895   3.059   6.865  0.0456  0.6697 -0.6332
  178MOL    H9925233   1.053   3.072   6.909  0.3870 -0.1501 -1.6248
  178MOL   C10025234   0.800   2.994   7.102  0.6430  0.3822 -0.2347
  178MOL   C10125235   0.755   3.055   7.236  0.2358  0.2896 -0.0758
  178MOL   O10225236   0.782   3.191   7.262 -0.1516 -0.0842 -0.7547
  178MOL   H10325237   0.728   3.024   7.026 -0.0529  2.3067  1.1458
  178MOL   H10425238   0.805   2.886   7.110 -0.1858  0.2526 -1.3940
  178MOL   H10525239   0.805   2.995   7.312  0.9659  1.2378  0.1971
  178MOL   H10625240   0.650   3.030   7.247  0.2309  0.5410  0.4630
  178MOL   C10725241   0.709   3.243   7.370  0.1004  0.0583 -0.0921
  178MOL   C10825242   0.744   3.383   7.406 -0.3601  0.6077 -0.0275
  178MOL   O10925243   0.658   3.441   7.500 -0.9728 -0.1347 -0.1769
  178MOL   H11025244   0.604   3.244   7.343  0.5617  0.2296 -1.9653
  178MOL   H11125245   0.710   3.183   7.461  0.4378  0.0635 -0.0927
  178MOL   H11225246   0.731   3.444   7.317 -0.2761 -0.4401 -0.7674
  178MOL   H11325247   0.850   3.382   7.429 -0.3331 -1.8574 -0.0663
  178MOL   C11425248   0.693   3.576   7.547 -0.5498  0.4916  0.4183
  178MOL   C11525249   0.557   3.630   7.604 -0.7641 -0.1603  0.0815
  178MOL   O11625250   0.523   3.578   7.733  0.3443  0.2524 -0.1872
  178MOL   H11725251   0.778   3.578   7.615 -1.4935  1.1724  1.6126
  178MOL   H11825252   0.714   3.644   7.464  0.4127  0.4379  0.6202
  178MOL   H11925253   0.476   3.615   7.533  0.2844  0.3636 -1.2475
  178MOL   H12025254   0.574   3.736   7.622 -3.1581  0.1985  0.3253
  178MOL   C12125255   0.444   3.669   0.027 -0.3661  0.6755  0.9280
  178MOL   C12225256   0.380   3.601   0.145 -0.4149  0.2142  0.0250
  178MOL   O12325257   0.271   3.525   0.098  0.4674  0.3608 -0.6093
  178MOL   H12425258   0.502   3.749   0.073  0.6717 -0.3956  1.5008
  178MOL   H12525259   0.371   3.702   7.724  2.4155  2.0497 -1.3064
  178MOL   H12625260   0.350   3.677   0.217 -1.7684  0.9473 -1.2860
  178MOL   H12725261   0.453   3.540   0.199 -1.6595 -0.9975  0.3843
  178MOL   C12825262   0.294   3.385   0.103 -0.2698 -0.2670  0.0222
  178MOL   C12925263   0.174   3.308   0.042 -0.4500  0.5737 -0.5264
  178MOL   O13025264   0.166   3.346   7.675  0.2242 -0.5095  0.3935
  178MOL   H13125265   0.379   3.374   0.035  0.9272  1.3673  1.2327
  178MOL   H13225266   0.314   3.367   0.208 -0.5808 -1.1338 -0.0624
  178MOL   H13325267   0.088   3.344   0.097  0.1492  2.6262 -0.9074
  178MOL   H13425268   0.179   3.199   0.053 -3.8502  0.4021 -0.1503
  178MOL   C13525269   0.058   3.441   7.645  0.3014  0.5650  0.3471
  178MOL   C13625270   0.056   3.457   7.490  0.1304  0.3019  0.6367
  178MOL   O13725271   0.181   3.504   7.443 -0.0383  0.6536 -0.4533
  178MOL   H13825272   7.729   3.414   7.679 -1.0533  1.1321 -3.0385
  178MOL   H13925273   0.091   3.532   7.695 -0.6240  1.3498 -0.4551
  178MOL   H14025274   7.747   3.523   7.458  0.5325  1.1688  1.3937
  178MOL   H14125275   0.033   3.365   7.435  0.0067  0.9832 -0.4703
  178MOL   H14225276   0.248   3.481   7.506  0.8278 -0.9877 -1.9040
  179MOL     C125277   4.790   3.142   2.490  1.6603  0.2705 -0.1849
  179MOL     C225278   4.682   3.043   2.528  0.1437  0.4022  0.0860
  179MOL     O325279   4.583   3.028   2.421  0.1262  0.1265  0.0250
  179MOL     H425280   4.844   3.098   2.406  1.9339 -3.4131  1.8429
  179MOL     H525281   4.861   3.142   2.572 -0.2086  0.1937  1.4783
  179MOL     H625282   4.629   3.077   2.618  0.7243  0.6046  0.3536
  179MOL     H725283   4.720   2.942   2.540  1.0551  0.3870 -2.6214
  179MOL     H825284   4.766   3.245   2.464 -1.4216 -0.5374 -0.7274
  179MOL     C925285   4.466   2.944   2.451 -0.1843 -0.0741  0.2368
  179MOL    C1025286   4.494   2.806   2.511  0.0563 -0.5015  0.4984
  179MOL    O1125287   4.519   2.795   2.649 -0.4482 -0.4321  0.6662
  179MOL    H1225288   4.407   2.998   2.525  0.8563  1.6289 -0.1242
  179MOL    H1325289   4.407   2.917   2.364 -1.9497 -0.2461  1.4576
  179MOL    H1425290   4.580   2.759   2.463  0.2694 -0.3601  0.7402
  179MOL    H1525291   4.405   2.745   2.492  1.8778 -3.4698  1.2402
  179MOL    C1625292   4.542   2.666   2.702  0.4559 -0.0703  0.3471
  179MOL    C1725293   4.638   2.685   2.823 -0.4593  0.2204 -0.0749
  179MOL    O1825294   4.577   2.767   2.920 -0.0310  0.2278  0.7005
  179MOL    H1925295   4.446   2.619   2.726  1.1030 -0.9846  1.1843
  179MOL    H2025296   4.589   2.606   2.624 -2.4851  0.9083 -2.2972
  179MOL    H2125297   4.738   2.719   2.795 -0.1723 -0.6838 -0.1422
  179MOL    H2225298   4.656   2.595   2.881  2.6570  0.3454 -0.7435
  179MOL    C2325299   4.613   2.908   2.899  0.1929 -0.0059 -0.3260
  179MOL    C2425300   4.619   2.979   3.039 -0.1832 -0.2638  0.0569
  179MOL    O2525301   4.506   3.064   3.044 -0.3662  0.3053 -0.2806
  179MOL    H2625302   4.709   2.931   2.853  0.8968  0.1351  1.1989
  179MOL    H2725303   4.541   2.965   2.840 -0.4012  0.0839  0.4695
  179MOL    H2825304   4.711   3.037   3.045 -1.3724  2.1024 -2.9697
  179MOL    H2925305   4.622   2.910   3.123  2.5134 -0.1003  0.1228
  179MOL    C3025306   4.475   3.098   3.173  0.4942 -0.2428 -0.0012
  179MOL    C3125307   4.346   3.167   3.182 -0.1103 -0.8542  0.3760
  179MOL    O3225308   4.356   3.300   3.136 -0.1561 -0.0582  0.0544
  179MOL    H3325309   4.481   3.016   3.245 -3.2190 -0.3651  0.2725
  179MOL    H3425310   4.554   3.170   3.188 -0.3955  0.8677 -0.5869
  179MOL    H3525311   4.306   3.176   3.283 -0.0794  0.6751  0.2690
  179MOL    H3625312   4.271   3.102   3.137 -2.0505  1.4503  0.1921
  179MOL    C3725313   4.226   3.363   3.124 -0.0826 -0.0729  0.0616
  179MOL    C3825314   4.256   3.491   3.042  0.7928 -0.3553 -0.4696
  179MOL    O3925315   4.316   3.591   3.121  0.2126 -0.4103  0.2412
  179MOL    H4025316   4.151   3.314   3.061  0.4596 -0.1308 -0.5456
  179MOL    H4125317   4.179   3.397   3.216 -1.1335 -0.3842 -0.3519
  179MOL    H4225318   4.166   3.538   3.002  0.2298 -0.1099  1.0467
  179MOL    H4325319   4.317   3.471   2.954  2.6129  1.6493  0.2883
  179MOL    C4425320   4.305   3.718   3.064  0.4266  0.0519  0.4209
  179MOL    C4525321   4.415   3.743   2.960  0.7703  0.4920  0.3739
  179MOL    O4625322   4.339   3.758   2.837  0.8672  0.2936 -0.2322
  179MOL    H4725323   4.203   3.740   3.033 -0.4022 -0.4545  2.6976
  179MOL    H4825324   4.323   3.779   3.152 -1.7146 -1.6521  2.1035
  179MOL    H4925325   4.487   3.661   2.957  1.4548  1.1236 -1.4712
  179MOL    H5025326   4.469   3.833   2.990 -1.0266  1.6559  0.2220
  179MOL    C5125327   4.427   3.800   2.730 -0.1806  0.1037 -0.3352
  179MOL    C5225328   4.524   3.687   2.681 -0.7054 -0.3828 -0.7850
  179MOL    O5325329   4.462   3.590   2.607 -0.2181  0.5489 -0.3139
  179MOL    H5425330   4.367   3.844   2.650 -1.4186 -0.9792 -0.0225
  179MOL    H5525331   4.490   3.881   2.766  1.8731 -1.8283  0.5056
  179MOL    H5625332   4.583   3.645   2.762  0.2342 -1.7434 -2.1755
  179MOL    H5725333   4.595   3.736   2.615  1.0440 -1.5712  0.1966
  179MOL    C5825334   4.543   3.482   2.562  0.5873 -0.2380  0.0612
  179MOL    C5925335   4.549   3.372   2.668  0.6622 -0.3914 -0.6773
  179MOL    O6025336   4.625   3.423   2.771  0.4133  0.3056  0.3980
  179MOL    H6125337   4.498   3.435   2.474  1.8061 -0.7659 -0.2918
  179MOL    H6225338   4.643   3.516   2.538  0.6582  0.0384  0.7435
  179MOL    H6325339   4.597   3.281   2.632 -2.6892 -2.6539  0.3478
  179MOL    H6425340   4.446   3.353   2.698  1.9311 -3.0695  2.1903
  179MOL    C6525341   4.614   3.353   2.894 -0.3381 -0.0535 -0.0501
  179MOL    C6625342   4.723   3.393   2.997  0.2254  0.6730  0.4409
  179MOL    O6725343   4.827   3.298   2.998 -0.5300  0.1950  0.6586
  179MOL    H6825344   4.513   3.365   2.933 -0.9660 -2.5766 -0.8312
  179MOL    H6925345   4.619   3.244   2.893 -2.2606 -0.1606  0.5503
  179MOL    H7025346   4.682   3.392   3.098 -1.5083  1.6484 -0.2435
  179MOL    H7125347   4.764   3.492   2.975  0.0855  0.6494  0.0789
  179MOL    C7225348   4.926   3.332   3.098  0.0465 -0.3518 -0.1138
  179MOL    C7325349   4.972   3.198   3.151  0.5796 -0.6832  0.0529
  179MOL    O7425350   4.887   3.139   3.242 -0.0645  0.3997  0.2544
  179MOL    H7525351   5.013   3.376   3.048  1.4457 -0.1608  2.4273
  179MOL    H7625352   4.886   3.382   3.186 -2.9132 -2.0254 -0.4493
  179MOL    H7725353   5.066   3.223   3.201  0.3469  2.6321 -1.0366
  179MOL    H7825354   4.996   3.130   3.069 -3.2833 -0.8136 -1.0321
  179MOL    C7925355   4.924   3.008   3.286  0.7615  0.3695 -0.1261
  179MOL    C8025356   4.842   2.952   3.400  0.0168  0.6837  0.0466
  179MOL    O8125357   4.876   3.012   3.524  0.5484  0.5746  0.0474
  179MOL    H8225358   4.902   2.941   3.203 -1.2015 -1.5259  1.8773
  179MOL    H8325359   5.028   3.003   3.319  1.0005 -1.2000 -1.0480
  179MOL    H8425360   4.857   2.844   3.405  2.4313  0.8389 -2.5318
  179MOL    H8525361   4.736   2.955   3.372  0.6267 -0.3541 -2.5963
  179MOL    C8625362   4.788   2.975   3.633  0.2462 -0.4642  0.4918
  179MOL    C8725363   4.824   3.040   3.771 -0.1685 -0.0912  0.0762
  179MOL    O8825364   4.758   2.975   3.887 -0.2654 -0.5478 -0.0285
  179MOL    H8925365   4.694   3.014   3.595  1.0875  1.5308  0.3917
  179MOL    H9025366   4.776   2.869   3.653 -2.2208 -1.0790 -3.6394
  179MOL    H9125367   4.790   3.142   3.755  1.2128  0.3854  0.0948
  179MOL    H9225368   4.931   3.058   3.779  0.5518 -3.5579 -0.9738
  179MOL    C9325369   4.815   2.847   3.922 -0.7693  1.0088 -0.0100
  179MOL    C9425370   4.931   2.871   4.028 -0.1074  0.5836  0.0878
  179MOL    O9525371   4.867   2.911   4.155  0.1710  0.5476  0.0907
  179MOL    H9625372   4.732   2.795   3.971 -0.0249  0.2809  0.5017
  179MOL    H9725373   4.846   2.776   3.845 -0.2788  1.7549 -0.5069
  179MOL    H9825374   5.018   2.935   4.012  0.9389 -0.4436  1.5727
  179MOL    H9925375   4.970   2.769   4.036  2.1741  1.4560  0.3498
  179MOL   C10025376   4.944   2.879   4.266  0.3962  0.1078 -0.3919
  179MOL   C10125377   5.027   3.003   4.304  0.1133  0.6332 -0.1142
  179MOL   O10225378   5.134   3.031   4.215 -0.3940 -0.4094 -0.1619
  179MOL   H10325379   4.882   2.857   4.353  0.6922 -1.3461 -0.5443
  179MOL   H10425380   5.011   2.795   4.250  1.3251  0.8156 -0.2693
  179MOL   H10525381   5.073   2.989   4.402 -1.3958  0.0728  0.5418
  179MOL   H10625382   4.961   3.089   4.308 -0.0000  0.5022  1.0251
  179MOL   C10725383   5.223   3.127   4.272 -0.0203 -0.2170 -0.6205
  179MOL   C10825384   5.153   3.264   4.296 -0.0668 -0.3355  0.5343
  179MOL   O10925385   5.110   3.274   4.436  0.1771  0.1926 -0.5486
  179MOL   H11025386   5.274   3.086   4.359  0.7113 -0.6040 -1.2281
  179MOL   H11125387   5.293   3.142   4.190  3.2294  0.4219  2.1348
  179MOL   H11225388   5.069   3.281   4.228  0.2610  0.1279  0.2393
  179MOL   H11325389   5.231   3.339   4.282  1.6194 -1.5354  3.2546
  179MOL   C11425390   5.009   3.368   4.464 -0.1416 -0.0144 -0.2268
  179MOL   C11525391   5.073   3.513   4.457 -0.7582  0.1829  0.4651
  179MOL   O11625392   5.064   3.566   4.321 -0.1726  1.2846  0.2671
  179MOL   H11725393   4.922   3.367   4.398  1.8793  2.1172 -3.0871
  179MOL   H11825394   4.988   3.350   4.569  1.5363  1.0407  0.2982
  179MOL   H11925395   5.178   3.517   4.488 -0.1051  0.6449 -1.6849
  179MOL   H12025396   5.024   3.576   4.530 -0.2703  0.2711  0.7196
  179MOL   C12125397   5.112   3.694   4.296  0.4905  0.5309  0.0365
  179MOL   C12225398   5.009   3.782   4.227  0.0047  0.1585  0.6728
  179MOL   O12325399   4.921   3.806   4.328 -0.0280  0.3508  0.2736
  179MOL   H12425400   5.142   3.737   4.392 -1.7909  1.6616  0.2622
  179MOL   H12525401   5.210   3.684   4.249  1.0384  0.7959  1.1017
  179MOL   H12625402   4.963   3.747   4.135  0.4949  1.2864 -0.0070
  179MOL   H12725403   5.063   3.870   4.194  0.7223 -0.8654 -0.9761
  179MOL   C12825404   4.809   3.710   4.324 -0.1405  0.2280 -0.5784
  179MOL   C12925405   4.741   3.729   4.459  0.1021 -0.1771  0.2140
  179MOL   O13025406   4.672   3.859   4.455 -0.2602  0.3525 -0.2488
  179MOL   H13125407   4.748   3.747   4.241 -0.6952 -1.9633 -1.1722
  179MOL   H13225408   4.849   3.611   4.302  0.9634  1.2390 -3.3495
  179MOL   H13325409   4.816   3.721   4.538  0.2909 -2.8545 -0.1666
  179MOL   H13425410   4.673   3.647   4.485  0.7543 -0.8548 -0.2111
  179MOL   C13525411   4.696   3.946   4.562 -0.5601 -0.3371 -0.2186
  179MOL   C13625412   4.594   4.059   4.575  0.2865 -0.0955 -0.8210
  179MOL   O13725413   4.624   4.172   4.495  0.4411  0.1501  0.1963
  179MOL   H13825414   4.683   3.881   4.648 -0.8529  0.0153  0.0073
  179MOL   H13925415   4.802   3.971   4.567 -0.5860 -0.1735 -0.4729
  179MOL   H14025416   4.574   4.083   4.680  0.9879 -1.6381 -0.3115
  179MOL   H14125417   4.494   4.017   4.569  0.6896 -1.2531  0.2746
  179MOL   H14225418   4.595   4.151   4.408 -0.4414  0.8737  0.2996
  180MOL     C125419   7.340   1.464   5.353  0.5226  0.3685  0.0085
  180MOL     C225420   7.252   1.560   5.439  0.1385 -0.1042 -0.9059
  180MOL     O325421   7.285   1.689   5.391  0.6072  0.1144 -0.1834
  180MOL     H425422   7.314   1.477   5.248  2.1945 -1.4938 -0.6615
  180MOL     H525423   7.330   1.360   5.384  1.6969  0.5255  0.9521
  180MOL     H625424   7.290   1.551   5.541  0.8129 -0.8814 -1.2171
  180MOL     H725425   7.152   1.521   5.423  0.0289 -0.9292  1.5196
  180MOL     H825426   7.446   1.484   5.371  0.1560  1.2880  1.2287
  180MOL     C925427   7.210   1.787   5.459 -0.1691 -0.4595  0.5862
  180MOL    C1025428   7.069   1.812   5.401 -0.3926  0.4347  0.8197
  180MOL    O1125429   6.961   1.743   5.464  0.4768  0.3755 -0.9522
  180MOL    H1225430   7.198   1.779   5.567  1.8680  0.1019  0.8779
  180MOL    H1325431   7.262   1.882   5.449  2.1414 -1.6623  0.8165
  180MOL    H1425432   7.076   1.789   5.294  0.6879 -1.0084  1.1832
  180MOL    H1525433   7.060   1.920   5.409  1.9764  0.6901  0.2550
  180MOL    C1625434   6.831   1.780   5.414  0.2221  0.2942  0.3467
  180MOL    C1725435   6.721   1.699   5.492  0.2534  0.8089 -0.2570
  180MOL    O1825436   6.591   1.763   5.470 -0.3903  0.0050 -0.9467
  180MOL    H1925437   6.813   1.886   5.431 -0.4934  0.1516  0.5103
  180MOL    H2025438   6.825   1.750   5.309  1.8029 -0.1653  0.3765
  180MOL    H2125439   6.742   1.713   5.598  0.4936  0.1013 -0.2069
  180MOL    H2225440   6.728   1.592   5.473 -0.2839  1.0034 -1.5682
  180MOL    C2325441   6.483   1.698   5.532  0.1501  0.1787  0.5659
  180MOL    C2425442   6.466   1.731   5.684 -0.4115  0.4981  0.3563
  180MOL    O2525443   6.560   1.660   5.768 -0.2016  0.5855  0.1479
  180MOL    H2625444   6.391   1.726   5.481  0.4691  2.4422  1.1906
  180MOL    H2725445   6.484   1.591   5.509 -0.4426  0.3922 -0.5118
  180MOL    H2825446   6.366   1.700   5.714 -0.7042  0.3167 -0.7819
  180MOL    H2925447   6.479   1.839   5.693  1.0851  0.3369  0.2940
  180MOL    C3025448   6.524   1.663   5.904 -0.2250  0.3889  0.2027
  180MOL    C3125449   6.644   1.608   5.988  0.4195 -0.5249  0.6315
  180MOL    O3225450   6.643   1.468   6.007 -0.4327  0.9553 -0.6304
  180MOL    H3325451   6.498   1.765   5.931  0.3177  0.7562 -0.6548
  180MOL    H3425452   6.438   1.601   5.930  0.7397 -0.0500  2.4664
  180MOL    H3525453   6.654   1.672   6.075  2.8682 -0.3202  0.2591
  180MOL    H3625454   6.739   1.640   5.943  1.4771 -0.7712  2.6173
  180MOL    C3725455   6.767   1.406   6.049  0.0159  0.5762  0.2814
  180MOL    C3825456   6.740   1.254   6.081  0.2123 -0.7260  0.4762
  180MOL    O3925457   6.860   1.215   6.137  0.2086 -0.2625 -0.0151
  180MOL    H4025458   6.840   1.419   5.969  0.0743  1.0360  0.4109
  180MOL    H4125459   6.801   1.465   6.133 -0.0681  2.1398 -0.7592
  180MOL    H4225460   6.718   1.183   6.001 -1.0298  0.0622  0.1136
  180MOL    H4325461   6.662   1.248   6.156 -0.6522 -3.2213 -0.5649
  180MOL    C4425462   6.852   1.089   6.209  0.0439  0.0139 -0.3426
  180MOL    C4525463   6.973   1.091   6.308  1.1695 -0.4500 -0.7612
  180MOL    O4625464   7.091   1.061   6.241 -0.5072 -0.1516 -0.1272
  180MOL    H4725465   6.773   1.079   6.283  1.1936 -3.2749  0.4820
  180MOL    H4825466   6.851   0.998   6.150  0.4858 -1.2054  1.5103
  180MOL    H4925467   6.949   1.010   6.376  0.9623  0.1487 -0.1106
  180MOL    H5025468   6.982   1.186   6.361  3.2388 -0.8619 -0.3429
  180MOL    C5125469   7.108   0.933   6.196  0.3437 -0.0933 -0.4988
  180MOL    C5225470   7.252   0.903   6.152 -0.1744  0.3428  0.7152
  180MOL    O5325471   7.330   0.865   6.263 -0.0552 -0.1295  0.0450
  180MOL    H5425472   7.077   0.860   6.269 -1.5804  1.0401 -0.1676
  180MOL    H5525473   7.042   0.928   6.110  2.9951 -0.8111 -2.5891
  180MOL    H5625474   7.308   0.981   6.100  0.0804 -1.3746 -1.6481
  180MOL    H5725475   7.250   0.819   6.082 -0.7350  0.6742  0.3308
  180MOL    C5825476   7.457   0.815   6.234  0.0835  0.0333 -0.5741
  180MOL    C5925477   7.544   0.799   6.365  0.5192  0.2632  0.5642
  180MOL    O6025478   7.632   0.908   6.369 -0.2797 -0.3573  0.0476
  180MOL    H6125479   7.436   0.718   6.190  1.1591 -1.3481  1.8553
  180MOL    H6225480   7.514   0.884   6.171  1.4452  0.1069  0.7101
  180MOL    H6325481   7.612   0.713   6.364 -2.1123 -1.8742 -0.2158
  180MOL    H6425482   7.478   0.786   6.451 -0.8254 -0.9932 -0.6298
  180MOL    C6525483   7.579   1.017   6.440  0.3242  0.8166 -0.1221
  180MOL    C6625484   7.687   1.112   6.478 -0.1872 -0.0824 -0.3993
  180MOL    O6725485   7.716   1.077   6.612 -0.1729 -0.3403  0.3088
  180MOL    H6825486   7.505   1.062   6.373  1.0684  0.5162 -1.1571
  180MOL    H6925487   7.523   0.986   6.528  1.2242  2.7794  1.1544
  180MOL    H7025488   7.649   1.214   6.469  0.8952  0.2697 -1.1836
  180MOL    H7125489   0.003   1.108   6.412 -0.3594  2.6075 -0.8524
  180MOL    C7225490   0.050   0.984   6.637  0.6843 -0.1510 -0.4048
  180MOL    C7325491   0.031   0.927   6.779  0.5031  0.4127  0.0269
  180MOL    O7425492   0.093   1.015   6.872  0.3556 -0.0669  0.6054
  180MOL    H7525493   0.045   0.893   6.577 -1.4420  0.7616 -1.6890
  180MOL    H7625494   0.142   1.040   6.619 -1.4151  3.6073  0.1522
  180MOL    H7725495   0.074   0.828   6.797 -0.8384 -0.1002  0.4830
  180MOL    H7825496   7.696   0.906   6.793  0.7825  0.6579  2.8771
  180MOL    C7925497   0.053   0.994   7.008 -0.0841 -0.2067 -0.7088
  180MOL    C8025498   0.114   0.861   7.060 -0.0564  0.1540 -0.6796
  180MOL    O8125499   0.008   0.776   7.082 -0.1742 -0.0407  0.1526
  180MOL    H8225500   0.100   1.078   7.058 -0.1120 -0.8133  0.3440
  180MOL    H8325501   7.717   0.991   7.027  0.2805  2.1537  1.9181
  180MOL    H8425502   0.174   0.876   7.150 -2.6580 -3.6954  1.8156
  180MOL    H8525503   0.190   0.823   6.991 -0.3691 -0.7427 -0.5388
  180MOL    C8625504   0.044   0.642   7.107  0.7825  0.1594 -0.7663
  180MOL    C8725505   7.709   0.541   7.078  0.2975  0.1558 -0.8840
  180MOL    O8825506   7.721   0.476   6.950 -0.0851 -0.1439 -0.4388
  180MOL    H8925507   0.132   0.607   7.052 -0.7542 -0.3797 -2.9593
  180MOL    H9025508   0.075   0.638   7.211 -1.5989 -0.8067 -0.0613
  180MOL    H9125509   7.608   0.581   7.079  0.4483  0.5532 -1.3599
  180MOL    H9225510   7.711   0.466   7.157 -0.5632  0.4249 -0.5985
  180MOL    C9325511   7.638   0.362   6.934 -0.2484 -0.1815 -0.4380
  180MOL    C9425512   7.633   0.318   6.788  0.6256 -0.2327  0.0469
  180MOL    O9525513   7.553   0.404   6.700 -0.5930 -0.0461 -0.0840
  180MOL    H9625514   7.680   0.289   7.003 -0.7554  1.2712  1.4587
  180MOL    H9725515   7.537   0.377   6.974 -0.2342  0.3856 -0.6088
  180MOL    H9825516   7.588   0.219   6.780 -0.9482  0.3929  0.9282
  180MOL    H9925517   7.734   0.323   6.747  0.1615  0.2335 -1.0565
  180MOL   C10025518   7.552   0.366   6.563  0.0817 -0.0959  1.0787
  180MOL   C10125519   7.476   0.464   6.472  0.4237  0.1550  0.6415
  180MOL   O10225520   7.336   0.443   6.484  0.0402  0.4862  0.2274
  180MOL   H10325521   7.659   0.367   6.543 -0.2764  0.8592 -0.8738
  180MOL   H10425522   7.511   0.265   6.555 -1.0436  0.4675 -0.5604
  180MOL   H10525523   7.520   0.444   6.374 -2.2428 -1.6615 -0.2206
  180MOL   H10625524   7.504   0.564   6.508 -0.7776  0.7285 -0.0104
  180MOL   C10725525   7.271   0.516   6.380  0.9004 -0.0322  0.5891
  180MOL   C10825526   7.119   0.474   6.386 -0.1407  0.2655 -0.0886
  180MOL   O10925527   7.051   0.537   6.500 -0.7244  0.5132  0.5008
  180MOL   H11025528   7.271   0.625   6.379 -0.7046  0.0004  1.6020
  180MOL   H11125529   7.318   0.480   6.289 -1.3043  0.1652 -0.6651
  180MOL   H11225530   7.121   0.366   6.397 -1.7419 -0.0710 -2.6548
  180MOL   H11325531   7.064   0.502   6.296  1.8020 -0.8141 -1.6406
  180MOL   C11425532   6.915   0.494   6.520  0.6201 -1.2581 -0.1941
  180MOL   C11525533   6.816   0.576   6.428  0.1486  0.4979 -0.8549
  180MOL   O11625534   6.791   0.512   6.305  0.3670 -0.0265 -0.4842
  180MOL   H11725535   6.905   0.386   6.505 -2.2436 -0.8051 -1.8045
  180MOL   H11825536   6.879   0.513   6.621 -2.0100  0.4088 -1.3884
  180MOL   H11925537   6.842   0.679   6.405  3.1088 -0.1073 -0.5165
  180MOL   H12025538   6.726   0.576   6.489 -0.2454 -0.6432 -1.4017
  180MOL   C12125539   6.689   0.567   6.233  0.1878 -0.3957 -0.7005
  180MOL   C12225540   6.624   0.474   6.135  0.4035  0.1502  0.6081
  180MOL   O12325541   6.703   0.463   6.012  0.2377 -0.8500 -0.0298
  180MOL   H12425542   6.615   0.601   6.307 -0.4893 -1.9884 -0.6308
  180MOL   H12525543   6.735   0.648   6.177 -2.3478  1.1091 -0.7038
  180MOL   H12625544   6.520   0.504   6.122  0.2759 -0.1465  0.9561
  180MOL   H12725545   6.596   0.381   6.184  0.2291 -0.7347 -1.1253
  180MOL   C12825546   6.815   0.381   6.006 -0.4299 -0.3869 -0.5190
  180MOL   C12925547   6.833   0.338   5.862 -0.6662 -0.0642  0.3901
  180MOL   O13025548   6.713   0.292   5.808  0.4098 -0.3557 -0.0168
  180MOL   H13125549   6.904   0.429   6.047  0.0197  1.1467 -3.1991
  180MOL   H13225550   6.793   0.290   6.062 -0.4322 -0.7444 -1.0993
  180MOL   H13325551   6.902   0.254   5.872 -0.1434  0.1626 -1.1920
  180MOL   H13425552   6.879   0.416   5.801 -1.1622 -0.1729 -0.1304
  180MOL   C13525553   6.733   0.227   5.683  0.1605  0.0141  0.1011
  180MOL   C13625554   6.592   0.169   5.648  0.3490  0.1062 -0.0920
  180MOL   O13725555   6.566   0.060   5.730 -0.1067 -0.0639 -0.2766
  180MOL   H13825556   6.768   0.308   5.619  1.1373 -0.0867  0.4911
  180MOL   H13925557   6.807   0.147   5.679  0.1773 -0.1007  1.9425
  180MOL   H14025558   6.574   0.120   5.553 -1.7856 -0.9730  0.8446
  180MOL   H14125559   6.521   0.250   5.660  0.3419 -0.2254  2.3611
  180MOL   H14225560   6.562   0.091   5.819  1.8688  4.7110 -1.7068
  181MOL     C125561   2.105   3.060   0.042 -0.3662  0.0763  0.3228
  181MOL     C225562   1.984   3.067   0.138 -0.6714 -1.1749  0.2051
  181MOL     O325563   1.913   3.184   0.087  0.1715  0.0662 -0.3846
  181MOL     H425564   2.153   3.158   0.046 -0.4165  0.2391 -2.1958
  181MOL     H525565   2.074   3.039   7.710 -1.1354 -1.6068  0.8707
  181MOL     H625566   2.023   3.084   0.239  0.8846 -1.8959 -0.2526
  181MOL     H725567   1.922   2.978   0.139  2.0940 -3.1712  0.4483
  181MOL     H825568   2.180   2.986   0.069 -0.1523  0.4356  0.7162
  181MOL     C925569   1.797   3.215   0.163  0.1523 -0.4481  0.7286
  181MOL    C1025570   1.824   3.281   0.296 -0.2931 -0.0467  0.2530
  181MOL    O1125571   1.856   3.172   0.388  0.2135  0.2801  0.4741
  181MOL    H1225572   1.733   3.280   0.104 -0.1792 -0.8278  0.6616
  181MOL    H1325573   1.741   3.121   0.167  0.1117 -0.6482 -2.6195
  181MOL    H1425574   1.732   3.328   0.332  0.7387  2.0831  0.1974
  181MOL    H1525575   1.909   3.350   0.294 -0.1875 -0.1675  0.5129
  181MOL    C1625576   1.900   3.226   0.511 -0.3606  0.4530  0.1133
  181MOL    C1725577   1.790   3.211   0.615  0.6564 -0.7498  0.4051
  181MOL    O1825578   1.802   3.079   0.671  0.2973  0.2400 -0.0975
  181MOL    H1925579   1.987   3.172   0.550 -1.1132 -1.5371 -0.8861
  181MOL    H2025580   1.931   3.330   0.502 -1.5174  0.8893  1.0374
  181MOL    H2125581   1.690   3.218   0.572  0.4458 -1.1150  0.8335
  181MOL    H2225582   1.802   3.283   0.695  1.3846 -0.7617  0.3136
  181MOL    C2325583   1.699   3.042   0.768 -0.2562 -0.3776 -0.1381
  181MOL    C2425584   1.569   2.996   0.711  0.1717  0.0679 -0.1443
  181MOL    O2525585   1.487   3.105   0.683  0.2625  0.8357 -0.3445
  181MOL    H2625586   1.744   2.956   0.818 -0.3480 -0.5265 -0.3100
  181MOL    H2725587   1.691   3.112   0.851 -0.4915 -0.3978 -0.1453
  181MOL    H2825588   1.521   2.921   0.774 -2.5515  2.5156  0.8081
  181MOL    H2925589   1.593   2.942   0.619 -0.5829 -0.5362  0.0049
  181MOL    C3025590   1.388   3.095   0.584  0.5918  0.1656  0.3066
  181MOL    C3125591   1.301   3.223   0.581 -0.0700 -0.1571 -0.3075
  181MOL    O3225592   1.366   3.335   0.531 -0.1346  0.3446  0.0828
  181MOL    H3325593   1.426   3.073   0.484 -0.4827 -3.0002  0.5440
  181MOL    H3425594   1.326   3.010   0.613  0.1230  0.2127 -0.5427
  181MOL    H3525595   1.274   3.238   0.685 -1.3569 -1.5150 -0.4267
  181MOL    H3625596   1.209   3.199   0.527  0.7617 -1.3872 -1.1912
  181MOL    C3725597   1.390   3.342   0.390 -0.4170 -0.4168  0.1453
  181MOL    C3825598   1.425   3.481   0.340 -0.2572  0.3227  0.0044
  181MOL    O3925599   1.542   3.521   0.404  0.2030  0.2143 -0.0830
  181MOL    H4025600   1.477   3.276   0.389 -0.2054 -0.1995  1.8916
  181MOL    H4125601   1.317   3.298   0.323 -0.6184 -0.6398  0.5074
  181MOL    H4225602   1.352   3.556   0.371 -2.4312 -1.4426 -0.6552
  181MOL    H4325603   1.439   3.488   0.232 -1.2321  1.7567 -0.0492
  181MOL    C4425604   1.578   3.653   0.345  0.1236  0.4178 -0.9982
  181MOL    C4525605   1.690   3.634   0.248 -0.7112 -0.4732 -0.4147
  181MOL    O4625606   1.642   3.588   0.121  0.1519  0.1825 -0.0734
  181MOL    H4725607   1.487   3.695   0.301 -1.5322 -0.4070  1.5092
  181MOL    H4825608   1.610   3.718   0.426 -0.3520 -1.8566  1.0696
  181MOL    H4925609   1.761   3.558   0.281  0.3841  0.0792 -1.4517
  181MOL    H5025610   1.734   3.733   0.238  0.1576 -0.6856  1.1717
  181MOL    C5125611   1.736   3.613   0.020  0.4872 -0.1073 -0.4885
  181MOL    C5225612   1.885   3.562   0.027  0.2639  0.0330  0.0486
  181MOL    O5325613   1.959   3.643   0.119  0.5573  0.4043 -0.0353
  181MOL    H5425614   1.693   3.556   7.709  0.2954  1.2068 -1.3272
  181MOL    H5525615   1.741   3.718   7.762  0.7753  0.4170  1.3846
  181MOL    H5625616   1.941   3.578   7.706  1.2038 -0.0805  0.5955
  181MOL    H5725617   1.901   3.457   0.051 -0.2407 -0.7099 -2.7405
  181MOL    C5825618   1.992   3.771   0.073 -0.4288  0.1195 -0.0995
  181MOL    C5925619   2.031   3.852   0.191  0.2032 -0.0529  0.3570
  181MOL    O6025620   1.907   3.882   0.253 -0.2525  0.2016 -0.3133
  181MOL    H6125621   2.078   3.764   0.006 -0.2018 -0.5760  0.2594
  181MOL    H6225622   1.914   3.820   0.014  1.1738 -1.1327 -3.3423
  181MOL    H6325623   2.082   3.942   0.159 -2.1061  0.1524 -2.9704
  181MOL    H6425624   2.118   3.804   0.235  0.8879  0.0349 -0.9112
  181MOL    C6525625   1.904   3.957   0.370  0.7926 -0.6958  0.3219
  181MOL    C6625626   1.753   4.001   0.393 -0.2235  0.6415  0.3381
  181MOL    O6725627   1.755   4.052   0.526  0.1262 -0.2746  0.0245
  181MOL    H6825628   1.950   3.900   0.451  0.7432  0.4680  1.1670
  181MOL    H6925629   1.964   4.048   0.367  0.8266 -0.6970  0.9313
  181MOL    H7025630   1.671   3.936   0.362 -0.7367  0.9889  0.9580
  181MOL    H7125631   1.736   4.085   0.326 -3.0513 -0.6284 -0.6086
  181MOL    C7225632   1.639   4.111   0.579  0.3804  0.0881  0.6606
  181MOL    C7325633   1.515   4.023   0.599 -0.2189  0.3967 -0.2123
  181MOL    O7425634   1.446   4.021   0.472 -1.1550 -0.6128 -0.3381
  181MOL    H7525635   1.671   4.144   0.678 -0.7670 -0.2087  1.1442
  181MOL    H7625636   1.618   4.198   0.517  1.8046 -0.1647 -0.2025
  181MOL    H7725637   1.446   4.063   0.674  1.5887  1.7667  0.7477
  181MOL    H7825638   1.547   3.926   0.637  0.5553  0.6195 -0.2978
  181MOL    C7925639   1.319   3.959   0.479  0.3900 -0.3560 -1.1810
  181MOL    C8025640   1.242   3.971   0.345  0.5910 -0.1715 -1.0386
  181MOL    O8125641   1.314   3.892   0.252  0.7651  0.2883 -0.0383
  181MOL    H8225642   1.325   3.854   0.507 -0.3486  0.3345  1.6632
  181MOL    H8325643   1.256   4.011   0.550  0.7141 -1.4343 -0.0766
  181MOL    H8425644   1.218   4.073   0.317 -0.5978  0.0263  0.6392
  181MOL    H8525645   1.148   3.918   0.360  0.6749 -0.2801 -0.8969
  181MOL    C8625646   1.254   3.899   0.116 -0.5116 -0.6839 -0.2148
  181MOL    C8725647   1.311   3.793   0.023  0.4100  0.2645  0.6646
  181MOL    O8825648   1.248   3.675   0.066 -0.4345 -0.2181  0.4464
  181MOL    H8925649   1.149   3.875   0.130 -0.7207 -0.1944 -0.9117
  181MOL    H9025650   1.256   4.003   0.084 -0.0907 -1.3775 -2.4817
  181MOL    H9125651   1.420   3.784   0.025  0.4588  1.0774  2.0081
  181MOL    H9225652   1.277   3.810   7.692 -0.3176 -2.3820  0.4347
  181MOL    C9325653   1.306   3.556   0.015  0.3461 -0.6496 -0.3691
  181MOL    C9425654   1.223   3.529   7.662  0.6950  0.2068  1.2601
  181MOL    O9525655   1.237   3.627   7.556 -0.2119 -0.1434  0.1208
  181MOL    H9625656   1.410   3.566   7.756  0.3591  0.0002 -0.1104
  181MOL    H9725657   1.293   3.481   0.093 -1.8201  0.1159  0.0575
  181MOL    H9825658   1.118   3.524   7.694  0.3974 -2.3635 -0.0273
  181MOL    H9925659   1.249   3.435   7.614 -0.7632 -0.6076  2.0025
  181MOL   C10025660   1.134   3.610   7.459 -0.1230 -0.0663 -0.0703
  181MOL   C10125661   1.172   3.680   7.331  0.5454  0.4276  0.0092
  181MOL   O10225662   1.141   3.818   7.322  0.0767 -0.3956 -0.1921
  181MOL   H10325663   1.137   3.503   7.435 -0.5706 -0.0303 -0.2826
  181MOL   H10425664   1.034   3.629   7.497  1.0119  1.1128  2.4233
  181MOL   H10525665   1.102   3.634   7.262  1.6918  1.2191 -1.7347
  181MOL   H10625666   1.273   3.653   7.298 -0.1101 -0.0431 -1.6607
  181MOL   C10725667   1.187   3.883   7.207 -0.4112  0.4253 -0.2793
  181MOL   C10825668   1.339   3.930   7.211 -0.1240 -0.2086 -0.3982
  181MOL   O10925669   1.344   4.040   7.306 -0.2642  0.5294  0.0815
  181MOL   H11025670   1.165   3.817   7.124 -0.3577 -1.0991  0.9026
  181MOL   H11125671   1.131   3.970   7.175 -1.0088  0.0058 -0.3645
  181MOL   H11225672   1.387   3.954   7.116  0.4367 -1.6447 -0.4909
  181MOL   H11325673   1.400   3.852   7.254 -0.9744 -0.8136 -0.2747
  181MOL   C11425674   1.395   4.002   7.431  0.0098 -0.4526  0.6443
  181MOL   C11525675   1.382   4.120   7.527 -0.0278 -0.7725 -0.3781
  181MOL   O11625676   1.423   4.078   7.653  0.4501  0.7262 -0.2811
  181MOL   H11725677   1.327   3.923   7.463 -1.5392  1.1825  1.4520
  181MOL   H11825678   1.497   3.966   7.416  0.0276  0.2087 -0.9259
  181MOL   H11925679   1.279   4.154   7.538  0.6810  1.1145  0.6419
  181MOL   H12025680   1.435   4.210   7.497  0.2127 -1.0137 -0.6825
  181MOL   C12125681   1.447   4.175   7.751 -0.5533  0.2182  0.1771
  181MOL   C12225682   1.535   4.121   0.098  0.5767  0.3108 -0.6432
  181MOL   O12325683   1.669   4.146   0.076 -0.5592 -0.9080 -0.0666
  181MOL   H12425684   1.489   4.268   7.714 -0.6714  0.3651  0.4103
  181MOL   H12525685   1.348   4.201   0.018 -0.0740  2.2209  0.1302
  181MOL   H12625686   1.510   4.017   0.118 -0.6387  0.6747 -0.2459
  181MOL   H12725687   1.507   4.164   0.194 -1.0313 -1.2851 -0.3828
  181MOL   C12825688   1.722   4.055   7.749 -0.4506 -0.9031 -0.1167
  181MOL   C12925689   1.855   4.097   7.707 -0.3997  0.3225 -0.3043
  181MOL   O13025690   1.884   4.025   7.581 -0.0882  0.1362  0.3980
  181MOL   H13125691   1.720   3.962   0.035  0.9828  0.2759  1.9222
  181MOL   H13225692   1.653   4.051   7.665 -0.6186  0.2476 -0.0372
  181MOL   H13325693   1.920   4.065   0.017 -3.1682 -1.0843  1.4473
  181MOL   H13425694   1.863   4.205   7.693  1.5604  0.2112 -0.2503
  181MOL   C13525695   2.014   4.041   7.530  1.3275 -0.7831  0.0665
  181MOL   C13625696   2.051   4.188   7.497  0.7366  0.7391 -0.3974
  181MOL   O13725697   2.138   4.199   7.392  0.2009  0.7311 -0.2124
  181MOL   H13825698   2.072   3.991   7.608 -1.0778 -2.0540  1.1091
  181MOL   H13925699   2.025   3.976   7.443  1.4714 -0.8411  0.1283
  181MOL   H14025700   2.103   4.238   7.579 -0.3257  0.0194  0.7338
  181MOL   H14125701   1.969   4.254   7.468  2.1943  3.9169  2.3867
  181MOL   H14225702   2.097   4.211   7.307  1.1764 -0.4471 -0.8793
  182MOL     C125703   3.275   6.860   6.628  0.0268 -0.3958  0.2988
  182MOL     C225704   3.387   6.852   6.526 -0.4180 -0.2001 -0.6193
  182MOL     O325705   3.512   6.854   6.597 -0.3133  0.3842  0.4435
  182MOL     H425706   3.245   6.963   6.648 -0.0961 -0.2631 -0.5582
  182MOL     H525707   3.318   6.834   6.725 -1.1472  1.0116  1.2365
  182MOL     H625708   3.385   6.922   6.443  2.0834  2.4018  1.3989
  182MOL     H725709   3.375   6.751   6.489 -3.7227 -0.6521  1.4558
  182MOL     H825710   3.186   6.808   6.594  1.1763 -1.9611 -0.3352
  182MOL     C925711   3.554   6.986   6.637  0.8565 -0.1119 -0.8923
  182MOL    C1025712   3.659   6.975   6.745 -0.7784  0.0405  0.7622
  182MOL    O1125713   3.618   6.929   6.873  0.1358  0.3346  0.4884
  182MOL    H1225714   3.589   7.038   6.548  0.4510  0.8797 -0.4843
  182MOL    H1325715   3.467   7.041   6.674  1.9476 -0.6325  2.5197
  182MOL    H1425716   3.713   7.069   6.753  0.5003 -0.4836 -1.2613
  182MOL    H1525717   3.732   6.906   6.703  0.2950  2.1055 -0.8775
  182MOL    C1625718   3.724   6.911   6.959  0.2586  0.4805  0.8029
  182MOL    C1725719   3.686   6.831   7.079 -0.2550  0.1355 -0.4551
  182MOL    O1825720   3.668   6.699   7.022  0.5750  0.5430 -0.1139
  182MOL    H1925721   3.817   6.870   6.918  0.6894  3.4163 -1.2619
  182MOL    H2025722   3.752   7.011   6.993  2.2393  0.1682  0.1483
  182MOL    H2125723   3.594   6.870   7.123 -0.9145 -0.0397 -1.6497
  182MOL    H2225724   3.765   6.830   7.154  1.6081 -1.6568 -2.3850
  182MOL    C2325725   3.655   6.594   7.114  0.0752  0.8257  0.3841
  182MOL    C2425726   3.641   6.458   7.042 -0.4350 -0.2840  0.6302
  182MOL    O2525727   3.755   6.427   6.969 -0.0331  0.1976 -0.4546
  182MOL    H2625728   3.741   6.593   7.181 -0.1725  4.1854  0.8186
  182MOL    H2725729   3.566   6.604   7.176  0.8041 -1.4313  1.8892
  182MOL    H2825730   3.558   6.462   6.971 -0.3125 -2.6345  0.3187
  182MOL    H2925731   3.610   6.381   7.113  0.0824 -2.9563 -1.9352
  182MOL    C3025732   3.778   6.288   6.947 -0.2436  0.4449  0.4394
  182MOL    C3125733   3.918   6.263   6.897  0.2136 -0.2953  0.4322
  182MOL    O3225734   4.007   6.350   6.962  0.3767  0.1063 -0.2637
  182MOL    H3325735   3.759   6.229   7.037 -2.1467 -0.8673 -0.7805
  182MOL    H3425736   3.702   6.264   6.873 -1.2724 -0.8057  1.8706
  182MOL    H3525737   3.904   6.293   6.793 -0.0092 -0.2108  0.4885
  182MOL    H3625738   3.945   6.157   6.893 -0.9902 -0.5801 -0.5968
  182MOL    C3725739   4.071   6.305   7.076  0.2029 -0.4519  0.3706
  182MOL    C3825740   4.160   6.415   7.145  0.0106  0.3472  0.2883
  182MOL    O3925741   4.258   6.482   7.063  0.3111  0.3328 -0.0678
  182MOL    H4025742   4.006   6.272   7.157 -1.3305  0.3297 -0.5146
  182MOL    H4125743   4.139   6.225   7.045  0.7651 -0.2675  1.1139
  182MOL    H4225744   4.215   6.366   7.225  1.3238 -1.0393 -1.4115
  182MOL    H4325745   4.092   6.490   7.185 -0.0027 -0.1190  1.1600
  182MOL    C4425746   4.211   6.545   6.947  0.2552 -0.1244 -0.9145
  182MOL    C4525747   4.294   6.670   6.922 -0.3325  0.4562 -0.9044
  182MOL    O4625748   4.434   6.642   6.919  0.5744 -0.0349 -0.3211
  182MOL    H4725749   4.234   6.471   6.871 -2.3186 -1.2698 -0.6378
  182MOL    H4825750   4.103   6.563   6.944 -0.0748 -1.9359 -0.2975
  182MOL    H4925751   4.278   6.739   7.005 -1.5604 -1.7916  0.7594
  182MOL    H5025752   4.266   6.726   6.832  0.5854  1.6616 -0.4495
  182MOL    C5125753   4.507   6.756   6.891  0.0302  0.2179 -0.3660
  182MOL    C5225754   4.662   6.723   6.874  0.0560 -0.3549  0.2599
  182MOL    O5325755   4.736   6.714   6.995  0.3632  0.2547  0.3323
  182MOL    H5425756   4.482   6.795   6.793  0.8270 -0.5008 -0.8596
  182MOL    H5525757   4.499   6.828   6.972  2.1252 -2.0268  1.9649
  182MOL    H5625758   4.703   6.807   6.818 -0.4146 -0.2329  0.0928
  182MOL    H5725759   4.669   6.642   6.802  0.5095  1.3485 -1.6498
  182MOL    C5825760   4.873   6.679   6.984 -0.2757  0.0185  0.2030
  182MOL    C5925761   4.893   6.534   6.932 -0.4698  0.3087 -0.3240
  182MOL    O6025762   4.873   6.528   6.796  0.4386  0.0799  0.1786
  182MOL    H6125763   4.927   6.753   6.925 -3.1939  1.0470 -1.2593
  182MOL    H6225764   4.900   6.686   7.090 -0.6509  1.5485  0.2090
  182MOL    H6325765   4.828   6.462   6.982 -1.6723  1.9809  0.5491
  182MOL    H6425766   4.996   6.525   6.966 -0.3315 -0.6672 -0.9860
  182MOL    C6525767   4.887   6.410   6.730 -0.4153  0.8623  0.0337
  182MOL    C6625768   4.790   6.400   6.612 -0.0630 -0.8608 -0.0443
  182MOL    O6725769   4.837   6.466   6.497  0.8399 -0.4076  0.2981
  182MOL    H6825770   4.986   6.399   6.686 -0.4331  4.0219 -0.9092
  182MOL    H6925771   4.865   6.327   6.797  0.9155  0.8640  0.4950
  182MOL    H7025772   4.694   6.446   6.638  1.6368  1.7382  1.9326
  182MOL    H7125773   4.752   6.300   6.595 -2.7176 -0.0856  0.9138
  182MOL    C7225774   4.749   6.445   6.389 -1.0900  0.0551  0.2117
  182MOL    C7325775   4.832   6.451   6.251  0.1478 -0.0463 -0.7536
  182MOL    O7425776   4.838   6.580   6.201 -0.3127 -0.0632 -0.5680
  182MOL    H7525777   4.687   6.355   6.393  1.4182 -1.6387  4.0496
  182MOL    H7625778   4.675   6.524   6.383 -0.0585  0.8751 -2.2092
  182MOL    H7725779   4.802   6.374   6.180  0.7585 -1.3283  0.3487
  182MOL    H7825780   4.931   6.412   6.275 -0.1900  0.4913  1.5679
  182MOL    C7925781   4.897   6.581   6.066  0.1257 -0.2650 -0.5186
  182MOL    C8025782   4.921   6.724   6.020  0.2990 -0.2511 -0.0445
  182MOL    O8125783   4.806   6.800   5.992  0.0585 -0.7659 -0.0067
  182MOL    H8225784   4.989   6.524   6.059  1.8316  2.3578 -0.0198
  182MOL    H8325785   4.831   6.523   6.001 -2.4429  0.8912  0.9443
  182MOL    H8425786   4.971   6.706   5.925 -0.4952 -0.0202 -0.5085
  182MOL    H8525787   4.992   6.777   6.084 -3.1175  2.8731  1.4159
  182MOL    C8625788   4.782   6.900   6.087 -0.7589 -0.0959  0.0425
  182MOL    C8725789   4.664   6.985   6.040  0.4047  0.3561 -0.7900
  182MOL    O8825790   4.712   7.086   5.951  1.1802  0.2309  0.3970
  182MOL    H8925791   4.757   6.847   6.179 -1.1201 -1.8419 -1.0377
  182MOL    H9025792   4.867   6.963   6.113 -1.1144  1.1123 -1.5736
  182MOL    H9125793   4.620   7.047   6.117  0.1404 -0.8701  0.0529
  182MOL    H9225794   4.592   6.919   5.991 -0.2970  2.0259 -2.0259
  182MOL    C9325795   4.765   7.032   5.830  0.1367  0.1106 -0.2657
  182MOL    C9425796   4.746   7.130   5.719 -0.1149 -0.1121  0.0381
  182MOL    O9525797   4.811   7.096   5.599  0.2493 -0.3423 -0.6122
  182MOL    H9625798   4.871   7.021   5.854  0.3414 -0.6421 -1.4928
  182MOL    H9725799   4.711   6.946   5.791  2.9288 -1.4039 -0.8746
  182MOL    H9825800   4.780   7.231   5.742 -2.1892  0.2416  1.6948
  182MOL    H9925801   4.640   7.145   5.701 -0.1327  0.4188  0.5728
  182MOL   C10025802   4.792   7.192   5.503 -0.4068  0.2679  0.2081
  182MOL   C10125803   4.874   7.149   5.375 -0.3413  0.6220  0.6065
  182MOL   O10225804   4.824   7.027   5.311 -0.0162  0.3749  0.0421
  182MOL   H10325805   4.686   7.197   5.480 -0.5117  0.8691  0.8076
  182MOL   H10425806   4.832   7.288   5.535 -2.5839  0.8398  1.2796
  182MOL   H10525807   4.977   7.129   5.402 -0.1588  0.4462 -0.2079
  182MOL   H10625808   4.875   7.227   5.298 -1.9504 -0.1866 -0.2540
  182MOL   C10725809   4.910   6.990   5.204 -0.0024  0.4116 -0.0547
  182MOL   C10825810   4.975   6.855   5.241  1.0238 -0.4535  0.4301
  182MOL   O10925811   4.873   6.762   5.226  0.1120  0.1823 -0.3872
  182MOL   H11025812   4.844   6.964   5.121  0.4690  1.2458 -0.7008
  182MOL   H11125813   4.980   7.067   5.171  1.2565 -0.9360 -0.5475
  182MOL   H11225814   5.026   6.861   5.337 -0.6553 -0.6409  1.3502
  182MOL   H11325815   5.049   6.842   5.162  0.5545  0.9586 -0.2565
  182MOL   C11425816   4.924   6.626   5.214 -0.2038  0.0439  0.0522
  182MOL   C11525817   4.798   6.534   5.224  0.5316  0.1943  1.1029
  182MOL   O11625818   4.715   6.572   5.112  0.5377 -0.2022 -0.5907
  182MOL   H11725819   4.986   6.619   5.124  0.4964 -0.2535  0.5506
  182MOL   H11825820   4.992   6.586   5.290 -0.8061 -0.0624  0.5381
  182MOL   H11925821   4.746   6.559   5.316  0.0330 -2.1337  1.4844
  182MOL   H12025822   4.826   6.429   5.223 -0.2979 -0.0389 -1.1522
  182MOL   C12125823   4.580   6.563   5.139  0.2822 -0.3603 -0.0082
  182MOL   C12225824   4.510   6.636   5.023  0.0609  0.0067  0.9198
  182MOL   O12325825   4.490   6.548   4.918 -0.2791  0.2042 -0.4107
  182MOL   H12425826   4.539   6.462   5.144 -1.1334  0.2605  1.9233
  182MOL   H12525827   4.547   6.618   5.228 -1.4501  0.8688 -1.3724
  182MOL   H12625828   4.568   6.723   4.991 -1.1929 -0.1779 -1.9160
  182MOL   H12725829   4.409   6.661   5.055  0.2237 -0.1465  1.5711
  182MOL   C12825830   4.389   6.583   4.830 -0.6085 -0.1065 -0.0935
  182MOL   C12925831   4.390   6.503   4.704 -0.3993  0.6916 -0.0129
  182MOL   O13025832   4.488   6.555   4.616 -0.5236 -0.5615  0.0306
  182MOL   H13125833   4.295   6.577   4.884 -0.2952 -0.2917  0.4459
  182MOL   H13225834   4.400   6.689   4.808 -1.2678 -0.2908 -1.3462
  182MOL   H13325835   4.293   6.520   4.657 -0.8972  1.5506  1.3115
  182MOL   H13425836   4.406   6.401   4.740 -1.7331  0.9806  1.4168
  182MOL   C13525837   4.461   6.512   4.480 -0.9922 -0.0371  0.4175
  182MOL   C13625838   4.587   6.547   4.404  0.5002 -0.1512 -0.7743
  182MOL   O13725839   4.697   6.465   4.443  0.2380  0.5795 -0.2854
  182MOL   H13825840   4.448   6.403   4.476  0.8829 -0.3648  2.4493
  182MOL   H13925841   4.371   6.563   4.445  0.0225  0.0097 -2.2238
  182MOL   H14025842   4.611   6.653   4.399 -0.4481  0.0839 -0.3260
  182MOL   H14125843   4.567   6.533   4.298  0.8741 -0.3174 -0.8253
  182MOL   H14225844   4.712   6.481   4.535  1.0087 -1.7158  0.0120
  183MOL     C125845   0.475   1.936   0.073 -0.1804  0.1572  0.8731
  183MOL     C225846   0.620   1.889   0.107 -0.2868 -0.4538 -0.1691
  183MOL     O325847   0.643   1.908   0.245  0.2014 -0.1425  0.3064
  183MOL     H425848   0.468   2.043   0.093 -1.0093 -0.1112  2.0940
  183MOL     H525849   0.393   1.887   0.127  0.0318  0.5263  1.5441
  183MOL     H625850   0.692   1.934   0.038 -0.2004 -0.4224 -0.0590
  183MOL     H725851   0.615   1.782   0.087 -1.9375 -0.3792 -0.2296
  183MOL     H825852   0.459   1.926   7.737 -1.4527 -0.0237  1.0655
  183MOL     C925853   0.703   2.035   0.259 -0.8043  0.0699 -0.4245
  183MOL    C1025854   0.742   2.049   0.413 -0.3696 -0.2866  0.9032
  183MOL    O1125855   0.853   1.981   0.458  0.0298  1.0391  0.4439
  183MOL    H1225856   0.785   2.041   0.187 -1.6264  1.5378 -1.2791
  183MOL    H1325857   0.631   2.114   0.235 -1.5584 -0.2545  0.7273
  183MOL    H1425858   0.650   2.052   0.471 -0.8066 -0.4973  0.2269
  183MOL    H1525859   0.760   2.156   0.428  0.3950  0.0229 -1.8687
  183MOL    C1625860   0.840   1.845   0.491  0.1629 -0.2603  0.2948
  183MOL    C1725861   0.977   1.790   0.512  0.2162  0.0782 -0.4412
  183MOL    O1825862   1.037   1.747   0.392 -0.5676  0.4995 -0.4752
  183MOL    H1925863   0.790   1.846   0.588 -2.6169  0.7410 -1.0999
  183MOL    H2025864   0.772   1.799   0.420 -0.0395  1.1378 -0.4335
  183MOL    H2125865   0.963   1.701   0.574 -0.8780  0.9655  0.6155
  183MOL    H2225866   1.046   1.865   0.551  1.0828  0.4937 -2.6817
  183MOL    C2325867   1.181   1.744   0.384 -0.4954 -0.0523  0.6713
  183MOL    C2425868   1.235   1.722   0.248 -0.2680  0.0179  0.3155
  183MOL    O2525869   1.227   1.581   0.231  0.5343 -0.4295 -0.2502
  183MOL    H2625870   1.203   1.842   0.426 -3.6861  1.1148 -0.2584
  183MOL    H2725871   1.221   1.668   0.451  0.1657 -2.1645 -2.0474
  183MOL    H2825872   1.340   1.754   0.250  0.1798 -1.1024 -2.6587
  183MOL    H2925873   1.195   1.789   0.171 -4.0484 -0.0178  2.1391
  183MOL    C3025874   1.261   1.542   0.098  0.0928 -0.2187 -0.2758
  183MOL    C3125875   1.305   1.401   0.103 -0.1585 -0.0904 -0.4612
  183MOL    O3225876   1.422   1.384   0.187  0.4488  0.2461  0.3084
  183MOL    H3325877   1.173   1.551   0.035 -1.1575 -1.1323  1.2858
  183MOL    H3425878   1.339   1.600   0.050 -0.1461 -0.3516 -0.8320
  183MOL    H3525879   1.318   1.350   0.008 -1.4007 -0.6094 -0.3682
  183MOL    H3625880   1.235   1.340   0.161  0.7664 -0.0923  0.6774
  183MOL    C3725881   1.539   1.408   0.111 -0.0571 -0.0911 -0.3424
  183MOL    C3825882   1.655   1.385   0.198 -0.2097  0.3399  0.3214
  183MOL    O3925883   1.683   1.500   0.277  0.0851  0.1854  0.1685
  183MOL    H4025884   1.541   1.336   0.029  0.5733  1.8759 -2.0871
  183MOL    H4125885   1.539   1.511   0.077  0.0734  0.6077  1.6929
  183MOL    H4225886   1.738   1.354   0.135  0.1574 -1.5838  1.7240
  183MOL    H4325887   1.631   1.295   0.255 -0.5140 -0.6417 -1.2993
  183MOL    C4425888   1.784   1.486   0.374 -0.5520 -0.0318  0.5163
  183MOL    C4525889   1.800   1.616   0.457  0.0693  0.2095 -0.3780
  183MOL    O4625890   1.869   1.726   0.391  0.0731 -0.2640 -0.1208
  183MOL    H4725891   1.757   1.406   0.442  1.9362  0.2956  1.9788
  183MOL    H4825892   1.869   1.453   0.313  0.1115  2.1800  0.1692
  183MOL    H4925893   1.864   1.600   0.544 -2.5292  0.1642  1.5692
  183MOL    H5025894   1.705   1.644   0.501 -0.5470 -0.9767 -0.9387
  183MOL    C5125895   1.796   1.773   0.276 -0.1176 -0.3535 -0.2943
  183MOL    C5225896   1.875   1.895   0.239 -0.8481  0.2470  0.6400
  183MOL    O5325897   1.795   1.969   0.150 -0.1160 -0.0015 -0.2536
  183MOL    H5425898   1.790   1.695   0.200  0.4356  1.1625 -1.9090
  183MOL    H5525899   1.694   1.801   0.303 -0.1343  0.1505 -0.8707
  183MOL    H5625900   1.970   1.862   0.196 -1.1559 -0.7640  0.7151
  183MOL    H5725901   1.901   1.948   0.331  1.9931  0.8478 -0.4520
  183MOL    C5825902   1.828   2.104   0.137 -0.8446 -0.4814 -0.5822
  183MOL    C5925903   1.946   2.130   0.048 -0.0745 -0.3361 -1.0548
  183MOL    O6025904   2.068   2.137   0.118 -0.5957 -0.3673  0.3010
  183MOL    H6125905   1.740   2.150   0.090 -0.6433  1.2888  0.6968
  183MOL    H6225906   1.834   2.162   0.229 -0.5945  1.3450 -1.7116
  183MOL    H6325907   1.936   2.223   7.763  0.6416  0.4791  0.1683
  183MOL    H6425908   1.952   2.053   7.741  0.1157 -1.3229 -0.0772
  183MOL    C6525909   2.187   2.146   0.037 -0.3697 -0.1761 -0.5142
  183MOL    C6625910   2.244   2.009   0.005 -0.0300 -0.2369 -0.2462
  183MOL    O6725911   2.288   1.942   0.109  0.5302  0.2869 -0.0748
  183MOL    H6825912   2.168   2.202   7.717 -1.2806 -0.9021 -0.7907
  183MOL    H6925913   2.268   2.199   0.087  0.0596 -1.5716  0.2950
  183MOL    H7025914   2.327   2.015   7.705 -0.3468 -3.0340 -0.9238
  183MOL    H7125915   2.171   1.942   7.730  1.1103 -0.4957 -1.7222
  183MOL    C7225916   2.366   1.828   0.091  0.2765 -0.2070  0.8517
  183MOL    C7325917   2.432   1.811   0.230 -0.5197 -0.1558 -0.5746
  183MOL    O7425918   2.343   1.746   0.321  0.1489  0.3464 -0.3026
  183MOL    H7525919   2.307   1.741   0.061 -3.1454  2.4591 -0.4800
  183MOL    H7625920   2.438   1.848   0.011  0.8203 -1.6956  0.9586
  183MOL    H7725921   2.490   1.898   0.260  0.9027 -0.4388 -2.3948
  183MOL    H7825922   2.511   1.738   0.209  0.3744  0.7507 -0.4090
  183MOL    C7925923   2.261   1.839   0.395 -0.4896  0.1602  0.4386
  183MOL    C8025924   2.192   1.755   0.502  0.4302 -0.3873  0.3217
  183MOL    O8125925   2.267   1.721   0.622 -0.2019 -0.2048  0.2897
  183MOL    H8225926   2.306   1.915   0.458 -1.8962  2.7429 -1.5506
  183MOL    H8325927   2.190   1.881   0.324  0.6486 -1.3747 -1.6634
  183MOL    H8425928   2.144   1.668   0.457  0.3708  0.6335 -1.6258
  183MOL    H8525929   2.111   1.824   0.527  1.8781  0.2741  3.4885
  183MOL    C8625930   2.333   1.600   0.622  0.1254 -0.0777 -0.6821
  183MOL    C8725931   2.251   1.474   0.667  0.8323 -0.4461 -0.1651
  183MOL    O8825932   2.158   1.438   0.557  0.8012  0.2729  0.5313
  183MOL    H8925933   2.381   1.581   0.526 -1.2576  0.2490 -1.4516
  183MOL    H9025934   2.414   1.611   0.693 -0.8520  0.9848  0.2826
  183MOL    H9125935   2.201   1.479   0.764  0.2979 -0.7482 -0.4214
  183MOL    H9225936   2.329   1.399   0.674  0.1641 -1.1120  0.2074
  183MOL    C9325937   2.073   1.332   0.588  0.1894 -0.4079 -0.0487
  183MOL    C9425938   2.147   1.201   0.601 -0.2004  0.5400 -0.0685
  183MOL    O9525939   2.204   1.197   0.739  0.7684  0.1821  0.2821
  183MOL    H9625940   2.010   1.357   0.674  0.4012  0.2940 -0.0923
  183MOL    H9725941   2.008   1.313   0.503  0.3218 -1.1196  0.0053
  183MOL    H9825942   2.219   1.183   0.520 -2.2554  1.0279 -2.0593
  183MOL    H9925943   2.066   1.130   0.587  0.1478 -0.1566  1.4354
  183MOL   C10025944   2.230   1.062   0.778  0.2148  0.9996  0.3554
  183MOL   C10125945   2.298   1.052   0.915  0.3571 -0.2527  0.2867
  183MOL   O10225946   2.430   1.019   0.899 -0.8886 -0.4880 -0.3995
  183MOL   H10325947   2.134   1.012   0.787  0.1040  1.3853  1.3849
  183MOL   H10425948   2.298   1.013   0.708 -1.6422  0.1064 -0.8573
  183MOL   H10525949   2.246   0.971   0.965  1.4068  0.4413  2.5761
  183MOL   H10625950   2.293   1.151   0.962 -2.3465  0.1446 -0.7507
  183MOL   C10725951   2.493   0.996   1.030 -0.2958  0.6856 -0.0519
  183MOL   C10825952   2.541   0.850   1.046 -0.3392 -0.4818 -0.8305
  183MOL   O10925953   2.438   0.756   1.041  1.3700 -0.1246 -0.0543
  183MOL   H11025954   2.576   1.065   1.047 -0.4543  0.8035  0.2626
  183MOL   H11125955   2.424   1.036   1.105  0.2392 -0.7737  1.2362
  183MOL   H11225956   2.588   0.843   1.145 -0.5552 -1.2377 -0.7815
  183MOL   H11325957   2.609   0.828   0.964  0.7961 -1.2459  0.2821
  183MOL   C11425958   2.405   0.703   0.916 -0.7121 -0.0444 -0.2769
  183MOL   C11525959   2.277   0.617   0.937 -0.1186 -0.7291  0.1609
  183MOL   O11625960   2.252   0.529   0.824 -0.3039  0.3612  0.3875
  183MOL   H11725961   2.394   0.779   0.839  0.2290 -1.0577 -1.4190
  183MOL   H11825962   2.487   0.642   0.880 -0.5496  0.2852 -0.4713
  183MOL   H11925963   2.196   0.689   0.944 -0.9948 -1.6909  0.0771
  183MOL   H12025964   2.277   0.560   1.029 -1.1856  0.8892  1.1870
  183MOL   C12125965   2.133   0.450   0.854  0.6989  0.4465  0.4376
  183MOL   C12225966   2.001   0.531   0.836 -0.5441  0.6601 -0.4778
  183MOL   O12325967   1.950   0.609   0.941  0.1063 -0.3190  0.2151
  183MOL   H12425968   2.134   0.384   0.768  2.6338  2.1006 -0.8540
  183MOL   H12525969   2.132   0.378   0.936  0.8889 -0.7981 -0.6383
  183MOL   H12625970   1.928   0.452   0.816 -0.5954  0.5568  0.1170
  183MOL   H12725971   2.001   0.588   0.743  1.1609 -0.1388 -0.9901
  183MOL   C12825972   1.908   0.533   1.051 -0.3021 -0.1258  0.4913
  183MOL   C12925973   1.912   0.626   1.172 -0.0041  0.2215 -1.6385
  183MOL   O13025974   2.047   0.673   1.213 -0.1397  0.0161  0.4375
  183MOL   H13125975   1.808   0.493   1.033  0.6898 -1.5207 -2.2104
  183MOL   H13225976   1.980   0.453   1.070  0.4849  0.9539  2.1807
  183MOL   H13325977   1.882   0.564   1.256  2.4810 -0.2009 -1.0348
  183MOL   H13425978   1.848   0.714   1.170  0.4236  0.5187 -2.3485
  183MOL   C13525979   2.059   0.764   1.316 -0.5320 -0.1302  0.3140
  183MOL   C13625980   2.200   0.815   1.331 -0.4676 -0.5902  0.5896
  183MOL   O13725981   2.253   0.888   1.225  0.2172  0.4315 -0.1753
  183MOL   H13825982   1.998   0.853   1.302  2.2968  1.8248 -0.0917
  183MOL   H13925983   2.026   0.709   1.404  1.1990 -1.6076  0.0715
  183MOL   H14025984   2.272   0.736   1.353  1.3618  0.3733 -1.6015
  183MOL   H14125985   2.208   0.880   1.419  2.7800  2.9584 -2.1015
  183MOL   H14225986   2.286   0.825   1.162 -0.1427 -0.3436  0.4009
  184MOL     C125987   4.543   2.638   7.652 -0.2955 -0.1856 -0.5345
  184MOL     C225988   4.469   2.535   7.731 -0.0877 -0.0597 -0.0586
  184MOL     O325989   4.470   2.575   0.099  0.6641 -0.3812  0.1838
  184MOL     H425990   4.561   2.608   7.548 -2.2566 -1.6878 -0.4708
  184MOL     H525991   4.641   2.646   7.699 -0.3010 -1.3336 -0.3153
  184MOL     H625992   4.519   2.440   7.712  0.4793 -0.2725  2.4180
  184MOL     H725993   4.367   2.522   7.695 -0.1756  1.0049 -0.2155
  184MOL     H825994   4.498   2.736   7.668 -2.1038 -0.8244 -1.5896
  184MOL     C925995   4.387   2.497   0.189  0.3962 -0.2325  0.3069
  184MOL    C1025996   4.464   2.366   0.239  0.4261 -0.5579  0.6679
  184MOL    O1125997   4.455   2.261   0.145  0.2996  1.1493 -0.0933
  184MOL    H1225998   4.360   2.553   0.278 -1.3072  0.0880 -0.4084
  184MOL    H1325999   4.287   2.477   0.152  1.0050 -0.6821 -1.1592
  184MOL    H1426000   4.409   2.333   0.327 -0.4099  2.0424  1.1763
  184MOL    H1526001   4.565   2.399   0.263  0.0320  0.8666  0.3822
  184MOL    C1626002   4.500   2.136   0.186  0.0751  0.1816 -0.4202
  184MOL    C1726003   4.476   2.022   0.088  0.3787 -0.6306  0.5710
  184MOL    O1826004   4.338   1.997   0.084  0.4648 -0.0737 -0.4489
  184MOL    H1926005   4.607   2.142   0.208 -0.2527 -1.8227  1.9712
  184MOL    H2026006   4.460   2.127   0.287  0.3943  4.3618  0.1270
  184MOL    H2126007   4.529   1.929   0.108  0.4749 -0.5468  0.7010
  184MOL    H2226008   4.505   2.057   7.760 -0.6033  0.0647  0.5206
  184MOL    C2326009   4.301   1.913   7.746  0.5564 -0.1718 -0.0859
  184MOL    C2426010   4.279   1.766   0.020  0.0893  0.1202  0.2280
  184MOL    O2526011   4.387   1.680   7.761  0.3634  0.2378 -0.1529
  184MOL    H2626012   4.205   1.949   7.707  0.1334  0.3751  1.4211
  184MOL    H2726013   4.374   1.918   7.665  0.2044  0.3323 -0.3770
  184MOL    H2826014   4.189   1.722   7.749  1.5299 -0.6882 -2.0344
  184MOL    H2926015   4.270   1.759   0.129 -1.7683 -2.0740 -0.0458
  184MOL    C3026016   4.365   1.541   0.034 -0.3106 -0.1822  0.3210
  184MOL    C3126017   4.505   1.478   0.055  0.3820  0.1412 -0.2529
  184MOL    O3226018   4.583   1.555   0.144 -0.5203 -0.0186  0.0263
  184MOL    H3326019   4.301   1.534   0.122 -1.3936 -0.2427 -0.4541
  184MOL    H3426020   4.306   1.485   7.732  0.2189  1.4372 -1.3902
  184MOL    H3526021   4.548   1.457   7.728  0.3467 -0.2044 -0.1953
  184MOL    H3626022   4.477   1.387   0.108  1.1606 -0.1590 -0.3629
  184MOL    C3726023   4.717   1.503   0.164  0.2216 -0.2675 -0.2794
  184MOL    C3826024   4.795   1.575   0.270 -0.6799 -0.1454 -0.6597
  184MOL    O3926025   4.855   1.690   0.219 -0.3433  0.2640  0.0138
  184MOL    H4026026   4.712   1.400   0.198 -0.2618  0.2868  1.3793
  184MOL    H4126027   4.774   1.504   0.071  1.4271  0.5414  0.4529
  184MOL    H4226028   4.873   1.504   0.298  0.2436  1.3427  0.6381
  184MOL    H4326029   4.750   1.593   0.367 -0.8138  1.9209 -1.0649
  184MOL    C4426030   4.770   1.802   0.185 -0.1341  0.4940  0.6086
  184MOL    C4526031   4.849   1.920   0.130 -0.1051 -0.8348  0.3564
  184MOL    O4626032   4.946   1.973   0.220 -0.0408  0.5735  0.1752
  184MOL    H4726033   4.695   1.770   0.112 -1.9563  1.9798  1.7789
  184MOL    H4826034   4.727   1.832   0.280 -1.0953  0.2314  0.2621
  184MOL    H4926035   4.786   1.998   0.088  0.9393  0.0649  0.4567
  184MOL    H5026036   4.903   1.877   0.045 -0.3539 -2.5828  1.0653
  184MOL    C5126037   4.985   2.105   0.193  0.0528  0.0477  0.1481
  184MOL    C5226038   5.091   2.165   0.294  0.0087 -0.1692  0.1514
  184MOL    O5326039   5.075   2.306   0.293  1.0157 -0.2938 -0.0669
  184MOL    H5426040   5.017   2.123   0.091 -0.7428  0.5347 -0.0225
  184MOL    H5526041   4.891   2.159   0.206 -0.6706 -0.9862 -0.7364
  184MOL    H5626042   5.190   2.126   0.269  0.0275  0.3967 -0.6928
  184MOL    H5726043   5.069   2.129   0.394  1.2424 -1.5488 -0.0627
  184MOL    C5826044   5.136   2.372   0.188  0.2714  0.1023  0.1707
  184MOL    C5926045   5.151   2.521   0.216 -0.9984 -0.2737  0.1565
  184MOL    O6026046   5.276   2.565   0.264 -0.0832  0.0328  0.1027
  184MOL    H6126047   5.234   2.335   0.160  0.2120  0.1894 -0.1560
  184MOL    H6226048   5.072   2.352   0.101  0.3339  1.9723 -0.3195
  184MOL    H6326049   5.088   2.560   0.296 -1.0712  0.3048 -0.1782
  184MOL    H6426050   5.117   2.570   0.125  1.0582  1.8844  0.4864
  184MOL    C6526051   5.295   2.705   0.265 -0.2257  0.4861  0.4418
  184MOL    C6626052   5.451   2.740   0.278 -0.3654 -0.8552 -0.6355
  184MOL    O6726053   5.485   2.712   0.413 -0.6275 -0.0995 -0.6956
  184MOL    H6826054   5.260   2.731   0.165  1.2601 -1.3282 -0.5828
  184MOL    H6926055   5.226   2.751   0.337 -0.3695 -0.7524  1.1097
  184MOL    H7026056   5.457   2.848   0.263 -0.1462 -0.5992  1.2464
  184MOL    H7126057   5.516   2.685   0.209  1.3722 -2.2023  2.0139
  184MOL    C7226058   5.601   2.779   0.457  0.2905 -0.5670 -0.0443
  184MOL    C7326059   5.643   2.733   0.602  0.5408  0.3640  0.5421
  184MOL    O7426060   5.560   2.808   0.695 -0.6178 -0.2485 -0.0148
  184MOL    H7526061   5.687   2.759   0.393 -1.3886 -0.1847 -2.4593
  184MOL    H7626062   5.593   2.887   0.447 -1.7485 -0.9117 -2.5253
  184MOL    H7726063   5.747   2.759   0.621  1.0829 -0.2761 -1.4395
  184MOL    H7826064   5.629   2.625   0.615  1.6547  0.2515  0.9013
  184MOL    C7926065   5.616   2.801   0.824  0.4613  0.0647  0.8238
  184MOL    C8026066   5.523   2.879   0.918 -0.3125  0.8558  0.0863
  184MOL    O8126067   5.533   2.822   1.041 -0.2288 -0.0817 -0.5883
  184MOL    H8226068   5.627   2.703   0.871 -0.1737  0.0641  0.9747
  184MOL    H8326069   5.716   2.843   0.834  0.6002  0.1928 -0.9878
  184MOL    H8426070   5.424   2.873   0.873 -0.2384  1.3159 -0.1425
  184MOL    H8526071   5.563   2.980   0.913 -1.0269  1.0654 -1.5662
  184MOL    C8626072   5.471   2.896   1.140 -0.2004 -0.1589 -0.2048
  184MOL    C8726073   5.491   2.843   1.285 -0.2534  0.0163  0.6105
  184MOL    O8826074   5.583   2.918   1.357 -0.0926 -0.4485 -0.6263
  184MOL    H8926075   5.502   3.000   1.153  3.6111 -1.2592 -0.0344
  184MOL    H9026076   5.364   2.900   1.119  0.0039  2.6318 -0.9396
  184MOL    H9126077   5.518   2.737   1.290  0.2694  0.2290  2.3923
  184MOL    H9226078   5.398   2.854   1.339 -0.6070  1.7292 -0.3066
  184MOL    C9326079   5.715   2.895   1.307  0.1892 -0.2598 -0.1712
  184MOL    C9426080   5.791   3.036   1.320  0.8633 -0.0955  0.1342
  184MOL    O9526081   5.734   3.116   1.213  0.0267 -0.3033 -0.1769
  184MOL    H9626082   5.748   2.803   1.356 -0.6652 -0.1602  0.6017
  184MOL    H9726083   5.703   2.878   1.200  0.2452  0.3541 -0.2766
  184MOL    H9826084   5.899   3.025   1.319  1.1477  2.3792  0.9479
  184MOL    H9926085   5.770   3.076   1.420  0.8352 -0.5712  0.3212
  184MOL   C10026086   5.801   3.240   1.219 -0.6180  0.1947 -0.0531
  184MOL   C10126087   5.886   3.233   1.087  0.3869 -0.5917  0.1573
  184MOL   O10226088   5.969   3.115   1.100 -0.3006 -0.4038 -0.2412
  184MOL   H10326089   5.731   3.323   1.221  1.8715  2.3337  0.9700
  184MOL   H10426090   5.872   3.259   1.299  0.8164  0.6333 -1.3987
  184MOL   H10526091   5.947   3.323   1.086 -1.8783  0.9668 -0.5920
  184MOL   H10626092   5.828   3.240   0.995 -0.7280  3.0644  1.0391
  184MOL   C10726093   6.082   3.111   1.012  0.8267 -0.2279  0.4809
  184MOL   C10826094   6.160   2.977   1.034 -0.1896 -0.1748 -0.0157
  184MOL   O10926095   6.101   2.864   0.968  0.4775  0.2054 -0.5053
  184MOL   H11026096   6.057   3.131   0.907  0.9520 -1.0843  0.2848
  184MOL   H11126097   6.147   3.197   1.028 -0.6894  1.1837 -0.6708
  184MOL   H11226098   6.178   2.956   1.139  1.4427 -1.7881 -0.5942
  184MOL   H11326099   6.262   2.987   0.996  0.6734 -2.4870  1.5399
  184MOL   C11426100   6.003   2.799   1.048  0.5277  0.3585  0.5284
  184MOL   C11526101   5.926   2.687   0.977  0.0461 -0.3640 -0.8373
  184MOL   O11626102   5.987   2.561   1.009  0.3535 -0.5082 -0.7055
  184MOL   H11726103   6.045   2.760   1.141 -0.1534 -1.4749  0.0765
  184MOL   H11826104   5.929   2.871   1.084  0.6238  0.1945  1.0590
  184MOL   H11926105   5.910   2.715   0.873  1.0475  0.7011 -0.7198
  184MOL   H12026106   5.829   2.681   1.026  0.7425  1.9472  0.9670
  184MOL   C12126107   6.116   2.544   0.947  0.5734  0.0970 -0.1340
  184MOL   C12226108   6.174   2.418   1.003 -0.7365 -0.7568 -0.4003
  184MOL   O12326109   6.286   2.372   0.918 -0.5568 -0.5251  0.4189
  184MOL   H12426110   6.111   2.525   0.840  0.6521 -1.0988  0.0769
  184MOL   H12526111   6.183   2.630   0.951  0.9130 -0.2569  2.2092
  184MOL   H12626112   6.093   2.346   1.015 -3.8609  2.6705  0.3559
  184MOL   H12726113   6.201   2.427   1.109  2.4045 -0.9528 -1.1290
  184MOL   C12826114   6.330   2.238   0.947  0.5867 -0.0549  0.5281
  184MOL   C12926115   6.475   2.230   0.898  0.1917 -0.6526  0.7355
  184MOL   O13026116   6.481   2.198   0.759  0.2208  0.8616  0.5562
  184MOL   H13126117   6.317   2.223   1.054  1.0088  0.5775  0.6698
  184MOL   H13226118   6.258   2.168   0.903 -1.1528  3.0094 -1.7436
  184MOL   H13326119   6.521   2.143   0.944  0.1593 -0.8752  0.3540
  184MOL   H13426120   6.536   2.316   0.924 -1.0517  0.4615  0.0203
  184MOL   C13526121   6.444   2.313   0.676 -0.1957 -0.5766  0.2605
  184MOL   C13626122   6.451   2.272   0.525  0.6532 -0.5991  0.2061
  184MOL   O13726123   6.586   2.290   0.481  0.1617  0.3250 -0.7397
  184MOL   H13826124   6.340   2.344   0.690 -0.1630 -0.7820  0.9971
  184MOL   H13926125   6.496   2.400   0.717 -0.6017 -0.9974  1.6987
  184MOL   H14026126   6.387   2.341   0.470 -0.8904 -2.5841 -0.5474
  184MOL   H14126127   6.418   2.169   0.514  1.5028 -0.8130 -0.4179
  184MOL   H14226128   6.637   2.334   0.548  1.7068 -0.9137 -1.0757
  185MOL     C126129   5.592   2.211   7.198 -0.9042  0.4585 -0.0574
  185MOL     C226130   5.477   2.310   7.234  0.2266 -0.0318  0.1618
  185MOL     O326131   5.506   2.435   7.177  0.6355  0.2085  0.2579
  185MOL     H426132   5.549   2.112   7.211 -0.6702  0.2575 -0.7631
  185MOL     H526133   5.682   2.209   7.260  0.0441  1.0198 -1.3815
  185MOL     H626134   5.468   2.331   7.341 -1.4253  0.7040 -0.1013
  185MOL     H726135   5.379   2.272   7.205  0.5355 -0.6799 -0.0385
  185MOL     H826136   5.635   2.220   7.098  2.6092 -0.7661  1.2660
  185MOL     C926137   5.421   2.537   7.218  0.2876  0.2590  0.3174
  185MOL    C1026138   5.485   2.674   7.191  0.3135  1.2302 -0.2457
  185MOL    O1126139   5.475   2.698   7.051  0.3257 -0.0215  0.2073
  185MOL    H1226140   5.327   2.522   7.166 -0.1700 -0.0648  1.2158
  185MOL    H1326141   5.410   2.528   7.326  0.4936 -1.6517  0.1875
  185MOL    H1426142   5.584   2.666   7.234  0.8017 -1.7797 -1.8263
  185MOL    H1526143   5.445   2.758   7.248 -0.4709 -0.2842  1.4804
  185MOL    C1626144   5.554   2.813   7.009  0.0340  0.1969  0.8628
  185MOL    C1726145   5.522   2.841   6.860 -0.0040 -0.2899 -0.4059
  185MOL    O1826146   5.566   2.974   6.833  0.1739  0.2812 -0.1195
  185MOL    H1926147   5.522   2.900   7.066  1.1340  1.7610 -0.8371
  185MOL    H2026148   5.662   2.808   7.023  0.5132  1.7891 -1.8987
  185MOL    H2126149   5.418   2.813   6.841 -0.3928 -0.3251  1.6230
  185MOL    H2226150   5.574   2.765   6.801 -2.0700 -1.3307 -0.9287
  185MOL    C2326151   5.534   3.016   6.706 -0.3610  0.4583  0.0847
  185MOL    C2426152   5.572   3.165   6.692  0.1900  0.1156 -0.2560
  185MOL    O2526153   5.455   3.230   6.744 -0.5565  0.1493  0.0646
  185MOL    H2626154   5.588   2.957   6.632 -3.0266  0.3539 -1.8554
  185MOL    H2726155   5.427   3.004   6.686 -0.3767  1.9002 -0.7838
  185MOL    H2826156   5.578   3.184   6.584  0.7327  1.0680 -0.0630
  185MOL    H2926157   5.666   3.193   6.741  0.5071  0.3209 -0.9648
  185MOL    C3026158   5.468   3.287   6.869 -0.3533 -0.5329  0.4689
  185MOL    C3126159   5.331   3.333   6.918  0.7990 -0.3018 -0.9037
  185MOL    O3226160   5.265   3.227   6.982  0.2503 -0.3700 -0.4362
  185MOL    H3326161   5.511   3.235   6.954  0.1289  1.6697  1.6092
  185MOL    H3426162   5.528   3.378   6.859 -0.9754 -0.2798 -1.1243
  185MOL    H3526163   5.274   3.378   6.837 -2.5130 -0.5435  1.1909
  185MOL    H3626164   5.351   3.404   6.998 -1.7216  0.8220 -1.1951
  185MOL    C3726165   5.194   3.145   6.885  0.1999  0.1559  0.0473
  185MOL    C3826166   5.079   3.069   6.947 -0.3897  0.3646 -0.1536
  185MOL    O3926167   5.002   3.153   7.027  0.2956 -0.2049  0.6837
  185MOL    H4026168   5.161   3.200   6.797 -0.3863 -0.1820  0.0516
  185MOL    H4126169   5.258   3.078   6.828 -0.7056  0.9188 -1.9091
  185MOL    H4226170   5.116   2.985   7.005  0.9373  1.8040  1.1547
  185MOL    H4326171   5.011   3.024   6.875 -0.5770  1.6079 -0.7811
  185MOL    C4426172   4.880   3.089   7.068 -0.5977  0.1557  0.5332
  185MOL    C4526173   4.799   3.160   7.178  0.4908  0.4301 -0.1526
  185MOL    O4626174   4.838   3.131   7.317 -0.8183  0.5063 -0.4784
  185MOL    H4726175   4.829   3.077   6.973  0.4556 -0.1239 -0.0022
  185MOL    H4826176   4.894   2.986   7.100  2.6968  1.0532  2.2588
  185MOL    H4926177   4.705   3.106   7.170  1.0258 -0.2614 -2.2285
  185MOL    H5026178   4.782   3.263   7.147  1.6593  1.1216  1.4245
  185MOL    C5126179   4.977   3.145   7.345  0.1255 -0.4225 -0.0575
  185MOL    C5226180   4.995   3.133   7.502 -0.0535 -0.1212 -0.0758
  185MOL    O5326181   4.992   2.993   7.531  0.4884 -0.6208  0.4583
  185MOL    H5426182   5.033   3.072   7.286  0.4574 -0.6410  0.5280
  185MOL    H5526183   5.006   3.235   7.291  0.3847 -0.8101 -0.5754
  185MOL    H5626184   4.912   3.195   7.537 -0.2454  0.2611 -1.1929
  185MOL    H5726185   5.089   3.176   7.538 -1.6805  2.3013  1.4394
  185MOL    C5826186   4.991   2.977   7.671 -0.4401 -0.2033 -0.0227
  185MOL    C5926187   5.036   2.838   7.704  0.3558 -0.4000 -0.4572
  185MOL    O6026188   5.176   2.812   7.701 -0.3018 -0.0210  0.0387
  185MOL    H6126189   5.064   3.048   7.710 -1.9374  1.6130 -0.4768
  185MOL    H6226190   4.892   2.991   7.713 -1.9489 -1.3189 -3.0243
  185MOL    H6326191   4.984   2.765   7.641 -0.0820  0.3647 -0.9903
  185MOL    H6426192   4.996   2.821   0.033  0.7146 -0.0204 -0.2502
  185MOL    C6526193   5.243   2.830   7.575  0.6802 -0.4538 -0.4356
  185MOL    C6626194   5.384   2.779   7.601  0.6126 -0.1564  0.1894
  185MOL    O6726195   5.393   2.639   7.636  0.4715 -0.6874  0.2756
  185MOL    H6826196   5.196   2.763   7.502 -0.4988 -2.0743  1.7642
  185MOL    H6926197   5.248   2.932   7.537 -1.5917  0.4503  1.5596
  185MOL    H7026198   5.437   2.826   7.683 -0.7164 -0.1521  1.0594
  185MOL    H7126199   5.449   2.798   7.516 -0.1962 -0.5231 -0.5299
  185MOL    C7226200   5.535   2.608   7.662  0.4154  0.0812 -0.1370
  185MOL    C7326201   5.545   2.477   7.741  0.0877 -0.4426  0.4849
  185MOL    O7426202   5.525   2.377   7.636 -0.1313 -0.0324 -0.1294
  185MOL    H7526203   5.590   2.595   7.569 -4.2228  0.5659 -3.1074
  185MOL    H7626204   5.590   2.686   7.716 -0.3712 -1.2591  2.7212
  185MOL    H7726205   5.480   2.470   0.057 -0.7184 -0.3216 -0.1076
  185MOL    H7826206   5.647   2.455   0.003  0.0478  0.7278  1.4002
  185MOL    C7926207   5.538   2.243   7.679  0.9502  0.3318  0.9108
  185MOL    C8026208   5.512   2.142   7.565 -0.3585  1.1111 -0.0225
  185MOL    O8126209   5.557   2.010   7.612  0.3994 -0.9143  0.2458
  185MOL    H8226210   5.638   2.232   7.722  1.0696  0.1818  0.5932
  185MOL    H8326211   5.461   2.222   7.753 -0.4284  1.2795 -0.2241
  185MOL    H8426212   5.585   2.172   7.490 -0.1189 -0.1218 -0.3022
  185MOL    H8526213   5.418   2.148   7.511  0.4814  1.0654 -1.4921
  185MOL    C8626214   5.579   1.928   7.500 -0.7301  0.4279  0.7246
  185MOL    C8726215   5.625   1.793   7.553 -0.0939 -0.1295  0.6974
  185MOL    O8826216   5.547   1.702   7.481 -0.2792 -0.7167 -0.0020
  185MOL    H8926217   5.486   1.912   7.445  0.1168  0.0797 -0.6230
  185MOL    H9026218   5.650   1.967   7.427 -0.3274 -0.1442  0.8128
  185MOL    H9126219   5.589   1.783   7.656 -0.0327  1.6602  0.9118
  185MOL    H9226220   5.733   1.782   7.566 -0.1813  0.4062  1.9624
  185MOL    C9326221   5.530   1.577   7.542  0.5788 -0.2806 -0.2390
  185MOL    C9426222   5.433   1.501   7.446  0.0095  0.0546 -0.2304
  185MOL    O9526223   5.497   1.439   7.336  0.2710  0.2971 -0.0278
  185MOL    H9626224   5.620   1.515   7.547  0.9379  0.1750 -0.9487
  185MOL    H9726225   5.492   1.573   7.644 -1.4873 -0.7934 -1.0124
  185MOL    H9826226   5.361   1.573   7.408 -0.8204 -0.7147 -0.1178
  185MOL    H9926227   5.382   1.419   7.497  1.6273 -0.1808  1.0668
  185MOL   C10026228   5.552   1.525   7.235 -0.5815  0.4259  0.3718
  185MOL   C10126229   5.566   1.455   7.096 -0.0468  0.3268  0.4097
  185MOL   O10226230   5.453   1.471   7.019  0.3251  0.3048 -0.1019
  185MOL   H10326231   5.497   1.618   7.219  1.1281  1.4003  0.0470
  185MOL   H10426232   5.653   1.537   7.274  0.4345 -0.2522 -1.9530
  185MOL   H10526233   5.603   1.353   7.096 -1.5493 -0.2443 -1.9270
  185MOL   H10626234   5.637   1.506   7.030  0.3709 -0.0780  0.5422
  185MOL   C10726235   5.347   1.383   7.053 -0.0835 -0.2355 -0.0264
  185MOL   C10826236   5.222   1.417   6.985  0.7802 -0.7231 -0.4739
  185MOL   O10926237   5.152   1.531   7.034 -0.0217  0.1628 -0.1115
  185MOL   H11026238   5.389   1.286   7.026 -1.5072 -0.8290 -0.1539
  185MOL   H11126239   5.348   1.385   7.162  0.8662 -0.3942 -0.0267
  185MOL   H11226240   5.151   1.335   7.002  0.6787 -0.0906  2.5172
  185MOL   H11326241   5.247   1.421   6.879 -0.8945  0.1450 -0.8560
  185MOL   C11426242   5.064   1.581   6.934 -0.1446  0.3405  0.1462
  185MOL   C11526243   4.935   1.498   6.922  0.3148 -0.2276 -0.3630
  185MOL   O11626244   4.954   1.390   6.825  0.0620  0.0027 -0.4927
  185MOL   H11726245   5.044   1.686   6.955 -2.9051  0.5449 -2.9564
  185MOL   H11826246   5.107   1.579   6.833 -0.8094 -1.6586 -0.1215
  185MOL   H11926247   4.852   1.560   6.888 -0.3344  0.0510  1.6795
  185MOL   H12026248   4.895   1.477   7.021  0.8745 -1.8254 -0.4599
  185MOL   C12126249   4.883   1.272   6.852  0.0362  1.0141 -0.5299
  185MOL   C12226250   4.736   1.286   6.852 -0.0642  0.2378  0.0259
  185MOL   O12326251   4.675   1.345   6.967 -0.4407 -0.1088 -0.2792
  185MOL   H12426252   4.913   1.202   6.774  0.8892  1.7996 -0.9187
  185MOL   H12526253   4.924   1.236   6.946 -3.1653  0.4407  0.7042
  185MOL   H12626254   4.696   1.185   6.840  1.9452 -0.6472  0.5294
  185MOL   H12726255   4.699   1.337   6.763 -0.6048 -2.4247 -1.3290
  185MOL   C12826256   4.542   1.335   7.001 -0.0202 -0.1110 -0.2963
  185MOL   C12926257   4.452   1.406   6.894 -0.2993 -0.0242  0.6053
  185MOL   O13026258   4.400   1.533   6.929  0.8865 -0.0469 -0.0030
  185MOL   H13126259   4.514   1.230   6.996 -1.7340  0.1557  2.4290
  185MOL   H13226260   4.522   1.371   7.102  1.1318  1.9590 -0.7780
  185MOL   H13326261   4.367   1.341   6.871 -1.4332  1.7905 -0.4395
  185MOL   H13426262   4.509   1.426   6.803 -0.9741  0.0726  0.1997
  185MOL   C13526263   4.292   1.578   6.852 -0.0736  0.8422 -0.2856
  185MOL   C13626264   4.225   1.698   6.924  0.4720  0.6576 -0.2867
  185MOL   O13726265   4.154   1.639   7.031  0.2005  0.1400  0.0747
  185MOL   H13826266   4.334   1.594   6.753 -0.1169 -1.0703 -0.6399
  185MOL   H13926267   4.223   1.497   6.830  0.5310  0.3451 -0.3622
  185MOL   H14026268   4.172   1.752   6.845  1.4523  1.4420 -0.4066
  185MOL   H14126269   4.296   1.768   6.967 -1.3763  1.6557  1.2286
  185MOL   H14226270   4.091   1.577   6.997  0.8659 -0.1856 -0.5723
  186MOL     C126271   1.932   6.687   3.638  0.1936 -0.1957 -0.0522
  186MOL     C226272   1.823   6.579   3.610  0.0055 -0.2709 -0.4800
  186MOL     O326273   1.828   6.542   3.476 -0.4291 -0.0709  0.3789
  186MOL     H426274   1.908   6.773   3.576 -0.4247 -0.4177 -0.1232
  186MOL     H526275   2.025   6.637   3.614  1.0103  1.1104  0.3568
  186MOL     H626276   1.728   6.626   3.636 -0.1025 -1.0081  0.4771
  186MOL     H726277   1.825   6.492   3.674 -1.0876 -0.5012 -0.7520
  186MOL     H826278   1.938   6.717   3.743  1.5238 -0.2547 -0.1114
  186MOL     C926279   1.717   6.454   3.446 -0.1927  0.2110  0.2159
  186MOL    C1026280   1.717   6.432   3.298 -0.1202  0.3316 -0.2421
  186MOL    O1126281   1.647   6.537   3.228  0.0500 -0.1862  0.4012
  186MOL    H1226282   1.732   6.356   3.491  0.5121  0.5556  0.7448
  186MOL    H1326283   1.619   6.490   3.476 -1.3305 -1.6978 -1.0903
  186MOL    H1426284   1.666   6.338   3.277 -1.6963  1.3479 -1.0756
  186MOL    H1526285   1.822   6.431   3.269  0.5769  0.8286  2.2047
  186MOL    C1626286   1.656   6.508   3.092  0.2446 -0.8631 -0.4897
  186MOL    C1726287   1.593   6.624   3.012  0.1927 -0.5408  0.4245
  186MOL    O1826288   1.690   6.726   2.976 -0.4639  0.3405 -0.4931
  186MOL    H1926289   1.762   6.501   3.065  0.6472  0.3780  0.7173
  186MOL    H2026290   1.616   6.411   3.062 -0.5991 -1.1084  1.3674
  186MOL    H2126291   1.511   6.664   3.072  0.1661  0.9426 -0.5514
  186MOL    H2226292   1.546   6.565   2.933  1.1888  1.1450 -1.4691
  186MOL    C2326293   1.628   6.845   2.924 -0.5193  0.6167 -0.0957
  186MOL    C2426294   1.734   6.953   2.897 -0.1982 -0.7269 -0.1253
  186MOL    O2526295   1.815   6.908   2.787  0.0691 -0.0708  0.3701
  186MOL    H2626296   1.559   6.845   2.840 -2.9164 -0.6700  1.7896
  186MOL    H2726297   1.560   6.877   3.003 -0.7842  0.0621 -0.0974
  186MOL    H2826298   1.798   6.976   2.982  1.2317 -0.1654 -1.3237
  186MOL    H2926299   1.690   7.051   2.877  0.6773 -0.2821  0.1119
  186MOL    C3026300   1.904   7.003   2.746 -0.3154 -0.1381  0.2987
  186MOL    C3126301   1.980   6.951   2.621  0.0747  0.0383  0.4343
  186MOL    O3226302   1.918   7.010   2.508 -0.2484 -0.0081  0.2923
  186MOL    H3326303   1.863   7.100   2.720 -0.0211  0.1212  0.7893
  186MOL    H3426304   1.976   7.022   2.826  0.5072 -3.6756  0.4941
  186MOL    H3526305   1.967   6.842   2.619  0.3867  0.0206 -0.6046
  186MOL    H3626306   2.086   6.974   2.632 -0.2607  0.8135  2.1917
  186MOL    C3726307   1.958   6.954   2.387 -0.2218  0.5402 -0.0852
  186MOL    C3826308   2.106   6.954   2.372 -0.6769  0.4548 -1.0685
  186MOL    O3926309   2.167   6.844   2.430 -0.3914 -0.0312  0.3744
  186MOL    H4026310   1.916   6.853   2.381 -0.6880  0.7553 -0.4643
  186MOL    H4126311   1.915   7.003   2.300 -0.8789 -2.4278 -1.5257
  186MOL    H4226312   2.137   7.049   2.415 -1.0987  0.0544  0.1479
  186MOL    H4326313   2.133   6.940   2.267  0.5022 -2.8057 -0.3841
  186MOL    C4426314   2.315   6.860   2.420  0.3112  0.3043 -0.4106
  186MOL    C4526315   2.388   6.737   2.464  0.6189 -0.0036 -0.2877
  186MOL    O4626316   2.370   6.633   2.368 -0.1483  0.5395 -0.1878
  186MOL    H4726317   2.343   6.871   2.315 -0.6253 -0.7899 -0.7963
  186MOL    H4826318   2.348   6.953   2.465  1.5032 -0.2271 -0.1678
  186MOL    H4926319   2.350   6.709   2.563 -0.3331  2.0426 -0.0498
  186MOL    H5026320   2.494   6.750   2.485  0.8658  0.4496 -1.7943
  186MOL    C5126321   2.446   6.515   2.395  0.1554 -0.0166 -0.6058
  186MOL    C5226322   2.435   6.417   2.277 -0.7906  0.6714  0.4276
  186MOL    O5326323   2.526   6.443   2.177 -1.0666 -0.2078  0.4774
  186MOL    H5426324   2.551   6.532   2.416  0.6384 -1.9986 -1.3117
  186MOL    H5526325   2.401   6.471   2.484 -2.2203  0.5063 -1.5036
  186MOL    H5626326   2.334   6.418   2.236 -0.1696  0.0739 -1.1505
  186MOL    H5726327   2.440   6.315   2.314  0.8215  0.5963  0.0317
  186MOL    C5826328   2.505   6.562   2.102 -0.4393 -0.0903  0.5140
  186MOL    C5926329   2.614   6.575   1.995  0.4534  0.2328 -0.6241
  186MOL    O6026330   2.744   6.581   2.058  0.2125 -0.2198  0.1381
  186MOL    H6126331   2.412   6.572   2.046  0.7853  0.0734 -1.5328
  186MOL    H6226332   2.506   6.643   2.174 -2.1848  1.3361 -1.0371
  186MOL    H6326333   2.590   6.658   1.928 -1.5357 -0.4592 -0.7876
  186MOL    H6426334   2.618   6.477   1.947 -1.2981 -0.5312  0.7693
  186MOL    C6526335   2.862   6.573   1.982  0.8668  0.1656  0.4797
  186MOL    C6626336   2.897   6.722   1.963 -0.3442 -0.2389  0.6836
  186MOL    O6726337   2.794   6.792   1.898  0.0529  0.1743 -0.6985
  186MOL    H6826338   2.935   6.526   2.048 -1.4565 -0.3771  2.7512
  186MOL    H6926339   2.856   6.519   1.888 -2.4654  2.1854 -0.5551
  186MOL    H7026340   2.990   6.741   1.909 -0.3980  0.2306  0.7508
  186MOL    H7126341   2.913   6.764   2.062 -2.0605  1.2111  0.3617
  186MOL    C7226342   2.808   6.929   1.885  0.3093 -0.6452 -0.0021
  186MOL    C7326343   2.683   6.985   1.811  0.4744  0.3933 -1.0053
  186MOL    O7426344   2.694   6.970   1.665  0.4436 -0.2169 -0.2211
  186MOL    H7526345   2.816   6.966   1.987  2.9327 -1.4398  0.1222
  186MOL    H7626346   2.898   6.955   1.828  0.0095 -2.1644 -1.2227
  186MOL    H7726347   2.667   7.091   1.829 -1.5437  0.2580 -1.8253
  186MOL    H7826348   2.590   6.932   1.833  0.7787  1.2002  2.4807
  186MOL    C7926349   2.577   7.002   1.596 -0.3290  0.2268 -0.0736
  186MOL    C8026350   2.598   6.962   1.447  0.7591 -0.0591 -0.1238
  186MOL    O8126351   2.631   7.081   1.367 -0.2052 -0.1003  0.2229
  186MOL    H8226352   2.500   6.937   1.637 -0.4068 -0.1753 -0.8432
  186MOL    H8326353   2.544   7.102   1.621 -0.0104  0.1536  0.6446
  186MOL    H8426354   2.512   6.916   1.398 -0.5336  0.0988  1.9434
  186MOL    H8526355   2.679   6.890   1.438  0.9948  0.5994 -4.2661
  186MOL    C8626356   2.599   7.060   1.232 -1.0253  0.7458  0.3437
  186MOL    C8726357   2.652   7.178   1.156  0.5055  0.3619  0.6314
  186MOL    O8826358   2.550   7.280   1.162  0.7362 -0.1366  0.2763
  186MOL    H8926359   2.650   6.973   1.192 -1.1189  0.1973  1.4026
  186MOL    H9026360   2.495   7.037   1.210 -0.6646 -2.3254  1.5970
  186MOL    H9126361   2.667   7.162   1.049  0.7565  1.7926  0.4494
  186MOL    H9226362   2.742   7.222   1.199  0.7106  2.0886 -1.5038
  186MOL    C9326363   2.590   7.416   1.145 -0.0164 -0.2269  0.3717
  186MOL    C9426364   2.623   7.438   0.998  0.0146 -0.7115 -0.6338
  186MOL    O9526365   2.751   7.396   0.981  0.2715  0.5212 -0.3752
  186MOL    H9626366   2.514   7.490   1.172  1.4293  1.2915  0.4178
  186MOL    H9726367   2.669   7.439   1.216 -1.2254 -0.1805  1.7292
  186MOL    H9826368   2.611   7.542   0.966  3.3921  0.2232  0.8584
  186MOL    H9926369   2.555   7.388   0.929 -0.1974  0.9974 -1.6893
  186MOL   C10026370   2.793   7.383   0.843  0.2118 -0.1739 -0.3344
  186MOL   C10126371   2.941   7.330   0.832 -0.3596 -0.7841 -1.2577
  186MOL   O10226372   2.937   7.192   0.860 -0.6117 -0.4329 -0.4230
  186MOL   H10326373   2.735   7.310   0.786 -0.9958 -0.3462  1.0907
  186MOL   H10426374   2.775   7.475   0.786  0.2216 -0.1738 -0.3375
  186MOL   H10526375   3.011   7.382   0.897 -1.8939  0.9210 -0.9265
  186MOL   H10626376   2.973   7.340   0.728  0.9985 -1.7400 -0.9464
  186MOL   C10726377   3.066   7.136   0.844  0.2225  0.0664 -0.1537
  186MOL   C10826378   3.139   7.127   0.979  0.2191  0.3026  0.5671
  186MOL   O10926379   3.197   7.252   1.019 -0.3032  0.3886  0.3446
  186MOL   H11026380   3.057   7.032   0.811 -1.4403  0.0858  0.1692
  186MOL   H11126381   3.134   7.175   0.769  2.0220 -0.6392  1.0887
  186MOL   H11226382   3.223   7.061   0.956 -0.3718  0.9312 -3.7768
  186MOL   H11326383   3.078   7.082   1.057 -0.0850 -0.5924 -0.1753
  186MOL   C11426384   3.328   7.270   0.965  0.2053 -0.2493  0.8002
  186MOL   C11526385   3.381   7.404   1.009  0.4148 -0.4424 -0.3587
  186MOL   O11626386   3.515   7.419   0.994  0.4364 -0.2437  0.1390
  186MOL   H11726387   3.400   7.202   1.011  1.3578  0.2600 -0.2233
  186MOL   H11826388   3.332   7.260   0.856  0.8488  0.3893  0.7595
  186MOL   H11926389   3.360   7.422   1.114  1.4974 -0.2003 -0.1805
  186MOL   H12026390   3.331   7.480   0.949  3.0307 -0.2285 -2.3604
  186MOL   C12126391   3.569   7.537   1.053 -0.0593  0.2957  0.2481
  186MOL   C12226392   3.724   7.527   1.032 -0.4337 -0.0939 -0.0944
  186MOL   O12326393   3.788   7.438   1.124  0.1061  0.4219  0.5616
  186MOL   H12426394   3.531   7.629   1.008 -0.9149  0.9175  2.1991
  186MOL   H12526395   3.555   7.536   1.161  0.1883 -2.9894  0.3042
  186MOL   H12626396   3.771   7.621   1.062 -0.0393  0.0189 -1.0622
  186MOL   H12726397   3.753   7.510   0.929  1.1899  2.1825 -0.0580
  186MOL   C12826398   3.744   7.306   1.109  0.0803  0.8987 -0.1551
  186MOL   C12926399   3.858   7.215   1.124 -0.3872 -0.1805  0.0529
  186MOL   O13026400   3.954   7.223   1.026 -0.2439 -0.7046  0.0463
  186MOL   H13126401   3.667   7.285   1.183 -1.3466 -1.7693 -2.2613
  186MOL   H13226402   3.698   7.288   1.011 -1.9399  2.0466  0.5521
  186MOL   H13326403   3.834   7.109   1.133 -0.7190 -0.0347  1.0101
  186MOL   H13426404   3.906   7.236   1.220 -1.3959 -1.2720  0.8103
  186MOL   C13526405   4.084   7.170   1.065  0.3433 -0.1571  0.3806
  186MOL   C13626406   4.182   7.200   0.941  0.0072 -0.6602  0.7095
  186MOL   O13726407   4.171   7.337   0.916 -0.4919 -0.3029  0.4039
  186MOL   H13826408   4.135   7.227   1.143  1.2093  1.5355 -1.3721
  186MOL   H13926409   4.080   7.063   1.083  2.1500 -0.4614 -0.8861
  186MOL   H14026410   4.149   7.138   0.858 -2.2196 -0.5212  1.4571
  186MOL   H14126411   4.285   7.178   0.967  0.9598  0.5034 -1.9345
  186MOL   H14226412   4.081   7.360   0.897 -0.0088 -1.7533 -4.4107
  187MOL     C126413   5.380   0.008   7.609 -0.1207 -0.1001  0.2825
  187MOL     C226414   5.432   7.663   7.690 -0.2195 -0.2376 -0.2876
  187MOL     O326415   5.383   7.667   0.052  0.0558 -0.2934 -0.5803
  187MOL     H426416   5.274   0.029   7.622 -0.4679 -2.2416  1.1654
  187MOL     H526417   5.394   7.770   7.501  0.5965  2.5499  0.1181
  187MOL     H626418   5.541   7.652   7.693 -0.2205 -0.7009 -1.6152
  187MOL     H726419   5.392   7.571   7.648  1.2119 -2.1224  2.3163
  187MOL     H826420   5.425   0.100   7.647  1.4372 -0.1945 -1.3115
  187MOL     C926421   5.388   7.545   0.125  0.6720 -0.0522  0.1930
  187MOL    C1026422   5.298   7.562   0.259  0.1080 -0.2829  0.3720
  187MOL    O1126423   5.356   7.499   0.374  0.1526 -0.5654 -0.1712
  187MOL    H1226424   5.342   7.470   0.062 -0.1845  0.5326  0.0946
  187MOL    H1326425   5.490   7.516   0.148  0.7347 -1.0878 -1.3427
  187MOL    H1426426   5.193   7.546   0.232  0.5743  0.5701 -2.1426
  187MOL    H1526427   5.289   7.670   0.275  0.8979  0.5602 -4.1196
  187MOL    C1626428   5.272   7.517   0.490  0.1883  0.1073 -0.4131
  187MOL    C1726429   5.314   7.414   0.595  0.3428 -0.1646  0.6570
  187MOL    O1826430   5.429   7.451   0.662 -0.1873 -0.0555  0.4055
  187MOL    H1926431   5.279   7.613   0.542 -1.6053 -1.5824  3.1156
  187MOL    H2026432   5.166   7.506   0.464 -0.2928  0.9670  1.1196
  187MOL    H2126433   5.334   7.315   0.555  1.4430  0.8648 -1.4587
  187MOL    H2226434   5.231   7.402   0.664 -1.9132 -1.4370 -2.1554
  187MOL    C2326435   5.507   7.360   0.748 -0.9424  0.1773 -0.1403
  187MOL    C2426436   5.639   7.424   0.794  0.5856 -0.3221  0.4098
  187MOL    O2526437   5.720   7.475   0.686  0.6187  0.0418  0.0557
  187MOL    H2626438   5.438   7.344   0.830 -3.3310  1.1546 -1.8668
  187MOL    H2726439   5.521   7.264   0.698 -0.7164 -0.0854  0.4289
  187MOL    H2826440   5.694   7.345   0.844 -0.2587 -1.3577 -0.2788
  187MOL    H2926441   5.620   7.497   0.873 -1.1351 -1.0230  0.6502
  187MOL    C3026442   5.850   7.517   0.727  0.1219 -0.7011 -0.7092
  187MOL    C3126443   5.953   7.407   0.740 -0.0667 -0.9048 -0.2325
  187MOL    O3226444   5.975   7.363   0.876 -0.1593 -0.5461  0.2763
  187MOL    H3326445   5.877   7.578   0.641 -0.9197 -0.0830 -0.6068
  187MOL    H3426446   5.845   7.579   0.817  2.4189 -0.2588 -0.8541
  187MOL    H3526447   6.054   7.434   0.710  0.1117 -2.0426 -0.6827
  187MOL    H3626448   5.918   7.334   0.667  1.6454 -0.3524 -1.6365
  187MOL    C3726449   6.025   7.229   0.883  0.4219 -0.0011 -0.1247
  187MOL    C3826450   6.022   7.181   1.030  0.3082 -0.9517  0.6767
  187MOL    O3926451   5.891   7.137   1.069 -0.1017  0.5496 -0.1780
  187MOL    H4026452   5.972   7.159   0.819  1.2179 -0.5734 -0.1734
  187MOL    H4126453   6.131   7.234   0.858  0.7379 -0.0270  1.1597
  187MOL    H4226454   6.051   7.264   1.095 -2.8056  1.8829 -1.3974
  187MOL    H4326455   6.097   7.103   1.046  0.1361 -1.2039  0.2518
  187MOL    C4426456   5.880   7.117   1.210 -0.5017 -0.3803  0.1683
  187MOL    C4526457   5.739   7.078   1.257 -0.3482 -0.6245 -0.1974
  187MOL    O4626458   5.642   7.179   1.266  0.1424  0.4462 -1.0422
  187MOL    H4726459   5.936   7.025   1.227 -3.1845 -2.3466 -1.3391
  187MOL    H4826460   5.923   7.201   1.265 -1.2927  0.8601 -1.0620
  187MOL    H4926461   5.747   7.033   1.356 -0.3694 -2.7145 -1.1285
  187MOL    H5026462   5.707   6.997   1.192 -1.3762 -0.2424 -0.1687
  187MOL    C5126463   5.630   7.256   1.149  0.0464  0.1779  0.1403
  187MOL    C5226464   5.538   7.372   1.191  0.6160 -0.2395 -0.5167
  187MOL    O5326465   5.485   7.442   1.083  0.7130  0.2630  0.1370
  187MOL    H5426466   5.721   7.296   1.103 -0.8608 -0.2283 -2.0838
  187MOL    H5526467   5.578   7.203   1.069  0.8579  0.3892 -0.5439
  187MOL    H5626468   5.585   7.440   1.261 -0.9325  1.0678 -0.7189
  187MOL    H5726469   5.453   7.324   1.241  1.3310 -1.1622 -0.1801
  187MOL    C5826470   5.432   7.571   1.108 -0.4079  0.0470  0.1059
  187MOL    C5926471   5.378   7.644   0.980 -0.3788 -0.4167  0.4116
  187MOL    O6026472   5.251   7.602   0.941  0.1290 -0.6565 -0.1568
  187MOL    H6126473   5.353   7.550   1.180  0.4944  0.6335  1.2730
  187MOL    H6226474   5.501   7.639   1.157  0.5201 -1.6298  1.1913
  187MOL    H6326475   5.448   7.644   0.897 -1.2272 -0.1633 -0.3082
  187MOL    H6426476   5.372   7.751   1.001  1.8693  0.4706 -3.0689
  187MOL    C6526477   5.199   7.674   0.832  0.4559 -0.6873 -0.1303
  187MOL    C6626478   5.132   0.039   0.876 -0.2127 -0.8013 -0.5712
  187MOL    O6726479   5.223   0.150   0.874 -0.3826  0.0028 -0.0626
  187MOL    H6826480   5.259   7.686   0.742 -0.3209  2.4285 -0.2827
  187MOL    H6926481   5.126   7.610   0.781  0.8815 -2.2286  1.1635
  187MOL    H7026482   5.089   0.016   0.974 -0.6016  0.3837 -0.4592
  187MOL    H7126483   5.044   0.061   0.815 -0.6448  3.2748  1.3616
  187MOL    C7226484   5.165   0.273   0.873  0.3780  0.7005 -0.0316
  187MOL    C7326485   5.275   0.373   0.884 -0.5216 -0.0006 -1.4592
  187MOL    O7426486   5.313   0.421   0.755  0.3056 -0.6752 -0.8476
  187MOL    H7526487   5.103   0.280   0.784  2.6565 -0.7155 -1.7897
  187MOL    H7626488   5.099   0.280   0.960 -0.1564  0.4471 -0.4081
  187MOL    H7726489   5.367   0.341   0.934 -0.0216 -0.1962 -2.5016
  187MOL    H7826490   5.244   0.458   0.946  0.3941 -0.9811  0.3782
  187MOL    C7926491   5.409   0.351   0.687 -0.4099  0.6997 -0.2177
  187MOL    C8026492   5.437   0.409   0.550 -0.7736  0.4906  0.0172
  187MOL    O8126493   5.497   0.537   0.552 -0.5075  0.1055  0.2654
  187MOL    H8226494   5.498   0.349   0.750 -1.6354 -1.4805  1.5180
  187MOL    H8326495   5.361   0.253   0.682 -0.3756  0.7070 -0.7540
  187MOL    H8426496   5.352   0.405   0.482 -0.1550  4.2918 -1.0805
  187MOL    H8526497   5.513   0.345   0.505  0.0489  1.1172  0.4827
  187MOL    C8626498   5.413   0.649   0.579  0.2516 -0.7126 -0.0492
  187MOL    C8726499   5.494   0.776   0.566 -0.2480 -0.2919 -0.0719
  187MOL    O8826500   5.537   0.824   0.438 -0.4998 -0.0278 -0.2500
  187MOL    H8926501   5.332   0.646   0.506  0.7012 -1.5611 -0.5242
  187MOL    H9026502   5.375   0.635   0.680  0.8706  0.1436  0.3032
  187MOL    H9126503   5.583   0.750   0.623 -1.0040 -0.0085  1.2716
  187MOL    H9226504   5.439   0.851   0.624 -3.3328 -2.0603 -0.5715
  187MOL    C9326505   5.628   0.933   0.444  0.3140 -0.0078 -0.7814
  187MOL    C9426506   5.564   1.059   0.506 -0.5253 -0.1901  0.9534
  187MOL    O9526507   5.562   1.058   0.649 -0.2360 -0.4688 -0.0311
  187MOL    H9626508   5.716   0.906   0.501 -0.4956  1.9973  1.4606
  187MOL    H9726509   5.662   0.963   0.345  0.9785  1.7543 -0.0321
  187MOL    H9826510   5.460   1.065   0.473 -0.7040 -0.1483  1.5146
  187MOL    H9926511   5.608   1.154   0.475 -2.9996  0.0924 -1.9505
  187MOL   C10026512   5.487   1.168   0.700  0.6756 -0.1997  0.6517
  187MOL   C10126513   5.333   1.155   0.673  0.0989 -0.0915 -0.1868
  187MOL   O10226514   5.299   1.215   0.550 -0.0670  0.3963 -0.5912
  187MOL   H10326515   5.506   1.168   0.807  0.5155 -1.8075  0.6983
  187MOL   H10426516   5.528   1.261   0.661 -3.7166 -0.3581 -5.0228
  187MOL   H10526517   5.282   1.210   0.752  1.8236  1.9994 -0.4679
  187MOL   H10626518   5.299   1.052   0.665  0.1674 -0.0906 -0.4977
  187MOL   C10726519   5.169   1.264   0.541  0.3966  0.3553 -0.7671
  187MOL   C10826520   5.132   1.361   0.431  0.3449  0.1492 -0.4191
  187MOL   O10926521   5.109   1.281   0.318  0.4017 -0.2919  0.2452
  187MOL   H11026522   5.096   1.183   0.543  0.4035  0.3583  0.3029
  187MOL   H11126523   5.145   1.318   0.633 -0.9649 -3.1806  1.0672
  187MOL   H11226524   5.202   1.442   0.413  0.4142 -0.0246 -0.9385
  187MOL   H11326525   5.039   1.413   0.457  1.2284  0.1815  2.8878
  187MOL   C11426526   5.223   1.245   0.238  0.6989 -0.1294 -1.0332
  187MOL   C11526527   5.179   1.161   0.112  0.3858  0.2668  0.5023
  187MOL   O11626528   5.153   1.023   0.142  0.3484  0.1325 -0.3635
  187MOL   H11726529   5.271   1.338   0.206 -0.6696  1.6736  1.9303
  187MOL   H11826530   5.299   1.193   0.297  1.1669  0.4823 -1.0832
  187MOL   H11926531   5.256   1.169   0.035  0.0905  1.9316  0.3542
  187MOL   H12026532   5.091   1.207   0.068  0.2173  0.5332  1.1079
  187MOL   C12126533   5.274   0.947   0.155  0.0042 -0.3574  0.0979
  187MOL   C12226534   5.231   0.828   0.239  0.8392  0.5285 -0.1304
  187MOL   O12326535   5.151   0.743   0.157 -0.0442 -0.1462 -0.0676
  187MOL   H12426536   5.315   0.907   0.062  0.4295 -0.5540  0.3713
  187MOL   H12526537   5.352   0.996   0.212 -1.6370  2.3400  0.1315
  187MOL   H12626538   5.174   0.867   0.324 -1.4167 -1.4352 -0.6791
  187MOL   H12726539   5.324   0.774   0.256  0.0464 -0.6207  0.6367
  187MOL   C12826540   5.111   0.623   0.226  0.1428  0.3154  0.1304
  187MOL   C12926541   5.001   0.546   0.146  0.4697  0.4757 -0.2996
  187MOL   O13026542   5.059   0.464   0.047  0.4106 -0.0137  0.0608
  187MOL   H13126543   5.199   0.559   0.231  0.1303  0.2540 -0.4554
  187MOL   H13226544   5.060   0.643   0.321 -1.2909  0.4222 -0.6485
  187MOL   H13326545   4.923   0.605   0.098 -1.0027 -0.3372  1.0451
  187MOL   H13426546   4.944   0.477   0.209  0.4580 -0.6421 -1.5049
  187MOL   C13526547   5.125   0.530   7.716  0.0377  0.2310 -0.3830
  187MOL   C13626548   5.180   0.414   7.620 -0.1460  0.4252 -0.1474
  187MOL   O13726549   5.071   0.344   7.570 -0.0668 -0.6001  0.7635
  187MOL   H13826550   5.052   0.589   7.661 -0.5082  0.9401  1.0726
  187MOL   H13926551   5.208   0.594   7.746 -1.6106  3.1678 -1.9313
  187MOL   H14026552   5.247   0.352   7.679  1.5610  1.8358 -0.5968
  187MOL   H14126553   5.228   0.466   7.538 -0.3040  0.8540  0.0309
  187MOL   H14226554   5.034   0.293   7.641 -1.7142  0.0688  0.3985
  188MOL     C126555   2.154   0.761   0.550 -0.5507 -0.3132  0.3228
  188MOL     C226556   2.004   0.794   0.536 -0.3069 -0.4765 -0.0580
  188MOL     O326557   1.967   0.803   0.397 -0.2385  0.1165  0.1710
  188MOL     H426558   2.217   0.835   0.501  1.0088 -1.8428 -0.0077
  188MOL     H526559   2.173   0.666   0.501 -0.7977  1.1586 -2.7331
  188MOL     H626560   1.988   0.891   0.585 -0.3452 -0.7058  0.3836
  188MOL     H726561   1.944   0.730   0.601 -1.3183 -0.3903 -0.8828
  188MOL     H826562   2.182   0.760   0.655  0.1931  1.0279  0.1508
  188MOL     C926563   1.831   0.824   0.374  0.1424 -0.2874  0.7957
  188MOL    C1026564   1.795   0.971   0.347  0.0438  0.4433  0.5921
  188MOL    O1126565   1.817   1.056   0.458  0.3548 -0.1387 -0.0249
  188MOL    H1226566   1.810   0.762   0.286  0.5386  1.0799 -0.2828
  188MOL    H1326567   1.761   0.780   0.446 -0.5689  0.9598  0.8746
  188MOL    H1426568   1.702   0.984   0.291 -0.6105 -0.8098  1.3648
  188MOL    H1526569   1.863   1.005   0.270 -1.2404  0.3931 -0.5827
  188MOL    C1626570   1.699   1.074   0.535 -0.5581 -0.2084 -0.0423
  188MOL    C1726571   1.737   1.124   0.675  0.5213  0.2834  0.3506
  188MOL    O1826572   1.789   1.017   0.744 -0.3832 -0.0901  0.2283
  188MOL    H1926573   1.630   1.137   0.479  0.7432  1.4057  0.1321
  188MOL    H2026574   1.654   0.978   0.560 -2.6778  0.7776 -0.0020
  188MOL    H2126575   1.648   1.157   0.727 -1.2143 -1.0698 -1.6961
  188MOL    H2226576   1.810   1.205   0.661 -0.9748  1.8385  1.3845
  188MOL    C2326577   1.863   1.063   0.863  0.0611 -0.3920  0.1282
  188MOL    C2426578   1.891   0.951   0.970 -0.1044  0.5365 -0.2088
  188MOL    O2526579   1.797   0.964   1.078 -0.1654 -0.3338  0.5876
  188MOL    H2626580   1.957   1.101   0.822 -0.6211  1.2051  0.0185
  188MOL    H2726581   1.817   1.147   0.914 -1.7365 -0.1175 -1.8947
  188MOL    H2826582   1.992   0.967   1.009 -0.1242 -0.1444  0.1208
  188MOL    H2926583   1.882   0.847   0.937  1.2373 -0.2691  1.8605
  188MOL    C3026584   1.668   0.914   1.036  0.2158  0.1758 -0.8096
  188MOL    C3126585   1.582   0.936   1.156  0.3705 -0.0499  0.2491
  188MOL    O3226586   1.546   1.074   1.168  0.0883  0.3179  0.2825
  188MOL    H3326587   1.635   0.961   0.943 -0.1572 -0.2269 -0.8830
  188MOL    H3426588   1.664   0.807   1.016  0.0538 -0.0647  0.4763
  188MOL    H3526589   1.635   0.904   1.246  1.1565 -0.3059 -0.2979
  188MOL    H3626590   1.491   0.875   1.163  0.5837 -0.1900  2.1666
  188MOL    C3726591   1.474   1.107   1.291 -0.0294 -0.2765 -0.3845
  188MOL    C3826592   1.562   1.148   1.411 -0.4188  0.1741  0.6371
  188MOL    O3926593   1.538   1.282   1.430  0.0002 -0.3016 -0.8095
  188MOL    H4026594   1.408   1.185   1.255 -0.0782 -0.1627 -0.0479
  188MOL    H4126595   1.400   1.034   1.324  1.0395 -1.9412 -1.5826
  188MOL    H4226596   1.665   1.122   1.388 -0.6320 -0.8121  0.7672
  188MOL    H4326597   1.541   1.102   1.508 -0.1877 -0.3678  0.4304
  188MOL    C4426598   1.637   1.355   1.504 -0.4620  0.3340 -0.0441
  188MOL    C4526599   1.606   1.501   1.509 -0.4571  0.3817 -0.2633
  188MOL    O4626600   1.616   1.577   1.391  0.1316  0.1963 -0.4459
  188MOL    H4726601   1.643   1.314   1.605 -0.1184 -1.3072 -0.7065
  188MOL    H4826602   1.727   1.319   1.454 -1.4143 -1.3689 -0.5900
  188MOL    H4926603   1.685   1.547   1.569 -0.8990 -0.6787  1.1471
  188MOL    H5026604   1.511   1.519   1.559  0.7331  1.9705  1.5187
  188MOL    C5126605   1.519   1.546   1.302  0.1054 -0.7954  0.5320
  188MOL    C5226606   1.508   1.657   1.202 -0.8063 -0.0729 -0.0545
  188MOL    O5326607   1.477   1.781   1.269  0.1959 -0.1865  0.1282
  188MOL    H5426608   1.541   1.456   1.244 -0.9854 -0.7594  0.0644
  188MOL    H5526609   1.420   1.535   1.345 -1.2662  0.2167 -2.2810
  188MOL    H5626610   1.426   1.623   1.138 -0.9273 -0.2327  0.1842
  188MOL    H5726611   1.601   1.656   1.145  0.1535 -1.8451  1.4750
  188MOL    C5826612   1.478   1.884   1.178  0.3095  0.2295  0.0327
  188MOL    C5926613   1.383   2.002   1.197 -0.0197  0.2805 -0.2586
  188MOL    O6026614   1.389   2.102   1.093 -0.1297 -0.3102 -0.2563
  188MOL    H6126615   1.580   1.923   1.173  0.0179  0.8195 -1.4907
  188MOL    H6226616   1.465   1.855   1.074  1.9728  1.9053 -0.6645
  188MOL    H6326617   1.416   2.048   1.290 -1.8626 -1.5554  1.3282
  188MOL    H6426618   1.279   1.972   1.210 -0.3983  2.0744  1.1564
  188MOL    C6526619   1.342   2.230   1.114 -0.0070  0.6093  0.0055
  188MOL    C6626620   1.438   2.295   1.220  0.0847  0.4497  0.1145
  188MOL    O6726621   1.430   2.440   1.205 -0.4409 -0.1038 -0.4766
  188MOL    H6826622   1.334   2.285   1.020 -0.2602  2.2496  0.9597
  188MOL    H6926623   1.248   2.212   1.167  1.1874  0.6553  2.1803
  188MOL    H7026624   1.537   2.263   1.189 -0.3715  0.1640 -1.0352
  188MOL    H7126625   1.402   2.263   1.318 -1.2804 -0.9065 -0.8267
  188MOL    C7226626   1.306   2.488   1.259  0.4276 -0.3982 -0.1229
  188MOL    C7326627   1.331   2.544   1.405  0.2411 -0.2058 -0.7075
  188MOL    O7426628   1.302   2.442   1.498 -0.0376 -0.2294 -0.1280
  188MOL    H7526629   1.281   2.568   1.189 -0.8495  1.3886  2.3041
  188MOL    H7626630   1.217   2.425   1.258  0.5826 -0.6149 -0.2332
  188MOL    H7726631   1.261   2.625   1.428  0.0140 -0.2432 -1.2645
  188MOL    H7826632   1.435   2.569   1.426  0.5883 -1.2591 -1.1552
  188MOL    C7926633   1.375   2.454   1.621  0.3738  0.6544 -0.3931
  188MOL    C8026634   1.508   2.384   1.593 -0.3108  0.2236  0.0958
  188MOL    O8126635   1.608   2.476   1.556  0.4622 -0.0709  0.7094
  188MOL    H8226636   1.389   2.554   1.662 -1.9206  0.5873  0.6111
  188MOL    H8326637   1.323   2.405   1.704  0.0844  1.1792 -0.2590
  188MOL    H8426638   1.504   2.297   1.527  0.8710 -0.1550  0.5168
  188MOL    H8526639   1.545   2.342   1.686 -0.1276 -0.6250 -0.3478
  188MOL    C8626640   1.718   2.415   1.488 -0.2239 -0.0077 -0.4606
  188MOL    C8726641   1.809   2.518   1.424 -0.2208 -0.4904 -0.1581
  188MOL    O8826642   1.752   2.537   1.294 -0.1849  0.4213  0.5029
  188MOL    H8926643   1.777   2.355   1.558 -0.9859  0.5293  0.6507
  188MOL    H9026644   1.672   2.356   1.407  0.3613 -0.7699 -0.2465
  188MOL    H9126645   1.911   2.480   1.409  0.5124  0.8570  1.2796
  188MOL    H9226646   1.819   2.603   1.492 -3.6559 -0.3417  0.2466
  188MOL    C9326647   1.835   2.625   1.213 -0.7920  0.2352 -0.7661
  188MOL    C9426648   1.757   2.659   1.085  0.3292 -0.2382 -0.6558
  188MOL    O9526649   1.684   2.782   1.090 -0.0185  0.0073 -0.3538
  188MOL    H9626650   1.870   2.712   1.268 -0.5038  0.6394 -1.5834
  188MOL    H9726651   1.926   2.568   1.195 -0.8684 -0.2545  0.3807
  188MOL    H9826652   1.704   2.579   1.032  0.7699  0.0554 -1.5516
  188MOL    H9926653   1.838   2.685   1.017 -0.6106 -0.8264 -2.0399
  188MOL   C10026654   1.569   2.782   1.177  0.2419  0.0328  0.4927
  188MOL   C10126655   1.510   2.926   1.198 -0.2632 -0.0948 -0.2043
  188MOL   O10226656   1.436   2.961   1.083  0.5094 -0.0102 -0.0082
  188MOL   H10326657   1.492   2.707   1.156  1.1072 -1.0172  1.0005
  188MOL   H10426658   1.610   2.746   1.271  0.4929 -0.6355  0.1334
  188MOL   H10526659   1.587   2.993   1.235 -0.6402  0.8335 -1.0897
  188MOL   H10626660   1.437   2.929   1.278 -1.2977  0.6478 -1.1581
  188MOL   C10726661   1.382   3.090   1.102  0.5631 -0.0826 -0.0565
  188MOL   C10826662   1.294   3.124   0.988 -0.1262 -0.2116 -0.4049
  188MOL   O10926663   1.168   3.061   1.008  0.1428  0.0250  0.3480
  188MOL   H11026664   1.324   3.102   1.193 -1.6516 -1.3458 -1.2636
  188MOL   H11126665   1.463   3.163   1.111 -0.3494  0.6699  2.2346
  188MOL   H11226666   1.343   3.097   0.895 -0.8563 -0.1835 -0.8039
  188MOL   H11326667   1.271   3.231   0.990  2.2926  0.3339 -0.3796
  188MOL   C11426668   1.076   3.088   0.900 -0.8312 -0.0156 -0.4705
  188MOL   C11526669   0.947   3.007   0.924 -0.4354 -0.1197 -0.0425
  188MOL   O11626670   0.854   3.077   1.004 -0.2672 -0.1769  0.4835
  188MOL   H11726671   1.056   3.195   0.892 -0.2437  0.0577 -0.9750
  188MOL   H11826672   1.122   3.061   0.805  1.7141  0.1083  0.6782
  188MOL   H11926673   0.970   2.923   0.989 -0.8120  1.6753  2.4808
  188MOL   H12026674   0.908   2.954   0.837 -1.7285  1.6589 -0.5824
  188MOL   C12126675   0.776   3.162   0.925 -0.8184  0.0518 -0.4780
  188MOL   C12226676   0.672   3.208   1.025  0.0014 -0.3860  0.7394
  188MOL   O12326677   0.626   3.335   1.002 -0.1216 -0.5336  0.3476
  188MOL   H12426678   0.830   3.249   0.889 -0.3906 -0.4129 -0.9685
  188MOL   H12526679   0.725   3.115   0.841  0.4556 -0.2480 -1.0915
  188MOL   H12626680   0.697   3.193   1.130  0.4834 -2.0726  0.3948
  188MOL   H12726681   0.579   3.155   1.002 -0.3531 -1.4954  4.3734
  188MOL   C12826682   0.512   3.368   1.083  0.6078 -0.2149  0.0038
  188MOL   C12926683   0.555   3.407   1.226  0.1442 -0.2235 -0.0734
  188MOL   O13026684   0.561   3.286   1.308 -0.0119 -0.1934 -0.1223
  188MOL   H13126685   0.467   3.452   1.030  2.7274  0.7472 -0.3425
  188MOL   H13226686   0.424   3.305   1.078  0.1058  0.4315  0.5139
  188MOL   H13326687   0.486   3.480   1.269 -0.9517 -1.5511  0.4753
  188MOL   H13426688   0.648   3.462   1.238 -0.9362  1.3600  1.3501
  188MOL   C13526689   0.591   3.312   1.443 -0.2404 -0.3045  0.4166
  188MOL   C13626690   0.583   3.184   1.528  0.0639  0.3186  0.8535
  188MOL   O13726691   0.457   3.138   1.559 -0.3469  0.1085  0.6828
  188MOL   H13826692   0.689   3.359   1.444 -0.2579 -0.2639  0.2246
  188MOL   H13926693   0.520   3.384   1.486  0.2850 -0.3496  1.3744
  188MOL   H14026694   0.632   3.199   1.624  0.1553 -1.5495  1.1104
  188MOL   H14126695   0.641   3.102   1.487  0.0335  1.5109 -1.6531
  188MOL   H14226696   0.410   3.214   1.591  0.4681  0.3967  1.2141
  189MOL     C126697   0.605   3.361   3.843 -0.1404 -1.3110 -0.1407
  189MOL     C226698   0.517   3.242   3.876 -0.2454  0.1834  0.1767
  189MOL     O326699   0.567   3.188   3.998  0.0648 -0.7580 -0.6563
  189MOL     H426700   0.701   3.323   3.808 -0.0854 -0.0999 -1.3523
  189MOL     H526701   0.617   3.427   3.929 -1.4378 -0.8230 -0.3079
  189MOL     H626702   0.533   3.170   3.796  0.0367  0.8249 -0.3417
  189MOL     H726703   0.412   3.269   3.892 -0.4589 -2.0230  3.0549
  189MOL     H826704   0.561   3.426   3.767 -0.0352 -1.1693 -0.0791
  189MOL     C926705   0.549   3.050   4.017 -0.9789 -0.5834  0.3815
  189MOL    C1026706   0.408   3.014   4.050  0.2775 -0.8260 -0.1215
  189MOL    O1126707   0.313   3.007   3.939  0.1036  0.2806  0.3103
  189MOL    H1226708   0.581   2.990   3.932  1.0093 -0.4905  1.0510
  189MOL    H1326709   0.616   3.005   4.090  0.4051  1.5812  0.4894
  189MOL    H1426710   0.372   3.074   4.133 -1.1158  1.0651 -2.0411
  189MOL    H1526711   0.407   2.911   4.085  0.7633 -0.9251 -0.3965
  189MOL    C1626712   0.179   3.024   3.975  0.5010 -0.3388  0.1900
  189MOL    C1726713   0.122   2.927   4.076  0.2271 -0.3894 -0.5387
  189MOL    O1826714   0.071   2.817   4.006  0.0973  0.6392 -0.0076
  189MOL    H1926715   0.166   3.129   4.000  0.4321 -0.0652 -0.9597
  189MOL    H2026716   0.117   3.015   3.886  0.1560 -0.7938  0.4733
  189MOL    H2126717   0.043   2.981   4.127  1.7484  2.5311 -1.1427
  189MOL    H2226718   0.197   2.889   4.146  2.4008  1.6599 -1.6603
  189MOL    C2326719   7.763   2.740   4.098 -0.3504 -0.8471 -0.4029
  189MOL    C2426720   7.720   2.614   4.035 -0.2160 -0.3023  0.4281
  189MOL    O2526721   7.614   2.566   4.111 -0.1086 -0.4578 -0.1030
  189MOL    H2626722   0.055   2.706   4.180 -1.2475  2.8539  1.9369
  189MOL    H2726723   7.681   2.806   4.125  0.6736  0.8153 -1.2582
  189MOL    H2826724   0.025   2.543   4.001  1.6471  2.2476 -0.8490
  189MOL    H2926725   7.670   2.646   3.943  1.9567  3.2212  0.3856
  189MOL    C3026726   7.564   2.441   4.071  0.0528  0.1205  0.8412
  189MOL    C3126727   7.496   2.362   4.178 -0.1971  0.4297 -0.3703
  189MOL    O3226728   7.578   2.274   4.242  0.1549 -0.5690 -0.3074
  189MOL    H3326729   7.499   2.465   3.987 -0.2708  0.7281  1.2637
  189MOL    H3426730   7.638   2.375   4.025 -0.4897  1.2879 -1.8032
  189MOL    H3526731   7.412   2.297   4.152 -2.2294  2.2461  1.3944
  189MOL    H3626732   7.447   2.435   4.243 -0.0288 -0.3679  0.6756
  189MOL    C3726733   7.513   2.207   4.346  0.0352  0.0268  0.6883
  189MOL    C3826734   7.628   2.128   4.414  0.1570  0.0025 -0.0317
  189MOL    O3926735   7.668   2.194   4.533 -0.1440  0.2688  0.3501
  189MOL    H4026736   7.451   2.269   4.410 -1.1621 -0.5811  0.1495
  189MOL    H4126737   7.439   2.136   4.308 -0.2751 -0.2939  1.8931
  189MOL    H4226738   7.717   2.123   4.351  0.5970  0.1486  0.5716
  189MOL    H4326739   7.590   2.029   4.439 -0.5604  0.4711  0.7548
  189MOL    C4426740   0.021   2.136   4.586  0.1589 -0.1439 -0.9899
  189MOL    C4526741   0.063   2.215   4.706 -0.6460 -0.3861 -0.1858
  189MOL    O4626742   0.005   2.178   4.833 -0.4412  0.2118  0.1511
  189MOL    H4726743   0.004   2.032   4.612 -2.2479  0.8613  1.6954
  189MOL    H4826744   0.109   2.136   4.521  2.1217 -0.5145  1.5850
  189MOL    H4926745   0.055   2.322   4.691 -0.7562 -0.4931 -0.9227
  189MOL    H5026746   0.171   2.207   4.712 -0.7532 -1.7787  0.2374
  189MOL    C5126747   7.637   2.218   4.859 -0.1126 -0.6501 -0.2063
  189MOL    C5226748   7.613   2.167   5.007 -0.8405 -0.5035  0.0115
  189MOL    O5326749   7.476   2.175   5.043 -0.3877 -0.8924  0.0087
  189MOL    H5426750   7.619   2.322   4.833 -1.2533 -1.3303 -2.2235
  189MOL    H5526751   7.581   2.151   4.794  1.0500 -2.5737  0.7299
  189MOL    H5626752   7.663   2.230   5.081 -1.4637 -0.1378  0.1269
  189MOL    H5726753   7.653   2.068   5.027  0.4915 -0.3655 -1.8060
  189MOL    C5826754   7.454   2.167   5.185 -0.0875  0.9587  0.5062
  189MOL    C5926755   7.297   2.157   5.199 -0.7033  0.4625 -0.0410
  189MOL    O6026756   7.240   2.279   5.166  0.7793 -0.2164  0.5260
  189MOL    H6126757   7.487   2.072   5.226 -3.1008 -0.1832  0.4148
  189MOL    H6226758   7.490   2.256   5.237 -0.7543  0.9789  0.9466
  189MOL    H6326759   7.283   2.128   5.303 -0.2690  2.1189  0.4994
  189MOL    H6426760   7.250   2.083   5.135 -1.1608  2.1002 -1.6203
  189MOL    C6526761   7.109   2.284   5.219 -0.0504  0.1458 -0.1494
  189MOL    C6626762   7.042   2.415   5.174 -0.2176 -0.1761 -0.5118
  189MOL    O6726763   7.013   2.494   5.284 -0.2067 -0.0158 -0.4725
  189MOL    H6826764   7.048   2.195   5.209 -2.4933  1.5346  1.9394
  189MOL    H6926765   7.117   2.289   5.328  1.6175 -0.7352 -0.2052
  189MOL    H7026766   6.951   2.393   5.119  0.4982  2.6272 -2.9209
  189MOL    H7126767   7.092   2.470   5.095  0.2296 -0.0237 -0.1286
  189MOL    C7226768   6.951   2.613   5.240  1.5702  0.0901  0.4606
  189MOL    C7326769   6.797   2.583   5.225 -0.4017  0.2585  0.1353
  189MOL    O7426770   6.767   2.531   5.099 -0.6676  0.3705  0.2587
  189MOL    H7526771   6.953   2.678   5.328 -2.7455 -1.6006  1.9797
  189MOL    H7626772   6.987   2.662   5.150 -0.1269  0.6358  0.0576
  189MOL    H7726773   6.723   2.660   5.249 -2.5783 -1.2845 -1.4571
  189MOL    H7826774   6.783   2.504   5.299 -0.6948 -0.4693 -0.6998
  189MOL    C7926775   6.633   2.481   5.091  0.3319 -0.2693 -0.3310
  189MOL    C8026776   6.617   2.342   5.151 -0.4344 -0.3535 -0.2236
  189MOL    O8126777   6.700   2.252   5.085  0.3915 -0.5033 -0.5108
  189MOL    H8226778   6.569   2.559   5.133  0.2932  0.1913 -1.2475
  189MOL    H8326779   6.600   2.477   4.988 -1.7335 -1.5448  0.3481
  189MOL    H8426780   6.516   2.301   5.153 -2.1156  3.5244  0.1101
  189MOL    H8526781   6.646   2.334   5.256 -0.6858 -0.2449 -0.1452
  189MOL    C8626782   6.692   2.124   5.134 -0.8882  0.5349  0.4525
  189MOL    C8726783   6.752   2.032   5.027  0.6029 -0.5240  0.1642
  189MOL    O8826784   6.891   1.998   5.022 -0.1527 -0.3292 -0.1425
  189MOL    H8926785   6.754   2.128   5.223  1.8989  1.1188 -1.4670
  189MOL    H9026786   6.590   2.101   5.165 -1.0644 -0.9194 -1.1088
  189MOL    H9126787   6.721   2.067   4.928 -0.7840 -0.0972  0.7276
  189MOL    H9226788   6.704   1.934   5.034  1.4113 -0.8306  1.6211
  189MOL    C9326789   6.938   1.929   4.903  0.3985 -0.6339 -0.1566
  189MOL    C9426790   7.089   1.964   4.881 -0.1748  0.5128 -0.1112
  189MOL    O9526791   7.167   1.860   4.941  0.0138  0.2128  0.3538
  189MOL    H9626792   6.901   1.827   4.915 -0.9121 -0.2534 -0.8864
  189MOL    H9726793   6.875   1.961   4.820  0.5650 -0.7624 -0.3352
  189MOL    H9826794   7.125   2.060   4.919 -2.0039  0.6762  1.3029
  189MOL    H9926795   7.101   1.962   4.773 -0.7009  0.1494 -0.1651
  189MOL   C10026796   7.278   1.814   4.874  0.3791  0.4000  0.1045
  189MOL   C10126797   7.361   1.720   4.959  0.5552 -0.4432 -0.3096
  189MOL   O10226798   7.416   1.623   4.879  0.1245 -0.5723  0.2411
  189MOL   H10326799   7.246   1.765   4.782  0.5087 -0.9937  0.7954
  189MOL   H10426800   7.345   1.892   4.836  0.0990 -0.1765 -1.6343
  189MOL   H10526801   7.295   1.663   5.025  0.0509  0.1949 -0.2586
  189MOL   H10626802   7.420   1.785   5.024  1.3077 -0.1793 -1.2485
  189MOL   C10726803   7.482   1.519   4.948 -0.6825  0.5331 -0.4278
  189MOL   C10826804   7.550   1.422   4.841  0.1830 -0.0841 -0.6098
  189MOL   O10926805   7.463   1.333   4.780  0.4228 -0.3625 -0.7110
  189MOL   H11026806   7.554   1.557   5.020 -0.6642 -0.1664 -0.0664
  189MOL   H11126807   7.415   1.464   5.015  0.4569 -0.8322 -0.3907
  189MOL   H11226808   7.624   1.363   4.895  0.7681 -0.6745 -2.0405
  189MOL   H11326809   7.603   1.487   4.772 -0.0742  0.0935 -0.6418
  189MOL   C11426810   7.522   1.246   4.690 -0.0467 -0.3298 -0.5217
  189MOL   C11526811   7.425   1.173   4.606  0.1046  0.7158 -0.3868
  189MOL   O11626812   7.353   1.079   4.688 -0.4293 -0.1816 -0.1289
  189MOL   H11726813   7.594   1.297   4.627  2.9199 -4.7191 -0.9125
  189MOL   H11826814   7.577   1.175   4.752 -0.7685 -1.6837 -1.3989
  189MOL   H11926815   7.479   1.137   4.519  2.0671  0.1851  1.0112
  189MOL   H12026816   7.352   1.240   4.560 -0.2346  0.5417 -0.1105
  189MOL   C12126817   7.267   1.004   4.606  0.0303  0.6157  0.3166
  189MOL   C12226818   7.207   0.902   4.693  0.4841 -0.2628  0.7769
  189MOL   O12326819   7.098   0.961   4.763  0.0499  0.1958  0.2799
  189MOL   H12426820   7.191   1.070   4.563 -0.3004 -0.0374 -0.1099
  189MOL   H12526821   7.322   0.958   4.525 -0.5577  0.1107  0.1975
  189MOL   H12626822   7.278   0.853   4.760 -0.3946 -2.3867  0.1960
  189MOL   H12726823   7.162   0.819   4.639  2.1404 -0.0192 -1.0334
  189MOL   C12826824   7.132   1.001   4.891 -0.1313  0.2975  0.5711
  189MOL   C12926825   7.000   1.030   4.960 -0.7070 -0.1643 -0.4858
  189MOL   O13026826   6.957   0.909   5.024 -0.0618  0.2718 -0.3032
  189MOL   H13126827   7.189   0.929   4.950 -1.1154 -0.9086  0.0603
  189MOL   H13226828   7.197   1.089   4.881  0.4355 -0.0847  0.8619
  189MOL   H13326829   6.918   1.079   4.907 -1.6320  1.8839  2.6886
  189MOL   H13426830   7.025   1.116   5.023 -0.2691 -0.0179 -0.8589
  189MOL   C13526831   6.851   0.931   5.117 -0.3260 -0.7255 -0.3501
  189MOL   C13626832   6.753   0.813   5.101  0.0119  0.1658  0.4293
  189MOL   O13726833   6.670   0.792   5.212  0.5590  0.1391  0.3094
  189MOL   H13826834   6.882   0.939   5.221 -0.4377 -0.4054 -0.3422
  189MOL   H13926835   6.806   1.028   5.098 -0.5252 -1.0159 -1.3897
  189MOL   H14026836   6.803   0.719   5.081 -1.2207 -0.8074  1.8175
  189MOL   H14126837   6.699   0.833   5.009 -0.5279 -1.6659  0.3211
  189MOL   H14226838   6.599   0.736   5.184  0.9712 -0.2721  0.0823
  190MOL     C126839   2.680   6.135   4.844  0.2474 -0.1784  0.0620
  190MOL     C226840   2.531   6.158   4.871 -0.5933 -0.3280 -0.3274
  190MOL     O326841   2.507   6.299   4.906  0.4258 -0.0351  0.4623
  190MOL     H426842   2.729   6.196   4.768  0.8222  0.0301  0.5990
  190MOL     H526843   2.694   6.030   4.820  2.1391  0.1410 -0.3165
  190MOL     H626844   2.506   6.098   4.958 -1.6494 -2.1651 -1.8656
  190MOL     H726845   2.475   6.144   4.778  1.7899 -1.0449 -1.7063
  190MOL     H826846   2.734   6.158   4.935  0.8130 -0.6822 -0.1486
  190MOL     C926847   2.372   6.328   4.937 -0.2688  0.2465 -0.3667
  190MOL    C1026848   2.358   6.479   4.955  0.8827  0.0235 -0.5525
  190MOL    O1126849   2.352   6.532   4.822  0.5202  0.1281  0.2835
  190MOL    H1226850   2.314   6.287   4.854  2.5664 -0.5775 -2.0014
  190MOL    H1326851   2.339   6.282   5.031 -0.3479  0.9113 -0.0629
  190MOL    H1426852   2.434   6.522   5.021  1.4369 -2.1447  0.2746
  190MOL    H1526853   2.261   6.494   5.003  0.6758  1.7056 -1.4847
  190MOL    C1626854   2.293   6.663   4.811 -0.0581  0.3028  0.0327
  190MOL    C1726855   2.348   6.725   4.687 -0.1014 -0.4433 -0.4022
  190MOL    O1826856   2.324   6.864   4.692  0.1469 -0.6044  0.4523
  190MOL    H1926857   2.185   6.650   4.808  0.2885 -3.3834  0.9256
  190MOL    H2026858   2.323   6.714   4.903  0.2240  1.5939 -0.7542
  190MOL    H2126859   2.315   6.670   4.599  0.1335 -1.0364 -0.1230
  190MOL    H2226860   2.456   6.710   4.681 -0.1887 -0.5653 -1.8156
  190MOL    C2326861   2.374   6.922   4.569 -0.1459  0.4423  0.0349
  190MOL    C2426862   2.356   7.074   4.563 -0.3904 -0.4706 -0.1135
  190MOL    O2526863   2.467   7.137   4.630  0.6599 -0.1021  0.0138
  190MOL    H2626864   2.479   6.893   4.560 -0.7353 -1.5892 -0.7998
  190MOL    H2726865   2.313   6.866   4.498  0.1263 -1.4417  1.2562
  190MOL    H2826866   2.259   7.091   4.609 -1.0929  1.4849 -2.2296
  190MOL    H2926867   2.354   7.100   4.458  0.5329 -1.8881 -0.4934
  190MOL    C3026868   2.441   7.276   4.642 -0.3055 -0.1559  0.4979
  190MOL    C3126869   2.534   7.339   4.741  0.3550 -0.2877 -0.2282
  190MOL    O3226870   2.664   7.319   4.688 -0.3661 -0.1096 -0.5832
  190MOL    H3326871   2.450   7.325   4.545 -2.2827  1.3263  1.0353
  190MOL    H3426872   2.341   7.290   4.683 -0.2822 -1.2407  0.9312
  190MOL    H3526873   2.525   7.276   4.829 -0.1453 -0.9392 -0.7388
  190MOL    H3626874   2.506   7.443   4.761  1.2275 -0.3849  1.6194
  190MOL    C3726875   2.764   7.383   4.761 -0.2019  0.2984  0.0033
  190MOL    C3826876   2.832   7.288   4.866 -0.4471 -0.5840  0.1771
  190MOL    O3926877   2.765   7.288   4.992 -0.3438 -0.2860  0.3286
  190MOL    H4026878   2.838   7.413   4.687 -2.0284 -0.1172 -2.0358
  190MOL    H4126879   2.735   7.469   4.821  2.1691  1.6423 -0.7277
  190MOL    H4226880   2.930   7.334   4.880 -0.0874 -1.3531  0.2058
  190MOL    H4326881   2.858   7.188   4.833 -2.6699 -1.2453  0.3624
  190MOL    C4426882   2.796   7.182   5.080 -0.5723  0.4315 -0.2602
  190MOL    C4526883   2.738   7.048   5.028  0.0198  0.7886  0.1800
  190MOL    O4626884   2.599   7.069   5.019 -0.8049 -0.1635  0.2070
  190MOL    H4726885   2.901   7.165   5.103 -0.0519 -0.7262 -3.3314
  190MOL    H4826886   2.749   7.196   5.178 -1.4917 -2.7885 -0.1963
  190MOL    H4926887   2.763   6.958   5.085  1.6531 -0.0237 -1.7259
  190MOL    H5026888   2.763   7.012   4.928  1.6631 -0.6246  1.0690
  190MOL    C5126889   2.523   6.967   4.957 -0.3137  0.5134 -0.2150
  190MOL    C5226890   2.378   6.998   4.987 -0.4811  0.3284  0.0998
  190MOL    O5326891   2.355   6.955   5.126  0.4710 -0.4149 -0.0510
  190MOL    H5426892   2.548   6.986   4.852  3.5442 -0.7493  0.4067
  190MOL    H5526893   2.549   6.869   4.997  0.7380  0.0832 -1.8772
  190MOL    H5626894   2.312   6.950   4.914 -2.8933  0.1833  2.2903
  190MOL    H5726895   2.358   7.105   4.974 -0.6871  0.3387  0.5033
  190MOL    C5826896   2.214   6.974   5.153 -0.3979 -0.2562 -0.1638
  190MOL    C5926897   2.181   6.919   5.292  0.5437 -0.3831 -0.3456
  190MOL    O6026898   2.166   7.027   5.383  0.2767 -0.7273 -0.3167
  190MOL    H6126899   2.196   7.079   5.131 -1.8104 -0.3550  0.5088
  190MOL    H6226900   2.158   6.923   5.075  1.1363 -2.0108 -0.1728
  190MOL    H6326901   2.255   6.850   5.332 -1.6023 -2.6611 -0.1820
  190MOL    H6426902   2.088   6.863   5.286 -0.0143  0.4028  0.7312
  190MOL    C6526903   2.121   6.979   5.513  0.2162 -0.7377  0.0341
  190MOL    C6626904   2.078   7.097   5.606  0.0441  0.4968 -0.4996
  190MOL    O6726905   2.181   7.143   5.692  0.0426  0.4006  0.1845
  190MOL    H6826906   2.034   6.917   5.493 -0.5390  0.4261 -0.3340
  190MOL    H6926907   2.198   6.920   5.564  0.3784  1.4410  2.4054
  190MOL    H7026908   2.011   7.059   5.683  0.2114  1.6166  0.2250
  190MOL    H7126909   2.023   7.173   5.551  0.0222  1.6128  1.0025
  190MOL    C7226910   2.136   7.235   5.790  0.2213  0.1295 -0.4186
  190MOL    C7326911   2.247   7.348   5.808 -0.2315 -0.0450 -0.1253
  190MOL    O7426912   2.208   7.425   5.926 -0.1669 -0.2854 -0.1986
  190MOL    H7526913   2.038   7.275   5.763 -0.3705 -1.1294 -0.1740
  190MOL    H7626914   2.121   7.183   5.885 -3.5574  1.5919 -0.1288
  190MOL    H7726915   2.254   7.416   5.724  2.5341 -0.7832 -0.5505
  190MOL    H7826916   2.348   7.311   5.827 -0.2848 -1.1292 -1.8696
  190MOL    C7926917   2.298   7.524   5.961  0.1974 -0.4331  0.3121
  190MOL    C8026918   2.248   7.614   6.081 -0.2331 -0.2357  0.9237
  190MOL    O8126919   2.255   7.551   6.206  0.7573  0.1959  0.3531
  190MOL    H8226920   2.387   7.468   5.989 -0.2464 -0.6396  1.3022
  190MOL    H8326921   2.322   7.584   5.872 -2.6279  0.0841 -0.1402
  190MOL    H8426922   2.159   7.675   6.066  0.0127 -0.2921 -0.8532
  190MOL    H8526923   2.325   7.690   6.093  1.2472 -0.8637 -3.8225
  190MOL    C8626924   2.227   7.640   6.305  0.6390 -0.3097  0.4401
  190MOL    C8726925   2.253   7.568   6.445  0.0987 -0.4568  0.3305
  190MOL    O8826926   2.388   7.559   6.481 -0.5729 -0.0280 -0.6540
  190MOL    H8926927   2.284   7.733   6.307  1.3712 -0.7516 -0.0092
  190MOL    H9026928   2.121   7.666   6.298  0.1377 -2.3023  0.4910
  190MOL    H9126929   2.198   7.477   6.464 -0.5655 -0.4734 -1.5784
  190MOL    H9226930   2.218   7.639   6.521 -0.5550  0.3619 -0.7294
  190MOL    C9326931   2.457   7.440   6.423  0.1294 -0.2286 -0.2691
  190MOL    C9426932   2.601   7.452   6.475  0.1285  0.4390 -0.4830
  190MOL    O9526933   2.598   7.388   6.603  0.1986 -0.1677  0.1485
  190MOL    H9626934   2.405   7.347   6.444 -0.5575  0.5477  1.6224
  190MOL    H9726935   2.464   7.447   6.315  2.9918  1.7540 -0.0256
  190MOL    H9826936   2.637   7.554   6.482  0.4741  0.2929 -0.0986
  190MOL    H9926937   2.667   7.401   6.404 -0.3960 -0.9964  0.0349
  190MOL   C10026938   2.723   7.374   6.672  0.8085  0.2037  0.3117
  190MOL   C10126939   2.709   7.298   6.804 -0.0244  0.1934  0.3372
  190MOL   O10226940   2.702   7.161   6.792 -0.1718  0.6561 -0.2954
  190MOL   H10326941   2.800   7.329   6.609  1.3295  1.7073 -0.1401
  190MOL   H10426942   2.756   7.473   6.704 -0.3231  0.3155  1.1520
  190MOL   H10526943   2.616   7.338   6.842 -0.5761  1.1677 -1.9408
  190MOL   H10626944   2.788   7.328   6.873  1.1927  0.1622 -1.0124
  190MOL   C10726945   2.723   7.094   6.909  0.4328 -0.0230  0.5368
  190MOL   C10826946   2.727   6.941   6.889 -0.1565  0.8415  0.4223
  190MOL   O10926947   2.732   6.883   7.016 -0.6227  0.3939 -0.1863
  190MOL   H11026948   2.821   7.117   6.951  1.1880  1.1524 -1.7934
  190MOL   H11126949   2.641   7.118   6.977 -1.7102 -1.7528 -1.3802
  190MOL   H11226950   2.799   6.884   6.830  0.8053  0.9171  1.4925
  190MOL   H11326951   2.634   6.911   6.842  1.1532  0.3911 -1.9797
  190MOL   C11426952   2.750   6.741   7.015  0.1520 -0.4118 -0.0969
  190MOL   C11526953   2.697   6.696   7.150  0.0814  0.1776  0.0931
  190MOL   O11626954   2.690   6.552   7.132  0.9508 -0.5609 -0.0196
  190MOL   H11726955   2.677   6.703   6.943 -1.5935 -1.0115  1.9500
  190MOL   H11826956   2.854   6.713   6.999  0.1617 -0.0809 -0.6342
  190MOL   H11926957   2.602   6.748   7.165  1.1360  2.0253  0.4562
  190MOL   H12026958   2.767   6.718   7.230 -2.4599  0.7618  2.2321
  190MOL   C12126959   2.629   6.489   7.242  0.2604 -0.1261  0.4501
  190MOL   C12226960   2.711   6.362   7.270 -0.5751 -0.0835 -1.1410
  190MOL   O12326961   2.678   6.258   7.176  0.1980  0.1438  0.5253
  190MOL   H12426962   2.629   6.557   7.327  0.7299 -2.7376  2.5882
  190MOL   H12526963   2.525   6.465   7.222  0.0711 -0.2701  1.6177
  190MOL   H12626964   2.668   6.338   7.368 -0.5429 -0.3852 -1.2036
  190MOL   H12726965   2.818   6.380   7.277 -0.6021 -0.5486  1.1141
  190MOL   C12826966   2.715   6.134   7.226  0.3875 -0.9689  0.0674
  190MOL   C12926967   2.738   6.036   7.112  0.5794 -0.4014  0.2450
  190MOL   O13026968   2.616   5.988   7.054  0.1975  0.4630 -0.1885
  190MOL   H13126969   2.806   6.155   7.282 -0.7507  1.0216  1.2577
  190MOL   H13226970   2.634   6.086   7.281 -1.2685  2.1139  0.4880
  190MOL   H13326971   2.787   5.952   7.162  0.5259 -0.5077  0.1167
  190MOL   H13426972   2.804   6.074   7.034 -2.4688  0.5798 -1.9534
  190MOL   C13526973   2.629   5.925   6.926  0.2494 -0.1780  0.1745
  190MOL   C13626974   2.507   5.835   6.918 -0.8054  1.1890  1.1884
  190MOL   O13726975   2.538   5.729   7.007 -0.0685 -0.3182  0.1411
  190MOL   H13826976   2.630   6.008   6.856 -0.7885 -0.4654 -0.1792
  190MOL   H13926977   2.719   5.865   6.912 -0.1226 -0.8046  0.4506
  190MOL   H14026978   2.516   5.784   6.822 -0.6082  2.8458  0.3085
  190MOL   H14126979   2.402   5.863   6.929 -1.5181 -1.3192  1.0055
  190MOL   H14226980   2.530   5.767   7.093  1.5939  0.7740 -0.1534
  191MOL     C126981   3.064   0.999   6.762 -0.0237 -0.2886  0.2596
  191MOL     C226982   3.041   1.127   6.682 -0.6246 -0.0376  0.3873
  191MOL     O326983   3.077   1.108   6.548 -0.3665 -0.7932  0.1929
  191MOL     H426984   2.983   0.926   6.765 -1.2745  0.9557 -1.4413
  191MOL     H526985   3.057   1.024   6.868 -0.8015  0.0112  0.1432
  191MOL     H626986   3.086   1.214   6.731 -0.5078 -0.1556  0.4934
  191MOL     H726987   2.939   1.166   6.678  0.1593  2.1185  0.6430
  191MOL     H826988   3.156   0.947   6.737 -1.2351 -0.8868 -3.3632
  191MOL     C926989   3.113   1.242   6.487  0.2088  0.0362  0.0838
  191MOL    C1026990   3.203   1.238   6.362  0.4706 -0.4766 -0.1969
  191MOL    O1126991   3.220   1.368   6.302 -0.5007  0.9623  0.0445
  191MOL    H1226992   3.021   1.297   6.469 -0.1724 -0.2180  1.2237
  191MOL    H1326993   3.178   1.300   6.552 -1.6875  1.0560  1.0937
  191MOL    H1426994   3.155   1.174   6.288  1.2490 -0.0502 -1.0801
  191MOL    H1526995   3.300   1.191   6.381  0.3024 -0.9648 -0.5471
  191MOL    C1626996   3.317   1.357   6.201  0.0488  0.2459 -0.0715
  191MOL    C1726997   3.322   1.490   6.121  0.6937  0.0344 -0.0094
  191MOL    O1826998   3.415   1.566   6.202 -0.0840  0.1434 -0.0075
  191MOL    H1926999   3.411   1.332   6.249 -0.0025 -0.1602 -0.1798
  191MOL    H2027000   3.283   1.282   6.130 -0.7533  2.3032 -1.9043
  191MOL    H2127001   3.228   1.545   6.112  0.1354 -0.7622  0.9379
  191MOL    H2227002   3.381   1.477   6.030 -0.6757 -0.7385 -0.7908
  191MOL    C2327003   3.429   1.705   6.168 -0.4733  0.6009 -0.4427
  191MOL    C2427004   3.546   1.764   6.243 -0.1303  0.2372  0.1357
  191MOL    O2527005   3.674   1.724   6.191  0.3529  0.1606  0.8320
  191MOL    H2627006   3.444   1.716   6.060 -0.0943 -1.5881 -0.6350
  191MOL    H2727007   3.339   1.762   6.189 -1.6590 -1.7874  1.0869
  191MOL    H2827008   3.537   1.723   6.344 -0.9100 -1.0987 -0.4568
  191MOL    H2927009   3.548   1.873   6.238 -0.1136  0.1469 -2.0917
  191MOL    C3027010   3.777   1.781   6.265 -0.3577  0.4048  0.1869
  191MOL    C3127011   3.906   1.774   6.192 -0.1945 -0.1888  0.8742
  191MOL    O3227012   3.966   1.647   6.232 -0.0666  0.0155 -0.0461
  191MOL    H3327013   3.749   1.886   6.276 -1.3248  0.0375  1.3829
  191MOL    H3427014   3.797   1.740   6.364  1.6493 -0.3274 -0.5057
  191MOL    H3527015   3.970   1.857   6.223 -0.5366  0.1250  0.7370
  191MOL    H3627016   3.902   1.775   6.083  1.8177  0.0689  0.7756
  191MOL    C3727017   4.094   1.636   6.187 -0.4254  0.0592 -0.4439
  191MOL    C3827018   4.145   1.498   6.230  0.3871  1.0301 -0.2167
  191MOL    O3927019   4.158   1.483   6.372 -0.3207 -0.3492  0.0733
  191MOL    H4027020   4.107   1.654   6.080 -0.7482  1.9728 -0.1681
  191MOL    H4127021   4.151   1.717   6.233 -0.2537 -0.3311  0.0350
  191MOL    H4227022   4.240   1.491   6.178  0.9185 -1.0975  0.9769
  191MOL    H4327023   4.079   1.420   6.191  2.2852 -0.8457  0.2353
  191MOL    C4427024   4.226   1.365   6.392  0.2273  0.0361  0.5412
  191MOL    C4527025   4.235   1.332   6.543  0.6012  0.3970  0.5203
  191MOL    O4627026   4.111   1.276   6.577 -0.4020  0.2147 -0.0753
  191MOL    H4727027   4.189   1.282   6.333  2.7151 -0.7548  0.0338
  191MOL    H4827028   4.324   1.376   6.345  0.1484 -1.0007  0.1225
  191MOL    H4927029   4.244   1.431   6.588 -1.2030  0.7544  0.1481
  191MOL    H5027030   4.323   1.276   6.572  0.2717  0.1821  1.1061
  191MOL    C5127031   4.116   1.215   6.707  0.2480  0.0609 -0.1151
  191MOL    C5227032   3.983   1.142   6.726 -0.3288 -0.3753 -0.3124
  191MOL    O5327033   3.997   1.003   6.691 -0.0469  0.0546  0.5908
  191MOL    H5427034   4.196   1.142   6.724  0.3140 -0.3069 -1.8746
  191MOL    H5527035   4.121   1.297   6.778  3.6846  0.8158 -1.1370
  191MOL    H5627036   3.900   1.187   6.671 -1.0462  0.8236  1.7258
  191MOL    H5727037   3.968   1.125   6.832 -3.0061  1.9810 -0.2523
  191MOL    C5827038   3.882   0.921   6.696  0.2282 -0.0810  0.0094
  191MOL    C5927039   3.918   0.783   6.645  0.3344 -0.2422  0.2485
  191MOL    O6027040   3.975   0.690   6.729 -0.1483  1.0398  0.0354
  191MOL    H6127041   3.831   0.922   6.792  0.9905 -2.4816  0.4743
  191MOL    H6227042   3.807   0.963   6.629 -0.5435 -0.4357  0.6461
  191MOL    H6327043   3.979   0.781   6.555 -1.2714  1.4599 -0.9167
  191MOL    H6427044   3.819   0.740   6.625 -0.4894 -0.3171  4.0730
  191MOL    C6527045   4.105   0.735   6.771  0.2390 -0.0787  0.4899
  191MOL    C6627046   4.185   0.626   6.850  0.1025 -0.1444  0.0383
  191MOL    O6727047   4.241   0.541   6.753  0.2780  0.3301 -0.3931
  191MOL    H6827048   4.167   0.762   6.686 -2.0273 -1.7485 -1.7899
  191MOL    H6927049   4.111   0.821   6.838 -2.0039 -2.3045  3.7533
  191MOL    H7027050   4.120   0.571   6.917 -1.5653  2.3114  0.5051
  191MOL    H7127051   4.270   0.659   6.910 -0.6637 -0.8310  1.5137
  191MOL    C7227052   4.288   0.421   6.804 -0.2550  0.4517 -0.6391
  191MOL    C7327053   4.334   0.320   6.697  0.0450 -0.1586 -0.5595
  191MOL    O7427054   4.474   0.327   6.661 -0.1521  0.0888  0.3582
  191MOL    H7527055   4.370   0.447   6.870 -0.5286 -1.3579  0.4656
  191MOL    H7627056   4.216   0.365   6.865  1.4015  0.1324  1.0818
  191MOL    H7727057   4.277   0.340   6.607  3.4048  0.5546 -2.6128
  191MOL    H7827058   4.310   0.219   6.731  1.5243  0.0814  1.2493
  191MOL    C7927059   4.514   0.224   6.569  0.3846 -0.0607  0.2471
  191MOL    C8027060   4.666   0.217   6.538 -0.3119  0.9684 -0.3497
  191MOL    O8127061   4.728   0.183   6.663  0.2867  0.4331 -0.0022
  191MOL    H8227062   4.485   0.128   6.613 -1.3639  0.6134  0.6262
  191MOL    H8327063   4.457   0.246   6.479 -1.1459 -2.3724  0.5972
  191MOL    H8427064   4.706   0.314   6.508  2.0411  0.2781  0.4939
  191MOL    H8527065   4.691   0.140   6.465 -2.2512  0.3266 -0.3666
  191MOL    C8627066   4.867   0.147   6.650  0.0500  0.3824 -0.5611
  191MOL    C8727067   4.949   0.277   6.643  0.8035  0.9447 -0.4706
  191MOL    O8827068   4.975   0.319   6.509  0.4548 -0.6383  0.2510
  191MOL    H8927069   4.891   0.090   6.740 -0.6721 -0.6083 -0.9820
  191MOL    H9027070   4.889   0.079   6.567  0.5323 -1.1240  0.7574
  191MOL    H9127071   5.043   0.269   6.697  0.1451  1.1459  0.7358
  191MOL    H9227072   4.890   0.355   6.691  0.1599 -0.5327  1.1964
  191MOL    C9327073   4.957   0.456   6.488  0.0835 -0.2604  0.2279
  191MOL    C9427074   4.979   0.495   6.340 -0.6447  0.4683  0.1650
  191MOL    O9527075   5.036   0.622   6.316 -0.0268  0.5880  0.0310
  191MOL    H9627076   4.863   0.496   6.525 -0.2588 -0.2938 -0.6076
  191MOL    H9727077   5.029   0.515   6.545  1.2034 -1.4060  0.0364
  191MOL    H9827078   4.890   0.469   6.283 -0.9064  0.9807  0.3393
  191MOL    H9927079   5.048   0.424   6.294 -0.1321  1.2943 -0.3557
  191MOL   C10027080   5.004   0.688   6.189 -0.0687 -0.0588 -0.0303
  191MOL   C10127081   4.888   0.782   6.210 -0.0282  0.2082  0.0312
  191MOL   O10227082   4.779   0.705   6.254  0.1478  0.6590  0.5996
  191MOL   H10327083   5.098   0.724   6.146  0.8249 -0.5199  1.4809
  191MOL   H10427084   4.977   0.615   6.113 -0.0471 -2.2784  2.0032
  191MOL   H10527085   4.866   0.833   6.116 -0.5797  0.6423  0.3972
  191MOL   H10627086   4.914   0.854   6.288  0.2679 -1.1619  1.2143
  191MOL   C10727087   4.673   0.789   6.264 -0.1257  0.5441 -0.3467
  191MOL   C10827088   4.563   0.678   6.284 -0.0109 -0.2874 -0.3701
  191MOL   O10927089   4.446   0.757   6.330 -0.3098  0.2266 -0.2543
  191MOL   H11027090   4.692   0.855   6.349  0.1292  2.1473 -1.6048
  191MOL   H11127091   4.662   0.856   6.178  1.1174  0.4059 -0.6299
  191MOL   H11227092   4.589   0.605   6.361  3.0589  2.1883  1.0801
  191MOL   H11327093   4.537   0.630   6.190 -1.5236 -1.5971  0.6883
  191MOL   C11427094   4.335   0.674   6.369  0.6540  0.4299 -0.1808
  191MOL   C11527095   4.226   0.648   6.257 -0.4746  0.3546 -0.6048
  191MOL   O11627096   4.133   0.757   6.234  0.1220 -0.9077  0.1975
  191MOL   H11727097   4.366   0.579   6.414 -1.9708 -1.8069 -2.9239
  191MOL   H11827098   4.292   0.718   6.459 -0.1726  0.0448 -0.3814
  191MOL   H11927099   4.165   0.572   6.306 -2.5094  2.0247 -0.4712
  191MOL   H12027100   4.277   0.601   6.173 -1.3440  1.4460 -1.7558
  191MOL   C12127101   4.187   0.853   6.144 -0.3661  0.0525 -0.4925
  191MOL   C12227102   4.080   0.952   6.118  0.6745  0.2649  0.3903
  191MOL   O12327103   4.130   1.051   6.021 -0.0988  0.1928  0.0815
  191MOL   H12427104   4.272   0.902   6.191 -0.5872 -0.5958  0.6117
  191MOL   H12527105   4.212   0.819   6.044 -1.5202  0.3208 -0.8853
  191MOL   H12627106   4.051   1.000   6.211  0.3268 -1.5957  1.2575
  191MOL   H12727107   3.984   0.904   6.098  1.5728 -1.2005 -0.4745
  191MOL   C12827108   4.047   1.165   6.027 -0.8399 -0.5659 -0.0646
  191MOL   C12927109   4.117   1.270   5.935 -0.1468 -0.3276 -0.7723
  191MOL   O13027110   4.246   1.315   5.990  0.0351  0.3371 -0.2189
  191MOL   H13127111   3.946   1.137   5.996 -0.2445 -1.5853 -1.1333
  191MOL   H13227112   4.043   1.201   6.130  1.1202 -1.9127  0.4977
  191MOL   H13327113   4.067   1.366   5.937  1.0801  0.2988  0.7175
  191MOL   H13427114   4.117   1.245   5.829  0.4894 -0.8719 -0.6487
  191MOL   C13527115   4.350   1.256   5.921 -0.3555  0.6884 -0.6296
  191MOL   C13627116   4.488   1.276   5.990 -0.5067 -0.0468 -0.2810
  191MOL   O13727117   4.526   1.409   5.956 -0.8695 -0.3038  0.2414
  191MOL   H13827118   4.328   1.150   5.923 -1.1454  0.8615 -0.0288
  191MOL   H13927119   4.351   1.277   5.814  3.3106 -1.8351 -1.1867
  191MOL   H14027120   4.558   1.195   5.969 -0.2959 -0.4333  1.8090
  191MOL   H14127121   4.477   1.266   6.098  0.6795  0.4605 -0.1139
  191MOL   H14227122   4.455   1.461   5.988 -3.2733 -3.0088 -0.4798
  192MOL     C127123   2.179   4.625   4.430 -0.5378  0.1451  0.6547
  192MOL     C227124   2.081   4.579   4.539  0.0890 -0.1555  0.0794
  192MOL     O327125   2.153   4.578   4.662  0.1485  0.8367 -0.7602
  192MOL     H427126   2.125   4.619   4.336 -0.1447  0.2847  0.4228
  192MOL     H527127   2.267   4.561   4.428 -1.7008 -1.4684 -0.8193
  192MOL     H627128   2.021   4.495   4.506  0.0662  1.0806 -3.2745
  192MOL     H727129   2.010   4.659   4.558 -2.0401 -1.6227 -1.5368
  192MOL     H827130   2.224   4.724   4.433  2.1791 -1.0057 -0.7087
  192MOL     C927131   2.076   4.510   4.762  0.4307  0.2979 -0.4850
  192MOL    C1027132   2.082   4.360   4.759  0.2923 -0.4038  0.5786
  192MOL    O1127133   2.020   4.299   4.652 -0.1370  0.4456  0.5781
  192MOL    H1227134   2.108   4.554   4.856  0.8996  1.9855 -1.3983
  192MOL    H1327135   1.971   4.537   4.763  1.0905  3.0701  1.6316
  192MOL    H1427136   2.030   4.316   4.844 -0.2483  0.7235  0.8372
  192MOL    H1527137   2.187   4.331   4.764  0.6396  0.8552  0.8056
  192MOL    C1627138   2.055   4.154   4.632 -0.5463  0.0005  0.0623
  192MOL    C1727139   1.973   4.073   4.734 -0.3064 -0.2447  0.6000
  192MOL    O1827140   2.013   4.081   4.866 -0.4425 -0.7238  0.0228
  192MOL    H1927141   2.023   4.121   4.533 -1.8011 -2.0688  1.1345
  192MOL    H2027142   2.161   4.127   4.624 -0.2820  0.8082  0.7748
  192MOL    H2127143   1.993   3.968   4.714  1.4140  0.5161 -1.9081
  192MOL    H2227144   1.870   4.106   4.749  0.3989  2.3539 -0.0198
  192MOL    C2327145   1.946   4.013   4.971  0.0286 -0.7323  0.3179
  192MOL    C2427146   1.992   4.085   5.098 -0.3388 -0.4748  0.3361
  192MOL    O2527147   1.943   4.214   5.084  0.0332 -0.3358  0.6276
  192MOL    H2627148   1.838   4.016   4.954 -0.0059 -2.4816  0.1449
  192MOL    H2727149   1.978   3.909   4.985 -1.6445 -1.2202  0.6676
  192MOL    H2827150   2.100   4.075   5.106 -0.1154  0.2874 -1.4734
  192MOL    H2927151   1.946   4.057   5.193 -1.0349  0.9642  0.4498
  192MOL    C3027152   1.997   4.306   5.181  0.5817  1.0025  0.2195
  192MOL    C3127153   1.916   4.438   5.169 -0.0801 -0.4060 -0.3135
  192MOL    O3227154   1.967   4.513   5.062  0.4561 -0.1015 -0.1306
  192MOL    H3327155   1.988   4.258   5.278  0.4069  0.6141  0.0117
  192MOL    H3427156   2.103   4.313   5.158  0.2928  2.3443 -0.7742
  192MOL    H3527157   1.916   4.498   5.259 -0.8333  0.0052 -0.5875
  192MOL    H3627158   1.812   4.411   5.149  0.1945 -1.7544  0.0263
  192MOL    C3727159   1.919   4.640   5.059  0.1167  0.5588 -0.0926
  192MOL    C3827160   1.764   4.647   5.020  0.1392  0.2691 -0.9156
  192MOL    O3927161   1.744   4.563   4.910 -0.4916  0.2659  0.7064
  192MOL    H4027162   1.933   4.692   5.153  2.5289  1.1794 -0.7722
  192MOL    H4127163   1.983   4.686   4.984  2.1985 -1.5430  0.3319
  192MOL    H4227164   1.740   4.752   5.004 -0.2151  0.0928 -1.5827
  192MOL    H4327165   1.708   4.615   5.108  2.2780  0.1235  0.4314
  192MOL    C4427166   1.609   4.553   4.866 -0.0462 -0.0758  0.4135
  192MOL    C4527167   1.558   4.677   4.796  0.1344 -0.0990 -0.1177
  192MOL    O4627168   1.511   4.785   4.870 -0.4603 -0.1740 -0.3399
  192MOL    H4727169   1.616   4.466   4.800  2.2117  0.5289 -0.1919
  192MOL    H4827170   1.540   4.527   4.945 -0.1420 -1.2480 -0.0491
  192MOL    H4927171   1.470   4.645   4.741  0.2061 -0.7938  0.1705
  192MOL    H5027172   1.630   4.712   4.721 -0.5673 -0.0221 -0.7609
  192MOL    C5127173   1.470   4.896   4.785 -0.5678  0.7362 -0.7925
  192MOL    C5227174   1.325   4.929   4.808  0.0892  0.2037  0.0186
  192MOL    O5327175   1.304   4.999   4.932  0.1858  0.2904 -0.1662
  192MOL    H5427176   1.528   4.987   4.804  0.7313 -0.2712  0.1570
  192MOL    H5527177   1.478   4.874   4.679 -1.2554 -0.4110 -0.6081
  192MOL    H5627178   1.271   4.835   4.800  0.0222  0.4292 -2.4995
  192MOL    H5727179   1.289   5.001   4.735  1.2479  1.6473  0.8462
  192MOL    C5827180   1.175   5.059   4.943 -0.9868 -0.6373  0.2282
  192MOL    C5927181   1.152   5.099   5.092 -0.4405  0.0920  0.0766
  192MOL    O6027182   1.189   5.230   5.133 -0.2108 -0.2503  0.0388
  192MOL    H6127183   1.148   5.130   4.865  2.8599  0.9131  0.2221
  192MOL    H6227184   1.106   4.980   4.914 -0.9909 -0.3166 -0.6477
  192MOL    H6327185   1.206   5.038   5.165 -1.0622 -0.0356  0.4362
  192MOL    H6427186   1.044   5.084   5.103 -0.4498 -1.3582 -1.7266
  192MOL    C6527187   1.207   5.238   5.272 -0.0759  0.2624 -0.6426
  192MOL    C6627188   1.248   5.378   5.307 -0.5642  0.3212  0.1538
  192MOL    O6727189   1.136   5.458   5.336 -0.1188 -0.2208 -0.3630
  192MOL    H6827190   1.121   5.205   5.330  1.0223  0.7815  1.3381
  192MOL    H6927191   1.293   5.176   5.297  1.0195  1.9861 -0.0634
  192MOL    H7027192   1.312   5.426   5.233 -0.2951 -1.3010 -0.6846
  192MOL    H7127193   1.308   5.376   5.397  2.0455 -1.8235 -1.5656
  192MOL    C7227194   1.183   5.584   5.384  0.0933 -0.7180  0.3893
  192MOL    C7327195   1.186   5.596   5.536 -0.1715  0.3446 -0.8073
  192MOL    O7427196   1.301   5.533   5.587  0.4801  0.1144  0.2833
  192MOL    H7527197   1.281   5.616   5.348 -0.6849  1.1982 -0.1049
  192MOL    H7627198   1.121   5.663   5.341  0.7718  0.0921  0.9087
  192MOL    H7727199   1.093   5.560   5.579  0.0252  1.0781  0.2361
  192MOL    H7827200   1.190   5.702   5.560  1.3981  0.4472 -1.4117
  192MOL    C7927201   1.304   5.525   5.730 -0.2074 -0.3712 -0.4172
  192MOL    C8027202   1.393   5.641   5.788  0.3304  0.4197  0.2574
  192MOL    O8127203   1.333   5.770   5.771  0.1337  0.3800  0.1063
  192MOL    H8227204   1.203   5.536   5.768  0.2875 -1.4596  1.2481
  192MOL    H8327205   1.338   5.423   5.751  0.5492 -0.0784 -0.1805
  192MOL    H8427206   1.499   5.640   5.760  0.7906 -1.9944  1.9063
  192MOL    H8527207   1.409   5.612   5.892 -1.3291 -1.0856  0.1222
  192MOL    C8627208   1.407   5.876   5.822  0.0216  0.9271 -0.2598
  192MOL    C8727209   1.332   6.009   5.810 -0.1281 -0.1053 -0.0258
  192MOL    O8827210   1.220   6.000   5.900  0.1862 -0.7840 -0.0160
  192MOL    H8927211   1.426   5.862   5.928 -0.3653 -0.5695 -0.3732
  192MOL    H9027212   1.510   5.882   5.786 -0.2098  0.8542 -0.9472
  192MOL    H9127213   1.288   6.026   5.713  0.7604  1.3701 -0.1918
  192MOL    H9227214   1.394   6.095   5.836 -0.7570  0.3999 -0.1812
  192MOL    C9327215   1.160   6.127   5.926 -0.2319  0.3820 -0.8273
  192MOL    C9427216   1.030   6.097   6.004  1.2392  0.2845 -0.2517
  192MOL    O9527217   0.923   6.081   5.911  0.0655 -0.6796 -0.1520
  192MOL    H9627218   1.222   6.192   5.988 -1.0952  2.0581 -1.6876
  192MOL    H9727219   1.143   6.190   5.839 -1.1817 -0.8243 -1.5358
  192MOL    H9827220   1.007   6.184   6.065  2.0195  0.4829 -0.2291
  192MOL    H9927221   1.042   6.019   6.078  1.1919  1.0568  0.5853
  192MOL   C10027222   0.859   6.196   5.873 -0.4114 -0.4482  0.0833
  192MOL   C10127223   0.777   6.169   5.743  0.1923 -0.0863  0.2024
  192MOL   O10227224   0.870   6.156   5.633  0.3203  0.0629 -0.3124
  192MOL   H10327225   0.780   6.220   5.945  0.4860  0.3169  0.8164
  192MOL   H10427226   0.930   6.278   5.873 -0.2179 -0.5796 -2.7278
  192MOL   H10527227   0.690   6.226   5.709 -0.5395 -0.6622  1.0917
  192MOL   H10627228   0.733   6.070   5.757  2.1098 -1.3076 -2.1832
  192MOL   C10727229   0.916   6.284   5.590 -0.2205 -0.9712 -1.1199
  192MOL   C10827230   0.969   6.271   5.447  0.3552 -0.3160 -0.1895
  192MOL   O10927231   1.094   6.204   5.438  0.1955  0.0243 -0.6664
  192MOL   H11027232   0.838   6.360   5.600 -3.4018 -4.2947  0.5639
  192MOL   H11127233   1.003   6.306   5.651 -0.5908 -1.6427 -0.3401
  192MOL   H11227234   0.979   6.370   5.402 -1.1115 -0.6252 -1.2054
  192MOL   H11327235   0.901   6.222   5.378 -1.6220  1.6434  0.3158
  192MOL   C11427236   1.087   6.064   5.459 -0.3920  0.2761  0.4663
  192MOL   C11527237   1.211   6.007   5.375 -0.0616 -0.4548 -0.2498
  192MOL   O11627238   1.327   6.035   5.446  0.2590 -0.4307 -0.1044
  192MOL   H11727239   1.103   6.038   5.564 -0.5188  0.6364  0.5722
  192MOL   H11827240   0.993   6.018   5.432 -1.0552  1.1968  1.1860
  192MOL   H11927241   1.220   6.054   5.277 -0.0270 -2.1491 -1.0759
  192MOL   H12027242   1.196   5.902   5.351 -0.2778 -0.7555  1.1797
  192MOL   C12127243   1.442   5.983   5.387 -0.1272 -0.3537  0.1870
  192MOL   C12227244   1.465   5.837   5.427 -0.4444  0.3173  0.0700
  192MOL   O12327245   1.606   5.827   5.467 -0.4857  0.3152 -0.0877
  192MOL   H12427246   1.442   5.988   5.279  0.3261  1.1161  0.2480
  192MOL   H12527247   1.520   6.048   5.427 -0.4869 -0.4963  1.1480
  192MOL   H12627248   1.436   5.768   5.348 -1.0213  0.5426  0.0819
  192MOL   H12727249   1.405   5.817   5.516 -0.6528 -0.0130 -0.1427
  192MOL   C12827250   1.662   5.692   5.492 -0.2288  0.2141 -0.6383
  192MOL   C12927251   1.801   5.713   5.559 -0.0562 -0.7421 -0.6642
  192MOL   O13027252   1.776   5.746   5.694 -0.7171 -0.5404 -0.0534
  192MOL   H13127253   1.584   5.658   5.560  0.3581  1.1850  0.5398
  192MOL   H13227254   1.667   5.631   5.402  0.3883  0.5149 -0.8105
  192MOL   H13327255   1.863   5.789   5.511  1.2460 -0.1523  1.8759
  192MOL   H13427256   1.855   5.618   5.554  1.0330 -0.1047 -1.1966
  192MOL   C13527257   1.783   5.882   5.726 -0.0939  0.0310  0.2025
  192MOL   C13627258   1.779   5.878   5.883 -0.1848 -0.1886  0.5977
  192MOL   O13727259   1.859   5.778   5.936 -0.3664 -0.3484  0.0146
  192MOL   H13827260   1.873   5.929   5.687  1.4568 -2.9771  0.0395
  192MOL   H13927261   1.702   5.944   5.687 -0.0954  0.6642  1.1880
  192MOL   H14027262   1.684   5.865   5.935  0.1379 -0.7668  1.0466
  192MOL   H14127263   1.812   5.977   5.916 -0.3965 -0.0102  0.2830
  192MOL   H14227264   1.858   5.708   5.873 -2.9932 -0.8254  0.5008
  193MOL     C127265   5.710   4.213   1.531 -0.5631 -0.0926 -0.0176
  193MOL     C227266   5.834   4.226   1.438 -0.3061 -0.7303 -0.5221
  193MOL     O327267   5.870   4.100   1.390 -0.0738  0.4821 -0.6901
  193MOL     H427268   5.624   4.185   1.470 -0.6477  0.3208 -0.0934
  193MOL     H527269   5.685   4.296   1.597  0.9475 -0.5256  1.1244
  193MOL     H627270   5.914   4.268   1.499 -0.8604 -1.8925  1.0413
  193MOL     H727271   5.814   4.304   1.365  0.7602  0.5615  0.5414
  193MOL     H827272   5.729   4.131   1.601 -1.4883 -0.1758  0.1352
  193MOL     C927273   5.929   4.102   1.264  0.1952  0.6158  0.4209
  193MOL    C1027274   5.956   3.954   1.227  0.8166 -0.2343  0.2718
  193MOL    O1127275   5.830   3.889   1.203  0.3123 -0.0964  0.1094
  193MOL    H1227276   5.858   4.154   1.199 -1.2122 -0.4188  1.0966
  193MOL    H1327277   6.022   4.159   1.264  1.5925 -1.6276  0.2758
  193MOL    H1427278   6.019   3.903   1.299  0.9926  0.2928  0.4977
  193MOL    H1527279   6.006   3.946   1.131 -0.7924  2.6738 -0.8946
  193MOL    C1627280   5.788   3.795   1.305 -0.5932 -0.2480  0.2728
  193MOL    C1727281   5.638   3.758   1.308  0.6149  0.5944  0.1537
  193MOL    O1827282   5.611   3.623   1.346 -0.0028 -0.8232 -0.7580
  193MOL    H1927283   5.854   3.710   1.288 -0.4322 -0.5049  2.1665
  193MOL    H2027284   5.814   3.834   1.403 -3.1798  0.9612  0.4965
  193MOL    H2127285   5.595   3.758   1.207 -2.1317  1.0307  1.2743
  193MOL    H2227286   5.573   3.826   1.364 -2.4187 -1.6342 -0.4965
  193MOL    C2327287   5.471   3.604   1.356  0.0125 -0.2629 -0.6792
  193MOL    C2427288   5.441   3.477   1.439  0.0990 -0.5653 -0.1921
  193MOL    O2527289   5.494   3.371   1.373 -0.2305 -0.1750  0.8050
  193MOL    H2627290   5.419   3.686   1.408  1.0430 -0.7213  1.1193
  193MOL    H2727291   5.422   3.596   1.259 -0.5432  1.1128 -0.5310
  193MOL    H2827292   5.334   3.470   1.462  0.0474  0.2721 -0.1636
  193MOL    H2927293   5.488   3.482   1.537 -1.3264 -0.9826  0.5355
  193MOL    C3027294   5.489   3.250   1.446 -0.1786  0.5536  0.5445
  193MOL    C3127295   5.351   3.173   1.431  0.8896  0.2049 -0.9994
  193MOL    O3227296   5.255   3.229   1.514 -0.3660 -0.0936  0.3582
  193MOL    H3327297   5.570   3.186   1.410 -0.2838  0.7954 -0.1181
  193MOL    H3427298   5.517   3.275   1.548  1.8670 -1.2952  0.4771
  193MOL    H3527299   5.371   3.072   1.467 -0.3171  0.6895  1.1084
  193MOL    H3627300   5.323   3.167   1.326 -1.6534  1.0519 -0.4157
  193MOL    C3727301   5.128   3.193   1.473  0.2003  0.1025  0.4220
  193MOL    C3827302   5.092   3.045   1.504 -0.3481  1.0094  0.0293
  193MOL    O3927303   5.125   2.956   1.399 -0.0354 -0.4262 -0.3987
  193MOL    H4027304   5.066   3.258   1.534 -0.7875 -0.1722 -0.2798
  193MOL    H4127305   5.117   3.220   1.368 -0.8002 -0.1216  0.4666
  193MOL    H4227306   4.983   3.051   1.501 -0.2836  1.0644 -2.5931
  193MOL    H4327307   5.119   3.006   1.603  0.9160  1.9739  0.0770
  193MOL    C4427308   5.053   2.830   1.398 -0.0912 -0.1921 -0.3916
  193MOL    C4527309   5.055   2.778   1.251 -0.1327  0.6494 -0.2857
  193MOL    O4627310   4.973   2.858   1.178  0.1431  0.2003  0.2702
  193MOL    H4727311   5.110   2.768   1.467  1.0162  0.2104 -0.9334
  193MOL    H4827312   4.952   2.832   1.438  0.3603  2.2492  0.7157
  193MOL    H4927313   5.018   2.676   1.241 -1.2098  0.8416  1.4383
  193MOL    H5027314   5.154   2.782   1.207 -0.9283  0.9713 -2.0638
  193MOL    C5127315   4.978   2.822   1.046 -0.1828  0.0728 -0.4694
  193MOL    C5227316   4.864   2.882   0.963 -0.1946  0.9057 -0.4089
  193MOL    O5327317   4.742   2.810   0.957  0.0229  0.1295 -0.1520
  193MOL    H5427318   5.072   2.860   1.006  0.7645 -0.7792  0.9318
  193MOL    H5527319   4.978   2.715   1.027 -2.3404 -0.2635  1.2492
  193MOL    H5627320   4.896   2.886   0.858 -1.1200 -0.7205 -0.7683
  193MOL    H5727321   4.852   2.986   0.993  0.0365  1.1251 -1.0714
  193MOL    C5827322   4.675   2.822   1.077 -0.2975  0.3225 -0.4626
  193MOL    C5927323   4.545   2.754   1.063  0.5076  0.0984  0.1409
  193MOL    O6027324   4.454   2.827   0.981 -0.4345 -0.3788  0.1204
  193MOL    H6127325   4.722   2.786   1.168 -1.8168 -1.9846 -0.5613
  193MOL    H6227326   4.657   2.925   1.109 -2.5150  0.0459 -0.7468
  193MOL    H6327327   4.513   2.752   1.167 -0.5720 -0.6925 -0.1940
  193MOL    H6427328   4.578   2.654   1.034  0.4227 -0.3914  1.6756
  193MOL    C6527329   4.330   2.763   0.973 -0.4463 -0.3389 -0.8663
  193MOL    C6627330   4.234   2.834   0.881 -0.9317  0.5397 -0.6994
  193MOL    O6727331   4.159   2.941   0.949 -0.1663  0.1011  0.1581
  193MOL    H6827332   4.342   2.666   0.925  0.5168  0.6335 -2.6167
  193MOL    H6927333   4.283   2.742   1.069  2.0264 -0.2474  0.4043
  193MOL    H7027334   4.174   2.767   0.819 -2.2020  1.8904 -0.9677
  193MOL    H7127335   4.289   2.884   0.801  0.4512  2.0652  1.1574
  193MOL    C7227336   4.056   3.007   0.870  0.5331 -0.0502 -0.1020
  193MOL    C7327337   4.000   3.124   0.960  0.1037  0.7081  0.6542
  193MOL    O7427338   3.906   3.087   1.059 -0.4401 -0.0081 -0.1309
  193MOL    H7527339   4.102   3.046   0.779 -0.8422  0.2873 -0.6638
  193MOL    H7627340   3.979   2.936   0.840 -0.3575  0.2509  1.3695
  193MOL    H7727341   3.965   3.201   0.891 -2.8589 -0.2035  1.0304
  193MOL    H7827342   4.076   3.168   1.024  1.6514  0.0489 -0.7046
  193MOL    C7927343   3.865   3.203   1.126 -0.0412 -0.8912 -0.2293
  193MOL    C8027344   3.839   3.169   1.273 -0.0309 -0.1048 -0.4014
  193MOL    O8127345   3.694   3.158   1.284  0.4825 -0.0025  0.4557
  193MOL    H8227346   3.928   3.292   1.119  1.6594 -1.8505  2.1888
  193MOL    H8327347   3.773   3.234   1.076 -1.9120 -0.9442  3.0694
  193MOL    H8427348   3.877   3.255   1.328  1.2202  0.2127 -1.7338
  193MOL    H8527349   3.897   3.082   1.305  0.2456  0.6494  1.2006
  193MOL    C8627350   3.654   3.175   1.424 -0.0364 -0.4229 -0.1596
  193MOL    C8727351   3.504   3.157   1.438  0.0033  1.1811 -0.3021
  193MOL    O8827352   3.446   3.277   1.412 -0.2824 -0.0650 -0.1349
  193MOL    H8927353   3.701   3.099   1.486  1.5488 -0.1730 -1.0084
  193MOL    H9027354   3.693   3.268   1.466  0.9141 -0.2879 -1.3122
  193MOL    H9127355   3.487   3.133   1.543 -1.7732  1.8530 -0.4164
  193MOL    H9227356   3.475   3.080   1.365 -1.0686  1.7327 -0.4751
  193MOL    C9327357   3.317   3.295   1.471  0.6242  0.2090 -0.4911
  193MOL    C9427358   3.208   3.232   1.374 -0.9014  0.6087 -0.1071
  193MOL    O9527359   3.186   3.092   1.391  0.3348 -0.2462  0.0544
  193MOL    H9627360   3.311   3.235   1.562 -0.1570  1.6954  0.4641
  193MOL    H9727361   3.291   3.398   1.497  3.1259  0.2134  2.3385
  193MOL    H9827362   3.219   3.261   1.269  0.3005  0.4194 -0.0394
  193MOL    H9927363   3.111   3.279   1.390  0.1918  3.9382 -2.6178
  193MOL   C10027364   3.060   3.059   1.339 -0.2594 -0.0864 -0.2562
  193MOL   C10127365   3.036   2.908   1.337 -0.1700  0.0504 -0.5867
  193MOL   O10227366   3.079   2.845   1.215  0.3514 -0.1739 -0.3260
  193MOL   H10327367   2.987   3.099   1.409  0.8596 -1.6369  1.8422
  193MOL   H10427368   3.043   3.103   1.240 -1.1038 -1.0772 -0.5594
  193MOL   H10527369   2.934   2.879   1.360 -0.6026  1.1574 -1.0627
  193MOL   H10627370   3.092   2.865   1.419  1.5459  1.3365 -1.0482
  193MOL   C10727371   3.056   2.706   1.201 -0.3886 -0.0464 -0.5971
  193MOL   C10827372   3.114   2.652   1.073 -0.1632 -0.1804 -0.2056
  193MOL   O10927373   3.254   2.628   1.096 -0.3121  0.1388  0.2793
  193MOL   H11027374   3.109   2.654   1.281  1.1536  0.6225 -1.1691
  193MOL   H11127375   2.949   2.686   1.204 -0.4684  0.6180  2.2729
  193MOL   H11227376   3.098   2.715   0.985  0.2732 -1.3091 -1.0974
  193MOL   H11327377   3.072   2.554   1.052  0.6755 -0.5836 -0.0019
  193MOL   C11427378   3.327   2.598   0.977 -0.1136  0.7559 -0.4077
  193MOL   C11527379   3.480   2.590   1.018  0.1391  0.3709 -0.1919
  193MOL   O11627380   3.514   2.471   1.090 -0.2607  1.6074 -0.0609
  193MOL   H11727381   3.307   2.497   0.942  1.0455  0.1017  0.7809
  193MOL   H11827382   3.310   2.670   0.897 -1.8727  1.3597  0.4896
  193MOL   H11927383   3.516   2.672   1.080  3.9357  0.1186 -1.9355
  193MOL   H12027384   3.540   2.582   0.927  0.9526  0.5992  0.3204
  193MOL   C12127385   3.657   2.466   1.105 -0.0588 -0.8793  0.5096
  193MOL   C12227386   3.718   2.327   1.162 -0.1634 -0.4284  0.4391
  193MOL   O12327387   3.683   2.306   1.297 -0.6792  0.2932  0.0843
  193MOL   H12427388   3.702   2.479   1.007  1.0615 -0.5712  1.0591
  193MOL   H12527389   3.688   2.546   1.172  1.2233 -0.2776 -0.7859
  193MOL   H12627390   3.827   2.326   1.157 -0.0708  0.1176  2.0099
  193MOL   H12727391   3.673   2.245   1.105 -0.7187 -0.6444  1.1696
  193MOL   C12827392   3.706   2.181   1.364 -0.1548 -0.1259  0.8534
  193MOL   C12927393   3.853   2.158   1.398 -0.3917 -0.3143  0.4001
  193MOL   O13027394   3.916   2.240   1.494 -0.6879 -0.9550 -0.5285
  193MOL   H13127395   3.641   2.183   1.451 -0.0530  1.6253  0.8974
  193MOL   H13227396   3.666   2.101   1.301  1.1751  0.3318 -0.6168
  193MOL   H13327397   3.909   2.156   1.305 -2.0289 -0.5741 -0.5921
  193MOL   H13427398   3.862   2.056   1.435 -0.8600 -0.7713 -0.7473
  193MOL   C13527399   3.945   2.375   1.460  0.2716 -0.2625  0.4515
  193MOL   C13627400   4.056   2.416   1.567  0.1101 -0.4911 -0.0478
  193MOL   O13727401   4.185   2.368   1.534 -0.5297 -0.1848 -0.6430
  193MOL   H13827402   3.988   2.382   1.360 -1.4058  0.2932 -0.2521
  193MOL   H13927403   3.867   2.450   1.471  1.8462  1.3214  1.1951
  193MOL   H14027404   4.028   2.383   1.667 -0.8806 -1.2754 -0.5818
  193MOL   H14127405   4.074   2.523   1.555  1.7772 -0.7313  0.0628
  193MOL   H14227406   4.189   2.274   1.534 -0.1374 -0.1670 -0.9422
  194MOL     C127407   1.587   5.590   6.733 -0.5722  0.0537  0.1017
  194MOL     C227408   1.658   5.462   6.688  0.1297  0.4025  0.2115
  194MOL     O327409   1.709   5.473   6.563  0.5776 -0.4626  0.3341
  194MOL     H427410   1.524   5.574   6.821  0.2128 -0.6526  0.5485
  194MOL     H527411   1.527   5.637   6.655 -2.3858 -0.8800  0.9119
  194MOL     H627412   1.587   5.380   6.691 -1.1924  1.5099 -0.1459
  194MOL     H727413   1.732   5.434   6.763  2.3187  2.7653 -0.9837
  194MOL     H827414   1.674   5.653   6.750 -1.0419  1.2419 -1.7523
  194MOL     C927415   1.785   5.355   6.528 -0.1615  0.2529 -0.1495
  194MOL    C1027416   1.866   5.363   6.399  0.5666  0.2104 -0.4219
  194MOL    O1127417   1.983   5.441   6.420  0.0809  0.3837 -0.6674
  194MOL    H1227418   1.853   5.327   6.608  0.7251 -2.2493 -1.7228
  194MOL    H1327419   1.711   5.277   6.512 -1.1981  0.8519  1.6042
  194MOL    H1427420   1.806   5.405   6.318  2.0945  1.6822 -0.8028
  194MOL    H1527421   1.899   5.266   6.362 -0.0567 -0.2910  0.2959
  194MOL    C1627422   1.960   5.582   6.407  0.2427 -0.7459  0.2655
  194MOL    C1727423   2.088   5.658   6.450 -0.1329 -0.2883 -0.0554
  194MOL    O1827424   2.113   5.666   6.587  0.4387  0.3167  0.2864
  194MOL    H1927425   1.931   5.609   6.306 -0.7495 -0.4442  0.6284
  194MOL    H2027426   1.881   5.616   6.475 -0.5438 -0.6545 -0.6804
  194MOL    H2127427   2.079   5.762   6.417 -1.9252  0.1432  1.7535
  194MOL    H2227428   2.174   5.612   6.401 -2.2805 -1.4370 -2.8376
  194MOL    C2327429   2.156   5.545   6.649  0.3284 -0.1323  0.2400
  194MOL    C2427430   2.233   5.573   6.776 -0.4301 -0.1030 -0.7903
  194MOL    O2527431   2.156   5.556   6.892 -0.1646  0.5459 -0.1009
  194MOL    H2627432   2.064   5.494   6.676  0.7165 -0.2872  1.2789
  194MOL    H2727433   2.209   5.473   6.587 -0.3500 -0.6060  0.2033
  194MOL    H2827434   2.288   5.667   6.771 -0.2599 -0.2518 -1.8262
  194MOL    H2927435   2.313   5.500   6.788 -1.0193 -0.3033  2.1119
  194MOL    C3027436   2.070   5.661   6.931 -0.1020 -0.0814  0.4274
  194MOL    C3127437   2.005   5.592   7.055  0.3743 -0.1682  0.1091
  194MOL    O3227438   1.876   5.647   7.085  0.2109  0.1256 -0.6821
  194MOL    H3327439   2.121   5.751   6.965  3.6151 -2.0685  0.3673
  194MOL    H3427440   2.007   5.674   6.843  2.1520  3.0917 -0.8250
  194MOL    H3527441   2.064   5.600   7.146 -0.2120  2.1619  0.3243
  194MOL    H3627442   1.988   5.485   7.037  2.2118 -0.5433  0.5210
  194MOL    C3727443   1.864   5.732   7.195  0.6275 -0.1433  0.7186
  194MOL    C3827444   1.712   5.733   7.234 -0.7563  0.2112  0.3198
  194MOL    O3927445   1.641   5.844   7.182 -0.3418 -0.2827  0.1460
  194MOL    H4027446   1.913   5.688   7.281  0.9860  1.1529  1.1867
  194MOL    H4127447   1.905   5.829   7.168 -2.0098  0.6899 -0.4971
  194MOL    H4227448   1.696   5.734   7.341 -2.0148 -1.4553  0.1654
  194MOL    H4327449   1.665   5.646   7.188 -2.4232  2.5032 -2.5512
  194MOL    C4427450   1.613   5.853   7.041 -0.2342  0.4508  0.6242
  194MOL    C4527451   1.573   6.001   7.005 -0.3484  0.8662  0.2899
  194MOL    O4627452   1.442   6.037   7.057  0.2313  0.0926  0.1463
  194MOL    H4727453   1.698   5.831   6.977 -0.9385  1.5178 -0.7077
  194MOL    H4827454   1.539   5.782   7.006 -0.1372  0.6870 -0.0651
  194MOL    H4927455   1.558   6.001   6.897 -0.4958 -1.1928  0.2901
  194MOL    H5027456   1.654   6.067   7.036 -0.4348  1.6621 -1.1426
  194MOL    C5127457   1.392   6.155   7.001  0.7313 -0.3479  0.2654
  194MOL    C5227458   1.263   6.203   7.078 -0.8059  0.3550 -0.2891
  194MOL    O5327459   1.152   6.122   7.032  0.0970  0.2571 -0.2348
  194MOL    H5427460   1.460   6.240   7.005  1.0932 -0.5698 -1.1051
  194MOL    H5527461   1.374   6.145   6.894 -0.2779  2.0166  0.1805
  194MOL    H5627462   1.254   6.311   7.072 -0.8865  0.2852 -1.5818
  194MOL    H5727463   1.277   6.188   7.185  1.6421  1.9252 -0.3525
  194MOL    C5827464   1.048   6.117   7.128  0.1498 -0.0276  0.0832
  194MOL    C5927465   0.921   6.083   7.045  0.4624 -0.6613 -0.5010
  194MOL    O6027466   0.799   6.113   7.110 -0.4768 -0.1062 -0.2165
  194MOL    H6127467   1.056   6.043   7.208 -2.6795 -0.7814 -0.2750
  194MOL    H6227468   1.040   6.218   7.168  0.4269  0.5768 -1.3773
  194MOL    H6327469   0.923   5.975   7.029  1.4439 -0.6090 -0.8076
  194MOL    H6427470   0.928   6.130   6.947 -1.2080  2.2526  0.7209
  194MOL    C6527471   0.777   6.055   7.238 -0.2679 -0.4830 -0.2555
  194MOL    C6627472   0.736   5.907   7.217 -0.3153 -0.1943 -0.0037
  194MOL    O6727473   0.848   5.818   7.232  0.3632  0.0096  0.5430
  194MOL    H6827474   0.843   6.078   7.321 -1.4655  3.2813 -0.2601
  194MOL    H6927475   0.686   6.101   7.276 -0.8910 -1.0198 -1.0752
  194MOL    H7027476   0.673   5.875   7.133 -1.8300  1.5314  0.4576
  194MOL    H7127477   0.664   5.880   7.295 -0.3557 -2.1093 -0.6608
  194MOL    C7227478   0.807   5.684   7.227 -0.2859 -0.1424  0.1880
  194MOL    C7327479   0.915   5.578   7.249  0.4110 -0.6110 -0.2427
  194MOL    O7427480   0.998   5.595   7.140  0.0323  0.8397 -0.4361
  194MOL    H7527481   0.741   5.673   7.313  0.1810 -0.8023  0.4685
  194MOL    H7627482   0.748   5.664   7.138  0.6067  0.1558 -0.4817
  194MOL    H7727483   0.863   5.483   7.244  0.4546 -0.7245  1.0707
  194MOL    H7827484   0.961   5.600   7.346  1.0760  2.9913 -1.3255
  194MOL    C7927485   1.107   5.686   7.168 -0.2077  1.3154  0.6013
  194MOL    C8027486   1.236   5.650   7.089 -0.1182 -0.4894 -0.1667
  194MOL    O8127487   1.297   5.538   7.157 -0.3997 -0.0849  0.2571
  194MOL    H8227488   1.083   5.786   7.130 -1.4680  1.1169  0.8737
  194MOL    H8327489   1.137   5.701   7.271  0.7290  2.3577  0.1937
  194MOL    H8427490   1.295   5.741   7.093  0.1246 -0.6549  0.0034
  194MOL    H8527491   1.204   5.630   6.986  0.8569 -0.2029 -0.5312
  194MOL    C8627492   1.409   5.498   7.096  0.2595  0.1555  0.3621
  194MOL    C8727493   1.465   5.368   7.169  0.4493 -0.1632  0.0879
  194MOL    O8827494   1.540   5.398   7.288  0.3466 -0.0164 -0.3896
  194MOL    H8927495   1.384   5.473   6.992  3.2511 -0.7100 -0.2102
  194MOL    H9027496   1.486   5.574   7.081 -0.0460  0.1258 -1.5125
  194MOL    H9127497   1.525   5.306   7.103  2.0199  0.8438  0.5237
  194MOL    H9227498   1.378   5.304   7.185 -1.1042  1.6232 -0.9075
  194MOL    C9327499   1.462   5.402   7.407  0.4132 -0.1353  0.2656
  194MOL    C9427500   1.545   5.387   7.534 -0.3806 -0.2878  0.4704
  194MOL    O9527501   1.607   5.509   7.554 -1.0134  0.7177  0.1103
  194MOL    H9627502   1.423   5.503   7.406  0.5410 -0.0860 -0.6889
  194MOL    H9727503   1.382   5.328   7.402 -1.2266  1.5749  0.6551
  194MOL    H9827504   1.613   5.305   7.511 -1.3612  0.5147 -6.3377
  194MOL    H9927505   1.494   5.347   7.623 -1.2799 -2.1998 -0.8773
  194MOL   C10027506   1.708   5.504   7.651 -0.4032  0.6038  0.1182
  194MOL   C10127507   1.755   5.646   7.682  0.4723 -0.0215  0.0135
  194MOL   O10227508   1.684   5.701   0.030 -0.4656 -0.2253 -0.2215
  194MOL   H10327509   1.675   5.461   7.746  1.4770  1.1385  1.0376
  194MOL   H10427510   1.788   5.442   7.611 -0.9318 -0.1778  0.2642
  194MOL   H10527511   1.757   5.713   7.596  1.6012 -0.1355 -0.0630
  194MOL   H10627512   1.855   5.632   7.723 -0.0221  0.6247  1.4696
  194MOL   C10727513   1.746   5.818   0.088  0.0499 -0.4507 -0.6742
  194MOL   C10827514   1.688   5.864   0.222 -0.2284 -0.0022  0.1569
  194MOL   O10927515   1.698   5.759   0.326  0.2261 -0.3340  0.4031
  194MOL   H11027516   1.854   5.806   0.096  0.0698  0.6871  1.1103
  194MOL   H11127517   1.735   5.896   0.013 -0.3456  1.1151  0.9678
  194MOL   H11227518   1.586   5.900   0.206 -0.0606 -0.3292 -1.7852
  194MOL   H11327519   1.739   5.955   0.253 -0.5215 -0.5435  2.3017
  194MOL   C11427520   1.651   5.807   0.449  0.1710 -0.0235 -0.5215
  194MOL   C11527521   1.630   5.689   0.542 -0.6742 -0.2161 -0.2343
  194MOL   O11627522   1.722   5.693   0.651  0.4494  0.4236  0.6846
  194MOL   H11727523   1.711   5.886   0.494  0.0113 -0.5593  0.6534
  194MOL   H11827524   1.557   5.855   0.422  0.9677  0.9391 -1.5997
  194MOL   H11927525   1.643   5.597   0.484  2.5537  0.7885 -1.2702
  194MOL   H12027526   1.526   5.690   0.573 -0.7693 -0.7363 -0.5380
  194MOL   C12127527   1.857   5.676   0.612 -0.3735 -0.6614  0.6393
  194MOL   C12227528   1.923   5.673   0.748  0.5421 -0.2873  0.3795
  194MOL   O12327529   1.923   5.810   0.802 -0.0979  0.0633  0.6080
  194MOL   H12427530   1.870   5.587   0.551  0.7686  0.1007 -0.2390
  194MOL   H12527531   1.885   5.769   0.563 -0.5613 -0.5653  0.7130
  194MOL   H12627532   2.024   5.643   0.721 -0.1803 -0.5740 -2.1506
  194MOL   H12727533   1.886   5.591   0.810 -0.1682 -0.1346  0.1647
  194MOL   C12827534   1.950   5.828   0.941  0.2461  0.5826 -0.1572
  194MOL   C12927535   1.900   5.962   0.984  0.1761 -0.0738  0.3322
  194MOL   O13027536   1.994   6.067   0.956 -0.2954 -0.5997 -0.0487
  194MOL   H13127537   1.890   5.760   1.001  1.5910  1.8235  2.7034
  194MOL   H13227538   2.054   5.808   0.969 -0.4921 -1.3497  1.3575
  194MOL   H13327539   1.880   5.970   1.091 -1.8256  2.6891 -0.1921
  194MOL   H13427540   1.804   5.985   0.937 -0.5602  1.7264  2.6204
  194MOL   C13527541   2.008   6.115   0.824 -0.3547  0.3936 -0.5533
  194MOL   C13627542   2.133   6.205   0.826 -0.4086  0.1983 -0.0028
  194MOL   O13727543   2.235   6.122   0.874 -0.0065 -0.1271  0.3065
  194MOL   H13827544   2.027   6.029   0.760 -1.6462  0.6199 -1.2452
  194MOL   H13927545   1.924   6.172   0.786 -1.6608 -0.1875  1.4109
  194MOL   H14027546   2.115   6.284   0.898  0.6043 -0.7389  1.3141
  194MOL   H14127547   2.159   6.244   0.728  0.1378 -3.5780 -1.4419
  194MOL   H14227548   2.199   6.087   0.954 -1.4172  0.3446 -0.1007
  195MOL     C127549   0.108   0.900   5.286 -0.0565 -0.0875 -0.3792
  195MOL     C227550   0.231   0.962   5.355 -0.3959  0.6879 -0.7066
  195MOL     O327551   0.347   0.878   5.366 -0.1196  0.5594 -0.3215
  195MOL     H427552   0.076   0.805   5.330  1.3184 -0.3841  0.0214
  195MOL     H527553   0.124   0.857   5.187 -0.8599 -1.3805  0.0476
  195MOL     H627554   0.194   0.978   5.456 -1.3859 -1.4583 -0.6907
  195MOL     H727555   0.259   1.062   5.321 -0.5668  0.9270 -0.1418
  195MOL     H827556   0.021   0.965   5.283  1.6225  2.2021 -0.3490
  195MOL     C927557   0.455   0.944   5.428  0.3633 -0.3541 -0.3921
  195MOL    C1027558   0.579   0.863   5.430  0.1727 -0.5533 -0.7185
  195MOL    O1127559   0.631   0.836   5.303 -0.1333 -0.1648  0.5402
  195MOL    H1227560   0.466   1.040   5.377  2.5412  1.5077  3.3818
  195MOL    H1327561   0.417   0.966   5.527  0.4112 -0.8316 -0.2683
  195MOL    H1427562   0.579   0.774   5.493 -1.1566 -1.0027 -1.3444
  195MOL    H1527563   0.652   0.928   5.479  1.0884 -1.4505 -0.8727
  195MOL    C1627564   0.764   0.781   5.293 -0.0483 -0.0164  0.1492
  195MOL    C1727565   0.841   0.820   5.164  0.3736  0.0841  0.4540
  195MOL    O1827566   0.781   0.746   5.058  0.0244 -0.1340 -0.1790
  195MOL    H1927567   0.826   0.809   5.378  3.2525 -0.7255 -1.9256
  195MOL    H2027568   0.754   0.672   5.295  1.7702 -0.1794  2.0304
  195MOL    H2127569   0.944   0.788   5.177 -0.1785 -1.7120  0.5260
  195MOL    H2227570   0.833   0.929   5.166 -1.2604 -0.0227  0.1842
  195MOL    C2327571   0.668   0.808   4.988  0.4774 -0.0957 -0.1826
  195MOL    C2427572   0.623   0.709   4.884  0.3826  0.3643  0.6943
  195MOL    O2527573   0.717   0.720   4.778  0.2801 -0.3035 -0.5058
  195MOL    H2627574   0.585   0.847   5.048  1.0479  0.5549  0.2036
  195MOL    H2727575   0.706   0.897   4.937 -2.0839 -0.2833 -2.5114
  195MOL    H2827576   0.521   0.738   4.859  0.6196 -0.5935 -1.4984
  195MOL    H2927577   0.614   0.610   4.929 -1.0734  0.6875  1.1576
  195MOL    C3027578   0.655   0.674   4.659  0.6372  0.3578  0.0690
  195MOL    C3127579   0.754   0.685   4.535  0.2655 -0.3199 -0.5830
  195MOL    O3227580   0.764   0.817   4.479 -0.3003  0.2786 -0.1482
  195MOL    H3327581   0.627   0.570   4.671 -0.3476  0.6889  0.7013
  195MOL    H3427582   0.568   0.739   4.645  0.1898  0.4249  2.9953
  195MOL    H3527583   0.722   0.606   4.467  0.4456 -1.0348  0.1492
  195MOL    H3627584   0.849   0.649   4.575  0.4699 -0.3540 -1.1036
  195MOL    C3727585   0.751   0.825   4.337  1.0200 -0.2539  0.0645
  195MOL    C3827586   0.605   0.848   4.289  0.0729 -0.3094  0.6749
  195MOL    O3927587   0.535   0.722   4.311 -0.0728 -0.3976 -0.3123
  195MOL    H4027588   0.801   0.917   4.308 -0.6821  0.4161 -0.7936
  195MOL    H4127589   0.798   0.742   4.285  0.9245 -1.1142  1.3232
  195MOL    H4227590   0.604   0.874   4.183 -1.0963 -0.2986  0.6804
  195MOL    H4327591   0.556   0.924   4.350 -2.0934 -1.8368  0.9049
  195MOL    C4427592   0.435   0.702   4.218 -0.0210 -0.1753 -0.1660
  195MOL    C4527593   0.492   0.628   4.100 -0.1414  0.0832 -0.6701
  195MOL    O4627594   0.542   0.722   4.006  0.4802 -0.0989 -0.1465
  195MOL    H4727595   0.379   0.624   4.270  1.8056 -0.8839  0.7990
  195MOL    H4827596   0.384   0.795   4.191 -0.8903 -0.6684 -0.2593
  195MOL    H4927597   0.412   0.561   4.069  1.3886 -1.7293 -0.8550
  195MOL    H5027598   0.570   0.568   4.147 -0.5730 -0.1184 -0.2064
  195MOL    C5127599   0.564   0.652   3.889  1.1450  0.0566 -0.3865
  195MOL    C5227600   0.599   0.755   3.781 -0.9317 -0.0184 -0.7931
  195MOL    O5327601   0.736   0.787   3.772 -0.4924 -0.5498 -0.3186
  195MOL    H5427602   0.635   0.569   3.898  0.6670 -0.3346 -0.1733
  195MOL    H5527603   0.468   0.604   3.868  1.4490 -0.1923 -1.2208
  195MOL    H5627604   0.545   0.843   3.818 -1.1483 -0.9330  1.1265
  195MOL    H5727605   0.561   0.738   3.681 -1.6395 -2.1214 -0.1881
  195MOL    C5827606   0.776   0.906   3.699 -0.0680  0.3229  0.4513
  195MOL    C5927607   0.911   0.955   3.735  0.6674  0.1595 -0.3357
  195MOL    O6027608   1.006   0.856   3.683 -0.9082 -0.0312  0.3016
  195MOL    H6127609   0.765   0.895   3.591 -2.9541  0.1812  0.7212
  195MOL    H6227610   0.707   0.985   3.727  0.0774 -0.3940  3.0218
  195MOL    H6327611   0.921   0.968   3.842 -2.1056  0.2095 -0.0376
  195MOL    H6427612   0.928   1.056   3.698  0.2460  0.9297  1.5272
  195MOL    C6527613   1.137   0.891   3.706  0.1400  0.1414 -0.2179
  195MOL    C6627614   1.180   1.026   3.643  0.4914  0.0803  0.0297
  195MOL    O6727615   1.165   1.139   3.729  0.2522  0.3072  0.0866
  195MOL    H6827616   1.155   0.894   3.813 -1.1656 -2.7237  0.1149
  195MOL    H6927617   1.193   0.805   3.670 -2.3009 -2.2029  1.4767
  195MOL    H7027618   1.130   1.044   3.547 -0.7010 -3.4821 -0.0681
  195MOL    H7127619   1.285   1.026   3.615  0.7394 -2.4305  0.9035
  195MOL    C7227620   1.145   1.255   3.647 -0.6334 -0.1430 -0.1547
  195MOL    C7327621   1.144   1.384   3.732 -0.5694  0.0653 -0.3372
  195MOL    O7427622   1.026   1.385   3.819 -0.7329  0.3331 -0.1207
  195MOL    H7527623   1.221   1.266   3.570  1.1733 -0.5640  1.5385
  195MOL    H7627624   1.055   1.233   3.590  0.3878  0.0523 -1.8607
  195MOL    H7727625   1.138   1.467   3.662  0.4593  0.0318 -0.4676
  195MOL    H7827626   1.236   1.402   3.788 -0.1629 -2.8789  0.0153
  195MOL    C7927627   1.042   1.320   3.941  0.7811 -0.1193 -0.0624
  195MOL    C8027628   0.937   1.371   4.044 -0.1096  0.1587 -0.7716
  195MOL    O8127629   0.966   1.327   4.175  0.2727  0.4505 -0.6756
  195MOL    H8227630   1.031   1.214   3.916  0.5344 -0.0054 -0.4349
  195MOL    H8327631   1.139   1.331   3.990  0.0270  0.3301  1.3614
  195MOL    H8427632   0.842   1.326   4.017 -0.4315  0.1442  0.3642
  195MOL    H8527633   0.936   1.480   4.046 -2.1857  0.1532 -0.4233
  195MOL    C8627634   0.973   1.179   4.199 -0.5806 -0.4689 -0.0593
  195MOL    C8727635   0.977   1.148   4.346  0.0530  0.3928 -0.2180
  195MOL    O8827636   0.850   1.168   4.398  0.2691  0.0091 -0.0778
  195MOL    H8927637   0.887   1.134   4.151 -1.2207  1.0870 -0.4024
  195MOL    H9027638   1.063   1.138   4.154  0.6179 -0.4410  2.1985
  195MOL    H9127639   1.044   1.216   4.399  0.0097 -0.1702  0.5661
  195MOL    H9227640   1.013   1.046   4.361  0.5186  0.7690  1.3460
  195MOL    C9327641   0.845   1.146   4.537 -0.3928 -0.5540  0.2155
  195MOL    C9427642   0.707   1.165   4.582  0.2855 -0.5534  0.0563
  195MOL    O9527643   0.665   1.300   4.568 -0.6278  0.2872  0.4322
  195MOL    H9627644   0.878   1.043   4.554 -1.9149 -1.2178 -0.7578
  195MOL    H9727645   0.923   1.205   4.585 -1.8306  0.8189  0.8985
  195MOL    H9827646   0.686   1.129   4.683 -1.0316  1.3029  0.4720
  195MOL    H9927647   0.645   1.101   4.519  0.1944 -0.4699  0.0620
  195MOL   C10027648   0.522   1.313   4.574  0.0596 -0.1137  0.4090
  195MOL   C10127649   0.476   1.458   4.535  0.2060  0.1654 -0.1437
  195MOL   O10227650   0.443   1.464   4.394  0.3055 -0.0939  0.3307
  195MOL   H10327651   0.466   1.233   4.526 -0.7498  0.7900 -0.1611
  195MOL   H10427652   0.505   1.301   4.681 -0.0169  2.3178  0.6952
  195MOL   H10527653   0.552   1.530   4.564 -0.6124  0.5337  1.1265
  195MOL   H10627654   0.379   1.477   4.581  0.0899 -2.6169  0.8942
  195MOL   C10727655   0.550   1.436   4.307  0.1047  0.3324  0.3491
  195MOL   C10827656   0.659   1.546   4.307  0.2931 -0.0162  0.0381
  195MOL   O10927657   0.601   1.676   4.289  0.6125  0.2066 -0.0593
  195MOL   H11027658   0.598   1.338   4.318  0.8804  0.0622 -4.3528
  195MOL   H11127659   0.509   1.427   4.206  0.4519  0.2128  0.2174
  195MOL   H11227660   0.727   1.531   4.224  1.3788  1.6426  0.5846
  195MOL   H11327661   0.714   1.542   4.402 -1.7146 -0.9239  1.1970
  195MOL   C11427662   0.693   1.777   4.249  0.1096 -0.2005  0.4747
  195MOL   C11527663   0.651   1.918   4.286 -0.1341 -0.0670 -0.7267
  195MOL   O11627664   0.752   2.005   4.252 -0.0221  0.2851  0.3281
  195MOL   H11727665   0.781   1.759   4.310 -0.4609 -2.9829  0.5400
  195MOL   H11827666   0.723   1.781   4.144 -2.6053  4.5015 -0.2792
  195MOL   H11927667   0.611   1.930   4.387 -1.2252  0.0130 -1.1593
  195MOL   H12027668   0.561   1.941   4.230 -1.5372  1.4553  2.0272
  195MOL   C12127669   0.711   2.143   4.269 -0.3144 -0.2681 -0.0865
  195MOL   C12227670   0.829   2.241   4.237 -0.5303  0.3024  0.4703
  195MOL   O12327671   0.863   2.214   4.102  0.0096  0.1944 -0.5410
  195MOL   H12427672   0.627   2.165   4.202 -0.8980 -1.0744  0.3759
  195MOL   H12527673   0.668   2.159   4.367 -1.9581 -1.1833 -0.6372
  195MOL   H12627674   0.907   2.223   4.311  1.0648 -1.0206 -1.4679
  195MOL   H12727675   0.801   2.346   4.248 -1.6571  0.2779 -1.8727
  195MOL   C12827676   0.978   2.281   4.061  0.8046  0.0789  0.1737
  195MOL   C12927677   1.000   2.247   3.917 -0.3803  0.6697 -0.3605
  195MOL   O13027678   1.114   2.153   3.907  0.5000  0.3833  0.0254
  195MOL   H13127679   0.956   2.388   4.061  0.4137  0.0012 -0.3862
  195MOL   H13227680   1.061   2.255   4.127  0.6186 -0.9470  0.0141
  195MOL   H13327681   1.042   2.330   3.859  1.5895 -0.5880 -0.7787
  195MOL   H13427682   0.903   2.217   3.878 -0.4441 -0.1985  0.4522
  195MOL   C13527683   1.163   2.133   3.770  0.2268 -0.3735 -0.7113
  195MOL   C13627684   1.266   2.015   3.773  0.2052 -0.4487 -0.0447
  195MOL   O13727685   1.368   2.051   3.864 -0.0864  0.5725 -0.3819
  195MOL   H13827686   1.095   2.109   3.688 -0.1867  0.2924 -0.5692
  195MOL   H13927687   1.205   2.226   3.732 -1.1629  0.4121 -0.3644
  195MOL   H14027688   1.308   1.996   3.674  0.0964  1.8953 -0.5739
  195MOL   H14127689   1.233   1.918   3.809 -0.6861 -0.5686 -1.1800
  195MOL   H14227690   1.348   2.027   3.953  3.1686  0.3685  0.3648
  196MOL     C127691   4.244   6.573   1.996  0.3941 -0.0078 -0.1647
  196MOL     C227692   4.121   6.671   1.985  0.1582 -0.1277  0.9698
  196MOL     O327693   4.152   6.803   1.940 -0.1591  0.9562 -1.1014
  196MOL     H427694   4.288   6.549   1.899  3.4464 -0.4962  1.2693
  196MOL     H527695   4.219   6.480   2.047  0.7004  0.6488  1.1985
  196MOL     H627696   4.073   6.678   2.083 -3.3649 -0.2806 -0.6810
  196MOL     H727697   4.046   6.643   1.912 -0.2940  2.8362  0.2483
  196MOL     H827698   4.328   6.611   2.054 -0.1361  1.6038 -0.4315
  196MOL     C927699   4.168   6.817   1.797  0.0492  0.7534  0.3261
  196MOL    C1027700   4.201   6.964   1.768  0.0380  0.0506 -0.9858
  196MOL    O1127701   4.339   6.983   1.791  0.2891  0.1536 -0.4775
  196MOL    H1227702   4.259   6.768   1.762 -0.7176 -1.3107  1.1138
  196MOL    H1327703   4.087   6.779   1.734  2.1494  1.1851 -2.7634
  196MOL    H1427704   4.138   7.034   1.822  1.0343  0.8595 -0.8502
  196MOL    H1527705   4.172   6.979   1.664 -0.6772  1.8905 -0.5470
  196MOL    C1627706   4.384   7.114   1.764  0.6498 -0.5731  0.6816
  196MOL    C1727707   4.535   7.103   1.794 -0.7330 -0.0940  0.1269
  196MOL    O1827708   4.618   7.204   1.733  0.4118  0.0815 -0.4329
  196MOL    H1927709   4.380   7.123   1.655 -0.8879 -0.4661  0.7427
  196MOL    H2027710   4.340   7.201   1.813  1.8478  0.3361  0.1837
  196MOL    H2127711   4.576   7.002   1.790 -0.1142  0.1760 -0.4084
  196MOL    H2227712   4.553   7.120   1.900 -1.5075  1.8893 -0.0533
  196MOL    C2327713   4.728   7.153   1.653  0.1207  0.1649 -0.4393
  196MOL    C2427714   4.666   7.095   1.523 -0.2349 -1.1410  0.1831
  196MOL    O2527715   4.585   6.977   1.540  0.1070  0.1087  0.1168
  196MOL    H2627716   4.797   7.230   1.620  3.0113 -1.6536  1.2213
  196MOL    H2727717   4.786   7.081   1.710  0.4185 -0.3683 -1.4136
  196MOL    H2827718   4.739   7.088   1.442 -0.6163  0.7240 -0.3595
  196MOL    H2927719   4.594   7.173   1.498  1.2666  0.2730  0.1769
  196MOL    C3027720   4.652   6.843   1.541 -0.1768  0.3384  0.2640
  196MOL    C3127721   4.549   6.728   1.542 -0.2389 -0.1337  0.3499
  196MOL    O3227722   4.503   6.699   1.413 -0.1218 -0.2694 -0.0593
  196MOL    H3327723   4.709   6.837   1.448 -0.1926  1.5500  0.1597
  196MOL    H3427724   4.723   6.828   1.622 -0.3997 -1.3183  0.1621
  196MOL    H3527725   4.460   6.754   1.600  0.1804 -0.2749  1.0641
  196MOL    H3627726   4.597   6.638   1.578 -0.0903 -1.1021 -2.1974
  196MOL    C3727727   4.444   6.579   1.405  0.2475 -0.2560  0.1171
  196MOL    C3827728   4.424   6.537   1.255 -0.5317  0.6910 -0.4681
  196MOL    O3927729   4.543   6.522   1.176 -0.1494 -0.1331 -0.0569
  196MOL    H4027730   4.500   6.498   1.452 -1.3609 -0.8168  1.1534
  196MOL    H4127731   4.340   6.583   1.438 -0.4366  1.5278 -2.1387
  196MOL    H4227732   4.367   6.623   1.217 -0.3935  0.2319 -1.7445
  196MOL    H4327733   4.358   6.451   1.261 -1.7177  1.7275  1.9176
  196MOL    C4427734   4.518   6.507   1.034  0.6420 -0.3294 -0.2458
  196MOL    C4527735   4.648   6.558   0.969  0.1761  0.3658 -0.3038
  196MOL    O4627736   4.647   6.699   0.962  0.0898  0.5138 -0.4403
  196MOL    H4727737   4.491   6.404   1.007  0.6944 -0.8080  1.5116
  196MOL    H4827738   4.436   6.573   1.007  1.3463  1.0690  0.9797
  196MOL    H4927739   4.659   6.507   0.873 -0.1607 -0.5933  0.1696
  196MOL    H5027740   4.729   6.521   1.030  0.5299  0.9605 -0.4102
  196MOL    C5127741   4.702   6.764   1.072  0.4260  0.6851 -0.6934
  196MOL    C5227742   4.730   6.913   1.046  0.2211 -0.5017 -0.6957
  196MOL    O5327743   4.873   6.935   1.016  0.1108  0.3675  0.2842
  196MOL    H5427744   4.634   6.751   1.156  0.7013  0.9864 -0.4228
  196MOL    H5527745   4.797   6.714   1.091 -1.1428 -1.0618  2.9797
  196MOL    H5627746   4.708   6.967   1.138  1.5716 -0.7040 -0.2320
  196MOL    H5727747   4.661   6.961   0.977 -0.6926 -1.9283 -0.7981
  196MOL    C5827748   4.891   6.915   0.876  0.1957  0.4052  0.0296
  196MOL    C5927749   5.048   6.930   0.857  0.5779 -0.2863  0.2964
  196MOL    O6027750   5.075   6.923   0.717  0.5432  0.8114  0.3531
  196MOL    H6127751   4.858   6.814   0.856  0.8417  0.2462 -0.2290
  196MOL    H6227752   4.846   6.995   0.817 -1.1923 -0.9109 -0.7182
  196MOL    H6327753   5.103   6.858   0.917  2.5743 -1.0765 -2.3845
  196MOL    H6427754   5.077   7.024   0.905 -1.8913  0.3186  0.6944
  196MOL    C6527755   5.210   6.950   0.682 -0.1696  0.3114 -1.0858
  196MOL    C6627756   5.221   6.960   0.531 -0.7756 -0.2371  0.2195
  196MOL    O6727757   5.178   7.075   0.467 -0.2224  0.4794 -0.3575
  196MOL    H6827758   5.247   7.045   0.722  1.4388 -0.0353 -1.7238
  196MOL    H6927759   5.274   6.881   0.738  0.8553  0.2661 -2.2820
  196MOL    H7027760   5.169   6.870   0.497  1.2558 -1.5815  0.5885
  196MOL    H7127761   5.326   6.946   0.507 -0.3302  0.3601  1.7524
  196MOL    C7227762   5.166   7.044   0.329 -0.4846 -0.0146  0.6470
  196MOL    C7327763   5.128   7.174   0.256  1.1758  0.4999 -1.0238
  196MOL    O7427764   4.986   7.205   0.270  0.0349 -0.0287  0.0742
  196MOL    H7527765   5.259   7.013   0.282  0.3444  3.4862 -0.1858
  196MOL    H7627766   5.090   6.970   0.305 -0.8905  0.8077 -0.6689
  196MOL    H7727767   5.164   7.156   0.155  0.0676  1.5325 -1.6234
  196MOL    H7827768   5.190   7.254   0.298 -1.7393  1.5389  1.4773
  196MOL    C7927769   4.934   7.220   0.397 -0.3062  0.5840 -0.0039
  196MOL    C8027770   4.864   7.099   0.457  0.5026 -0.1739  0.0718
  196MOL    O8127771   4.744   7.066   0.386  0.3343  0.2179  0.3078
  196MOL    H8227772   5.017   7.249   0.461 -0.6309  0.2533  0.5695
  196MOL    H8327773   4.870   7.307   0.414 -1.3949 -0.5376  1.8565
  196MOL    H8427774   4.835   7.128   0.558 -2.4851 -2.5084 -0.0658
  196MOL    H8527775   4.925   7.009   0.455  0.3016 -0.3486  1.5608
  196MOL    C8627776   4.759   6.978   0.286  0.1150 -0.2696 -0.0919
  196MOL    C8727777   4.618   6.918   0.241  0.0558 -0.4964  0.2243
  196MOL    O8827778   4.522   7.014   0.221  0.4833 -0.4590  0.2493
  196MOL    H8927779   4.805   7.031   0.203  2.0590 -0.9719  0.5147
  196MOL    H9027780   4.828   6.896   0.305 -0.9780 -1.2071 -0.1210
  196MOL    H9127781   4.582   6.848   0.316 -3.3082 -0.2543 -1.0675
  196MOL    H9227782   4.639   6.860   0.151  1.3733  0.2314  0.0552
  196MOL    C9327783   4.390   6.970   0.189  0.0284  0.4908 -0.1841
  196MOL    C9427784   4.360   6.926   0.043 -0.5264 -0.3593  0.2413
  196MOL    O9527785   4.423   6.798   0.034 -0.1996  0.0229  0.8023
  196MOL    H9627786   4.359   6.900   0.266 -0.1076 -0.3685 -1.0186
  196MOL    H9727787   4.331   7.060   0.208  1.8856  1.4768  1.1140
  196MOL    H9827788   4.398   6.998   7.741  0.7873  0.0831  1.3338
  196MOL    H9927789   4.253   6.928   0.022 -0.4550 -0.0259 -0.1111
  196MOL   C10027790   4.438   6.748   7.678  0.5413 -0.6197 -0.1030
  196MOL   C10127791   4.459   6.595   7.674 -0.2399  0.5516 -0.5565
  196MOL   O10227792   4.331   6.531   7.672  0.3987  0.0289  0.1460
  196MOL   H10327793   4.352   6.761   7.612  0.7775  0.8831 -0.1150
  196MOL   H10427794   4.519   6.801   7.628  0.0357  1.4547  1.2391
  196MOL   H10527795   4.519   6.552   7.754  0.6883  0.9764 -1.0073
  196MOL   H10627796   4.509   6.576   7.579  0.7152  1.7764 -0.3171
  196MOL   C10727797   4.324   6.392   7.643  1.1641 -0.8281  0.3888
  196MOL   C10827798   4.368   6.362   7.498  0.3220  0.2833 -1.0331
  196MOL   O10927799   4.507   6.355   7.473  0.8416  0.7310 -0.3909
  196MOL   H11027800   4.377   6.333   7.718  0.9191  0.0077  1.2285
  196MOL   H11127801   4.218   6.367   7.641  0.9321  0.2408 -1.1451
  196MOL   H11227802   4.319   6.440   7.439 -0.0740  1.0099  0.2268
  196MOL   H11327803   4.327   6.264   7.473  2.1705 -1.2369  1.6081
  196MOL   C11427804   4.543   6.354   7.337  0.7380 -0.4515 -0.3792
  196MOL   C11527805   4.515   6.488   7.266  0.7271 -0.0107  0.4992
  196MOL   O11627806   4.592   6.586   7.332 -0.4206  0.0969  0.2225
  196MOL   H11727807   4.650   6.340   7.326  0.6651 -0.2130 -1.4726
  196MOL   H11827808   4.493   6.271   7.287 -0.2818 -0.5919  0.8431
  196MOL   H11927809   4.414   6.522   7.246  0.2489 -1.6338  0.0906
  196MOL   H12027810   4.560   6.473   7.168 -0.8590 -0.9916 -0.0842
  196MOL   C12127811   4.573   6.710   7.265  0.2910  0.2470  0.0168
  196MOL   C12227812   4.689   6.808   7.305  0.8532  0.6853  0.3265
  196MOL   O12327813   4.676   6.862   7.430 -0.3868  0.2368  0.2633
  196MOL   H12427814   4.568   6.701   7.157  3.4261 -0.7745 -0.1060
  196MOL   H12527815   4.481   6.762   7.294  1.0990  1.1944  0.9163
  196MOL   H12627816   4.702   6.891   7.235  0.1873  0.8623  0.4102
  196MOL   H12727817   4.785   6.756   7.304  0.1030 -0.7637  1.2680
  196MOL   C12827818   4.763   6.964   7.459  0.0218 -0.3349 -0.1135
  196MOL   C12927819   4.725   7.024   7.600 -0.2206  0.5562  0.0941
  196MOL   O13027820   4.799   7.142   7.620  0.4597 -0.2151 -0.2129
  196MOL   H13127821   4.865   6.926   7.466  1.3068  2.5338 -2.3175
  196MOL   H13227822   4.750   7.048   7.391  0.7557  0.3979  0.6424
  196MOL   H13327823   4.752   6.951   7.677  0.0215  0.5270 -0.0161
  196MOL   H13427824   4.616   7.035   7.604 -0.4009  0.8021 -3.6884
  196MOL   C13527825   4.803   7.194   7.751  0.0618  0.8560  0.0374
  196MOL   C13627826   4.823   7.345   7.722 -0.0210  0.2042  0.3576
  196MOL   O13727827   4.837   7.408   0.078  0.9447 -0.0417  0.0333
  196MOL   H13827828   4.708   7.172   0.028  0.1132  0.2476 -0.1369
  196MOL   H13927829   4.892   7.153   0.027 -1.2837  0.5156  2.3829
  196MOL   H14027830   4.741   7.391   7.668 -2.3883 -1.5036  2.3830
  196MOL   H14127831   4.914   7.363   7.664 -1.3510 -2.5039 -2.6610
  196MOL   H14227832   4.907   7.374   0.131 -0.0851 -2.7717 -0.2741
  197MOL     C127833   7.533   2.635   5.971  0.3472  0.5974  0.3714
  197MOL     C227834   7.576   2.687   5.838  0.2464 -0.1146  0.3883
  197MOL     O327835   7.543   2.824   5.826  0.0696 -0.3062  0.2771
  197MOL     H427836   7.437   2.584   5.966  0.7992 -0.4692  2.0372
  197MOL     H527837   7.527   2.716   6.044 -0.3828 -0.9514  2.0860
  197MOL     H627838   7.543   2.626   5.754  1.0344  0.0996 -0.0841
  197MOL     H727839   7.685   2.681   5.840  0.1821 -2.2410 -0.7380
  197MOL     H827840   7.608   2.569   6.016  2.0821  0.4239 -2.6037
  197MOL     C927841   7.570   2.892   5.706 -0.6228  0.0546 -0.0492
  197MOL    C1027842   7.720   2.907   5.698 -0.9311 -0.3420  0.0775
  197MOL    O1127843   0.017   2.787   5.651 -0.1372 -0.1216 -0.2121
  197MOL    H1227844   7.527   2.840   5.621  0.5210 -0.2189 -0.4640
  197MOL    H1327845   7.516   2.986   5.722  2.9354  2.1349  0.2665
  197MOL    H1427846   7.762   2.966   5.779 -0.5140 -0.4910 -0.0276
  197MOL    H1527847   7.746   2.970   5.613  1.5435 -2.8203 -1.1020
  197MOL    C1627848   0.158   2.790   5.670  0.0729  1.0248 -0.0385
  197MOL    C1727849   0.208   2.645   5.635  0.0940  0.1459 -0.7411
  197MOL    O1827850   0.185   2.567   5.748  0.2427 -0.2146  0.2760
  197MOL    H1927851   0.203   2.860   5.600 -1.3052  0.0107 -1.9941
  197MOL    H2027852   0.181   2.805   5.776  3.2764  1.5579 -0.7565
  197MOL    H2127853   0.317   2.658   5.634  0.0744  0.7580  2.2649
  197MOL    H2227854   0.165   2.596   5.548 -0.7037 -0.8225  0.1970
  197MOL    C2327855   0.273   2.453   5.767  0.3459 -0.8708 -0.3019
  197MOL    C2427856   0.220   2.350   5.866  0.5262  0.1352 -0.2352
  197MOL    O2527857   0.127   2.263   5.805 -0.3283 -0.1585  0.3646
  197MOL    H2627858   0.297   2.390   5.681  0.2110 -0.8010 -0.3917
  197MOL    H2727859   0.362   2.502   5.806  1.7862 -2.9468 -0.9203
  197MOL    H2827860   0.172   2.387   5.957 -0.4194  0.0300 -0.6804
  197MOL    H2927861   0.297   2.285   5.906  0.7349  0.3747 -0.2467
  197MOL    C3027862   7.769   2.317   5.782  0.5802  0.4469 -0.1498
  197MOL    C3127863   7.664   2.210   5.764  0.3047 -0.5361 -0.1715
  197MOL    O3227864   7.674   2.134   5.640 -0.0210 -0.3108  0.0164
  197MOL    H3327865   7.742   2.382   5.865  0.7871  3.1457 -2.1439
  197MOL    H3427866   0.000   2.377   5.691 -2.0224 -1.8220 -1.7859
  197MOL    H3527867   7.572   2.267   5.756 -0.2862 -1.4016  0.4384
  197MOL    H3627868   7.668   2.151   5.856  0.8817  0.6334  0.5647
  197MOL    C3727869   7.586   2.026   5.635  0.5547 -0.0419 -0.4359
  197MOL    C3827870   7.580   1.959   5.493  0.5332 -0.0544 -0.4859
  197MOL    O3927871   7.696   1.876   5.461 -0.4568  0.3514 -1.2502
  197MOL    H4027872   7.612   1.946   5.704  0.4877  0.2784 -0.0425
  197MOL    H4127873   7.489   2.066   5.663  0.5982  0.5779 -1.1635
  197MOL    H4227874   7.575   2.042   5.422  1.7156 -0.0552 -0.5718
  197MOL    H4327875   7.491   1.896   5.488  1.6374 -1.8037  1.0006
  197MOL    C4427876   7.673   1.767   5.369 -0.2092  0.4404  0.1097
  197MOL    C4527877   7.729   1.824   5.236  0.0714  0.3965 -0.6405
  197MOL    O4627878   7.699   1.733   5.134 -0.0078 -0.0515 -0.0921
  197MOL    H4727879   7.738   1.682   5.390 -1.2478 -0.6668 -1.0490
  197MOL    H4827880   7.570   1.734   5.355  0.0675 -0.7004  0.6755
  197MOL    H4927881   0.065   1.838   5.250  0.1010  0.2734 -0.7482
  197MOL    H5027882   7.677   1.916   5.208 -0.6430  0.4457  0.7845
  197MOL    C5127883   7.735   1.785   5.004 -0.3123 -0.4765 -0.2060
  197MOL    C5227884   0.097   1.726   4.943 -0.2081  0.2755  0.5272
  197MOL    O5327885   0.069   1.596   4.888 -0.5211 -0.4585 -0.6261
  197MOL    H5427886   7.655   1.772   4.932 -1.0428 -1.3076  0.7384
  197MOL    H5527887   7.758   1.892   5.006 -2.5438  0.0153  0.3000
  197MOL    H5627888   0.178   1.735   5.015 -0.6558 -0.2929  1.1167
  197MOL    H5727889   0.129   1.784   4.857  1.9492 -0.0919  1.0408
  197MOL    C5827890   0.189   1.537   4.838 -0.8416  0.1819 -0.1066
  197MOL    C5927891   0.171   1.393   4.813  0.1415  0.2550 -0.0003
  197MOL    O6027892   0.198   1.338   4.941  0.1644  0.1905 -0.0286
  197MOL    H6127893   0.201   1.587   4.742  1.6636  0.3468  0.2519
  197MOL    H6227894   0.275   1.554   4.903 -1.0897  2.4218 -0.3253
  197MOL    H6327895   0.244   1.349   4.745 -1.5747  0.1876 -1.8466
  197MOL    H6427896   0.069   1.377   4.780 -0.5578  2.9370  0.7261
  197MOL    C6527897   0.183   1.194   4.946 -0.3704  0.0854 -0.9714
  197MOL    C6627898   0.300   1.107   4.897  0.5803  0.0345 -1.0598
  197MOL    O6727899   0.320   1.105   4.762  0.1340 -0.7453 -0.4751
  197MOL    H6827900   0.172   1.167   5.051  1.9326 -1.0290 -0.9914
  197MOL    H6927901   0.086   1.168   4.904  0.0485 -3.1820 -0.0517
  197MOL    H7027902   0.326   1.009   4.935 -1.0584 -0.6150 -1.5417
  197MOL    H7127903   0.387   1.158   4.938  0.4142  0.9560 -1.8421
  197MOL    C7227904   0.237   1.015   4.690 -0.1065 -0.6401 -0.4452
  197MOL    C7327905   0.269   1.039   4.539 -0.0409  0.4533 -0.3637
  197MOL    O7427906   0.224   1.174   4.516 -0.1114  0.0470 -0.0972
  197MOL    H7527907   0.263   0.911   4.705 -1.9223 -0.8468  1.6723
  197MOL    H7627908   0.129   1.023   4.707  0.3426  2.3107  1.4309
  197MOL    H7727909   0.212   0.968   4.479  1.7017 -0.3039 -1.1385
  197MOL    H7827910   0.374   1.023   4.514  0.1794  0.2798  0.6156
  197MOL    C7927911   0.222   1.207   4.375  0.1178  0.2237 -0.5278
  197MOL    C8027912   0.155   1.342   4.344  0.5123  0.6442 -0.1686
  197MOL    O8127913   0.013   1.334   4.302  0.8175 -0.8062  0.0154
  197MOL    H8227914   0.327   1.201   4.346  0.6692  1.1526  1.1975
  197MOL    H8327915   0.170   1.132   4.315 -0.1162 -1.1424  1.3361
  197MOL    H8427916   0.207   1.387   4.259 -0.5700  1.5486 -0.3705
  197MOL    H8527917   0.164   1.403   4.434  2.1559  0.0049  0.1310
  197MOL    C8627918   7.711   1.460   4.327 -0.4190  0.1970 -0.0991
  197MOL    C8727919   7.558   1.454   4.287 -0.3533  0.0674 -0.0616
  197MOL    O8827920   7.547   1.473   4.146  0.0430 -0.2900  0.2416
  197MOL    H8927921   7.717   1.479   4.434 -1.1643  2.3899 -0.4281
  197MOL    H9027922   7.763   1.549   4.293  0.5758  0.3294  1.7010
  197MOL    H9127923   7.511   1.544   4.327 -1.4686 -0.4259 -0.2473
  197MOL    H9227924   7.508   1.362   4.316  0.0142 -1.0684 -2.8170
  197MOL    C9327925   7.434   1.395   4.110 -0.2126  0.8363 -0.3834
  197MOL    C9427926   7.425   1.394   3.952  0.4203  0.0866  0.0781
  197MOL    O9527927   7.329   1.486   3.908  0.0510 -0.0752  0.2153
  197MOL    H9627928   7.435   1.293   4.147  1.3628  1.2978  0.8728
  197MOL    H9727929   7.346   1.444   4.153 -0.9095  0.4176 -1.3138
  197MOL    H9827930   7.384   1.301   3.911  1.2626 -0.3516  0.2202
  197MOL    H9927931   7.527   1.422   3.927 -0.5802  3.6887 -0.1585
  197MOL   C10027932   7.298   1.471   3.770 -0.1194 -0.1324 -0.0500
  197MOL   C10127933   7.250   1.606   3.719  0.5437 -0.1763 -0.5077
  197MOL   O10227934   7.120   1.639   3.767  0.9222 -0.3529 -0.2118
  197MOL   H10327935   7.380   1.421   3.718 -0.7298 -2.0349  0.7915
  197MOL   H10427936   7.218   1.399   3.757 -1.0533  0.7582  0.6831
  197MOL   H10527937   7.244   1.604   3.610  2.3002 -1.8533 -0.6085
  197MOL   H10627938   7.322   1.679   3.755 -0.1154  0.8191 -1.1862
  197MOL   C10727939   7.085   1.775   3.728 -0.1621  0.8910 -0.5147
  197MOL   C10827940   6.945   1.806   3.785 -0.8431  0.5835 -0.1906
  197MOL   O10927941   6.836   1.775   3.708 -0.1255  0.3206 -0.3341
  197MOL   H11027942   7.154   1.842   3.780  2.8138 -2.9838  0.7843
  197MOL   H11127943   7.098   1.790   3.620  1.2919  0.0080 -0.4795
  197MOL   H11227944   6.944   1.915   3.790  0.0164  0.5848  0.1071
  197MOL   H11327945   6.932   1.764   3.884 -0.6177  0.3423 -0.2616
  197MOL   C11427946   6.702   1.787   3.760 -0.2706  0.1136  0.3830
  197MOL   C11527947   6.688   1.729   3.908 -0.3880 -0.3689 -0.1486
  197MOL   O11627948   6.725   1.832   4.004  0.1538  0.0828 -0.0776
  197MOL   H11727949   6.663   1.888   3.753  1.9208  0.8408 -1.9216
  197MOL   H11827950   6.650   1.729   3.685 -0.8587  0.6061  0.4095
  197MOL   H11927951   6.753   1.642   3.915 -0.2497 -0.1760  1.0408
  197MOL   H12027952   6.584   1.701   3.920 -1.2986  2.5513 -0.7238
  197MOL   C12127953   6.704   1.803   4.146  0.2829 -0.6834 -0.1936
  197MOL   C12227954   6.582   1.877   4.204  0.9347 -0.2235  0.1121
  197MOL   O12327955   6.460   1.830   4.146  0.4205 -0.1349 -0.0064
  197MOL   H12427956   6.704   1.697   4.171 -3.5675 -0.9696 -1.1120
  197MOL   H12527957   6.792   1.844   4.197 -0.1973 -1.4863  1.2940
  197MOL   H12627958   6.586   1.975   4.156 -1.2665  0.6836  1.7201
  197MOL   H12727959   6.574   1.887   4.312 -2.2003  1.0911 -0.1996
  197MOL   C12827960   6.401   1.722   4.212 -0.1746 -0.3028 -0.2374
  197MOL   C12927961   6.274   1.676   4.145  1.1140  0.5169 -0.1165
  197MOL   O13027962   6.312   1.593   4.035 -0.6890  0.2626 -0.4449
  197MOL   H13127963   6.469   1.637   4.216 -2.0722 -1.7745  3.8417
  197MOL   H13227964   6.377   1.750   4.314  1.2165  1.5341 -0.3986
  197MOL   H13327965   6.228   1.769   4.112  2.2989  1.4964  0.9303
  197MOL   H13427966   6.201   1.624   4.208  0.7847  0.4735 -0.5336
  197MOL   C13527967   6.208   1.571   3.942  0.3382 -0.2048 -0.2121
  197MOL   C13627968   6.266   1.495   3.824 -0.2127 -0.6184 -0.0773
  197MOL   O13727969   6.169   1.476   3.724  0.7034  0.0154  0.3277
  197MOL   H13827970   6.127   1.515   3.989  1.1561  0.2522  1.7884
  197MOL   H13927971   6.176   1.666   3.901  0.1524  0.2397  0.9488
  197MOL   H14027972   6.321   1.402   3.842  1.9718  0.9088  1.4514
  197MOL   H14127973   6.344   1.561   3.788 -2.3299  1.7121 -0.5546
  197MOL   H14227974   6.084   1.458   3.761  1.7145 -3.6550  1.0703
  198MOL     C127975   2.101   2.222   1.339  0.3995  0.2596 -0.4033
  198MOL     C227976   2.225   2.267   1.418  0.0112 -0.1980 -0.2043
  198MOL     O327977   2.313   2.286   1.309 -0.5237  0.0428  0.0230
  198MOL     H427978   2.072   2.287   1.256  0.1622 -0.5441 -0.9547
  198MOL     H527979   2.013   2.212   1.402 -0.3358  0.9515 -1.2920
  198MOL     H627980   2.254   2.199   1.498 -0.1529 -1.1985 -0.9824
  198MOL     H727981   2.219   2.364   1.467 -1.2269 -0.4509  0.1530
  198MOL     H827982   2.115   2.129   1.284  1.0393 -1.2081  2.1886
  198MOL     C927983   2.447   2.325   1.341 -0.5008  0.1314 -0.5335
  198MOL    C1027984   2.524   2.195   1.375 -0.7011 -0.1126 -0.0549
  198MOL    O1127985   2.646   2.235   1.442 -0.7592 -0.2744  0.3483
  198MOL    H1227986   2.485   2.364   1.247  2.6237 -2.0587 -0.2498
  198MOL    H1327987   2.459   2.409   1.410  0.4756  0.2670 -0.8639
  198MOL    H1427988   2.543   2.142   1.282  0.8281  0.8261 -0.2946
  198MOL    H1527989   2.459   2.135   1.439 -0.7135  2.1203  2.1236
  198MOL    C1627990   2.720   2.139   1.512  0.0050  0.0405 -0.0735
  198MOL    C1727991   2.844   2.181   1.585 -0.0571  0.0289 -0.2124
  198MOL    O1827992   2.813   2.190   1.724 -0.0638 -0.2578  0.0499
  198MOL    H1927993   2.659   2.085   1.583  0.6961  1.1326  1.3728
  198MOL    H2027994   2.750   2.068   1.434  1.1928  0.7405 -0.2714
  198MOL    H2127995   2.876   2.279   1.549  1.1086 -0.8423 -1.6241
  198MOL    H2227996   2.926   2.112   1.564  0.1771  0.5445 -1.0337
  198MOL    C2327997   2.911   2.260   1.801  0.1563 -0.5188  0.0291
  198MOL    C2427998   2.864   2.288   1.946  0.0880  1.1428 -0.2102
  198MOL    O2527999   2.889   2.178   2.038 -0.3679 -0.0705  0.2445
  198MOL    H2628000   3.006   2.206   1.801  1.6229  1.9514 -2.4496
  198MOL    H2728001   2.937   2.355   1.756  0.5154 -0.2020  0.8927
  198MOL    H2828002   2.760   2.318   1.934  0.0983  1.6941  0.9405
  198MOL    H2928003   2.912   2.380   1.979 -0.4555  1.6834 -0.9184
  198MOL    C3028004   2.834   2.190   2.167  0.6108 -0.4192 -0.2229
  198MOL    C3128005   2.905   2.289   2.263  0.3223 -0.6199  0.1599
  198MOL    O3228006   2.856   2.275   2.399 -0.0430 -0.0674 -0.0243
  198MOL    H3328007   2.731   2.225   2.164  0.6271 -0.4222 -0.8770
  198MOL    H3428008   2.820   2.094   2.217 -1.0704 -0.2039 -0.2237
  198MOL    H3528009   2.891   2.388   2.220 -1.7659 -0.1793  1.7976
  198MOL    H3628010   3.013   2.290   2.276  0.1803  0.9060  1.4307
  198MOL    C3728011   2.915   2.366   2.483  0.0289  0.0643 -0.6554
  198MOL    C3828012   2.829   2.383   2.612  0.3396 -0.1288  0.0288
  198MOL    O3928013   2.866   2.297   2.723  0.0107 -0.2503  0.0473
  198MOL    H4028014   3.012   2.323   2.508 -0.0182  0.8720  1.0101
  198MOL    H4128015   2.940   2.460   2.435 -1.9769  2.0605  2.0565
  198MOL    H4228016   2.724   2.376   2.584  0.7959  0.0143 -1.7589
  198MOL    H4328017   2.837   2.487   2.642  2.7543  0.3257 -2.0434
  198MOL    C4428018   2.760   2.261   2.820 -0.8607  0.6039 -0.2441
  198MOL    C4528019   2.815   2.194   2.946  0.3531 -0.3007 -0.2424
  198MOL    O4628020   2.879   2.072   2.902  0.3406 -0.5920  0.5298
  198MOL    H4728021   2.719   2.358   2.848 -1.2713 -0.0406  1.4464
  198MOL    H4828022   2.681   2.198   2.778 -0.0812  0.5171 -1.6305
  198MOL    H4928023   2.746   2.174   3.028 -2.5065 -1.4521 -2.8314
  198MOL    H5028024   2.881   2.269   2.992  1.4434 -1.2809 -0.1796
  198MOL    C5128025   2.810   1.951   2.929 -0.0494  0.2609  0.1182
  198MOL    C5228026   2.902   1.831   2.896 -0.0957  0.6630  0.1040
  198MOL    O5328027   2.842   1.729   2.974 -0.1179  0.0937 -0.5841
  198MOL    H5428028   2.803   1.958   3.038  1.2200  0.7666  0.1717
  198MOL    H5528029   2.710   1.946   2.887  0.4308  1.1171 -1.1538
  198MOL    H5628030   3.006   1.853   2.919  0.1764  2.0473 -2.3527
  198MOL    H5728031   2.904   1.810   2.789  0.8920 -1.8305  0.5714
  198MOL    C5828032   2.840   1.603   2.913  0.1084 -0.4748  0.5542
  198MOL    C5928033   2.784   1.492   3.006  0.4231 -0.4761 -0.3449
  198MOL    O6028034   2.889   1.440   3.081 -0.0880 -0.2000 -0.2821
  198MOL    H6128035   2.780   1.598   2.822 -0.3465  0.6944  0.7867
  198MOL    H6228036   2.940   1.574   2.879 -0.1164 -2.7128  1.6983
  198MOL    H6328037   2.736   1.420   2.940  2.3926 -2.1317 -0.0105
  198MOL    H6428038   2.701   1.534   3.063 -0.5722 -0.2466 -1.9047
  198MOL    C6528039   2.850   1.329   3.166  0.0443 -1.1090 -0.1046
  198MOL    C6628040   2.968   1.288   3.251  0.2451 -0.3894  0.5326
  198MOL    O6728041   3.074   1.243   3.161  0.1731 -0.1629 -0.3928
  198MOL    H6828042   2.778   1.373   3.235 -0.8960 -1.7817 -0.6386
  198MOL    H6928043   2.803   1.247   3.111  0.9765 -1.9066  0.2640
  198MOL    H7028044   2.943   1.204   3.316 -0.9459 -0.3422  0.1379
  198MOL    H7128045   2.983   1.382   3.305  0.2916 -0.5593  0.8205
  198MOL    C7228046   3.073   1.103   3.136  0.3681 -0.4191  0.0694
  198MOL    C7328047   3.159   1.054   3.021 -0.2916 -0.4945 -0.1806
  198MOL    O7428048   3.161   0.915   3.021  0.4552 -0.4633  0.4435
  198MOL    H7528049   3.104   1.054   3.229  1.3411 -0.7881 -0.4456
  198MOL    H7628050   2.965   1.087   3.127  0.1244  0.6302  0.9806
  198MOL    H7728051   3.259   1.094   3.042 -0.0004 -1.7104  0.7946
  198MOL    H7828052   3.120   1.100   2.930 -0.5400  0.1002  0.2253
  198MOL    C7928053   3.274   0.864   2.950  0.2350  0.1961 -0.3958
  198MOL    C8028054   3.260   0.707   2.935 -0.9062  0.2044 -0.0684
  198MOL    O8128055   3.370   0.653   2.863 -0.4297 -0.1438 -0.4344
  198MOL    H8228056   3.272   0.892   2.844  1.8361  0.0720 -0.4702
  198MOL    H8328057   3.366   0.895   2.999  1.5124 -3.4090 -0.3300
  198MOL    H8428058   3.172   0.689   2.872 -2.4812  0.2208  2.0679
  198MOL    H8528059   3.234   0.659   3.029  0.0649  0.6494  0.4330
  198MOL    C8628060   3.497   0.656   2.923 -0.6465 -1.0495 -0.3885
  198MOL    C8728061   3.501   0.564   3.047  0.0037  0.2098  0.0088
  198MOL    O8828062   3.438   0.623   3.167 -0.0153 -0.2629 -0.2184
  198MOL    H8928063   3.546   0.594   2.848  1.3136 -1.2582  1.0293
  198MOL    H9028064   3.543   0.752   2.945 -2.5600 -0.1790 -0.0705
  198MOL    H9128065   3.607   0.556   3.070  0.2268 -1.4595 -1.5650
  198MOL    H9228066   3.479   0.459   3.029  0.6619 -0.0471  0.6861
  198MOL    C9328067   3.459   0.539   3.283  0.4888 -0.5422  0.3838
  198MOL    C9428068   3.384   0.600   3.397 -0.0323 -0.0285  0.0536
  198MOL    O9528069   3.449   0.715   3.447 -0.4057  0.2435 -0.5002
  198MOL    H9628070   3.419   0.439   3.267 -0.3920 -0.1442  0.0750
  198MOL    H9728071   3.563   0.520   3.308  0.5169 -0.8923  0.0193
  198MOL    H9828072   3.373   0.530   3.480  0.3041 -0.8195 -0.5727
  198MOL    H9928073   3.283   0.629   3.366 -0.0610 -0.3713 -0.1763
  198MOL   C10028074   3.369   0.799   3.528  0.8926  0.3327 -0.0130
  198MOL   C10128075   3.451   0.926   3.539  0.2845  0.3913 -0.4936
  198MOL   O10228076   3.372   1.031   3.599  0.9465 -0.6243 -0.3813
  198MOL   H10328077   3.284   0.817   3.461  1.3378 -0.2919 -0.7576
  198MOL   H10428078   3.337   0.755   3.622 -3.9755  0.1924 -1.5993
  198MOL   H10528079   3.481   0.960   3.440 -1.9285  3.3687 -0.2070
  198MOL   H10628080   3.543   0.914   3.597 -0.6860 -1.1317  0.7631
  198MOL   C10728081   3.300   1.106   3.503  1.1136 -0.1458  0.4403
  198MOL   C10828082   3.180   1.175   3.575 -0.2047  0.2865 -0.1986
  198MOL   O10928083   3.068   1.088   3.582  0.0776 -0.7321 -0.1301
  198MOL   H11028084   3.363   1.189   3.472 -0.3276  1.5500  1.9624
  198MOL   H11128085   3.259   1.043   3.424  0.4733 -0.7929  1.2793
  198MOL   H11228086   3.148   1.263   3.520 -0.3446 -1.5138 -3.1108
  198MOL   H11328087   3.207   1.206   3.676 -0.3387 -0.8785  0.2029
  198MOL   C11428088   2.974   1.134   3.687 -0.2286  0.4353  0.5611
  198MOL   C11528089   2.895   1.259   3.639 -0.5615 -0.0130  0.2062
  198MOL   O11628090   2.981   1.372   3.654 -1.0440 -0.3642 -0.0436
  198MOL   H11728091   2.897   1.058   3.698  0.5568 -0.8881 -2.7831
  198MOL   H11828092   3.024   1.140   3.784 -1.8164 -3.2691  1.6818
  198MOL   H11928093   2.801   1.271   3.692 -0.2361  1.2349  0.4991
  198MOL   H12028094   2.866   1.258   3.534  0.6321 -0.5601 -0.1211
  198MOL   C12128095   2.925   1.487   3.588  0.5816  1.1301  0.0312
  198MOL   C12228096   3.032   1.600   3.602  0.0715 -0.1927  0.2071
  198MOL   O12328097   3.030   1.664   3.727 -0.3860  0.7405 -0.2285
  198MOL   H12428098   2.914   1.461   3.483  0.1276 -1.4370  0.6851
  198MOL   H12528099   2.833   1.524   3.634 -0.1844  1.0214 -1.4055
  198MOL   H12628100   3.003   1.675   3.529  1.0721 -0.2739 -0.2860
  198MOL   H12728101   3.129   1.565   3.566  1.1376  1.3035  1.6097
  198MOL   C12828102   3.147   1.651   3.798  0.4337  0.2665  0.4726
  198MOL   C12928103   3.133   1.715   3.929  0.3964 -0.0007 -0.5901
  198MOL   O13028104   3.269   1.757   3.963  0.5839  0.6014 -0.2800
  198MOL   H13128105   3.165   1.544   3.807  2.4739  0.3658 -1.8622
  198MOL   H13228106   3.236   1.683   3.744  0.5207 -1.4503 -0.4566
  198MOL   H13328107   3.087   1.643   3.997 -1.5081  0.3200 -1.5046
  198MOL   H13428108   3.076   1.806   3.912  0.3409 -0.1588 -1.2407
  198MOL   C13528109   3.274   1.822   4.095 -0.3423 -0.3500  0.4267
  198MOL   C13628110   3.413   1.860   4.142 -0.0127  0.3051  0.4914
  198MOL   O13728111   3.457   1.962   4.057  0.2460  0.0348  0.3966
  198MOL   H13828112   3.209   1.910   4.093 -0.0124 -0.0936  0.8410
  198MOL   H13928113   3.223   1.760   4.170  0.4566 -0.5024  0.8555
  198MOL   H14028114   3.476   1.772   4.133 -0.8729 -0.3339  0.6141
  198MOL   H14128115   3.425   1.913   4.237 -1.0616 -0.6936  1.1926
  198MOL   H14228116   3.427   1.933   3.972 -0.3462 -1.4650  1.1042
  199MOL     C128117   7.371   2.348   5.547  0.5810 -0.4916 -0.5719
  199MOL     C228118   7.259   2.320   5.658 -0.4675 -0.4037 -0.2055
  199MOL     O328119   7.249   2.177   5.679  0.5962  0.2743 -0.4781
  199MOL     H428120   7.467   2.325   5.593  0.2397 -4.1439 -1.5275
  199MOL     H528121   7.375   2.454   5.523  0.0956 -0.1987  0.5868
  199MOL     H628122   7.171   2.359   5.608 -0.7055 -1.6228 -0.7600
  199MOL     H728123   7.280   2.367   5.754  2.1839 -1.5572 -0.1693
  199MOL     H828124   7.364   2.295   5.452  0.0546 -0.7786 -0.3753
  199MOL     C928125   7.157   2.150   5.782  0.3982  0.0501  0.1053
  199MOL    C1028126   7.156   1.998   5.809 -0.7813  0.3642 -0.8866
  199MOL    O1128127   7.267   1.948   5.887 -0.0923 -0.6427 -0.0137
  199MOL    H1228128   7.173   2.222   5.862 -1.4841 -0.0321  0.5908
  199MOL    H1328129   7.059   2.170   5.738 -0.0922  1.5360  1.8277
  199MOL    H1428130   7.135   1.945   5.716 -1.5088  0.5221 -0.8094
  199MOL    H1528131   7.072   1.981   5.875 -0.0967  0.8091  0.1194
  199MOL    C1628132   7.326   1.827   5.839  0.3562 -0.7698 -0.4330
  199MOL    C1728133   7.223   1.707   5.860 -0.0176  0.6135  0.0472
  199MOL    O1828134   7.205   1.692   5.999  0.0270  0.1078 -0.5070
  199MOL    H1928135   7.351   1.841   5.734  2.6151 -0.6895  0.0807
  199MOL    H2028136   7.409   1.810   5.908 -0.1175 -2.0890 -0.1685
  199MOL    H2128137   7.272   1.619   5.818  0.5900  0.4535  1.0844
  199MOL    H2228138   7.121   1.714   5.821 -0.5261  0.7170  1.3688
  199MOL    C2328139   7.144   1.569   6.036  0.2163  0.3957  0.1255
  199MOL    C2428140   7.082   1.586   6.169  0.3546  0.0534  0.5239
  199MOL    O2528141   6.988   1.694   6.154  0.4156  0.0967  0.0615
  199MOL    H2628142   7.070   1.536   5.962  1.2483 -1.3245 -0.1598
  199MOL    H2728143   7.218   1.490   6.044  0.6535  0.6913 -0.9481
  199MOL    H2828144   7.157   1.600   6.246  0.6546 -0.1418  0.2666
  199MOL    H2928145   7.018   1.501   6.193  1.6785 -0.8222  0.9677
  199MOL    C3028146   6.969   1.760   6.277 -0.3959  0.3640  0.2458
  199MOL    C3128147   6.875   1.679   6.368  0.2705  0.4635  0.8787
  199MOL    O3228148   6.934   1.585   6.447  0.2779  0.3756  0.2758
  199MOL    H3328149   7.063   1.780   6.329  0.3977 -0.2380 -0.9121
  199MOL    H3428150   6.937   1.860   6.246 -0.8449  0.6720  1.6956
  199MOL    H3528151   6.796   1.644   6.301 -1.2469  1.6788  1.9727
  199MOL    H3628152   6.809   1.742   6.428  0.3214  1.1391  0.2412
  199MOL    C3728153   6.847   1.487   6.519 -0.0343  0.7301  0.3980
  199MOL    C3828154   6.738   1.413   6.431  0.1858  0.8851 -0.2969
  199MOL    O3928155   6.625   1.488   6.455 -0.6388 -0.0943 -0.6591
  199MOL    H4028156   6.928   1.427   6.561 -0.8553  0.0387  1.0142
  199MOL    H4128157   6.801   1.520   6.612 -0.9454 -0.2289  0.3042
  199MOL    H4228158   6.716   1.314   6.471  1.0185  0.5338 -0.6949
  199MOL    H4328159   6.768   1.409   6.326  0.0855  1.5217 -0.3513
  199MOL    C4428160   6.521   1.446   6.368  0.7994 -0.1514  0.0543
  199MOL    C4528161   6.396   1.532   6.371 -0.5030  0.4287  0.5542
  199MOL    O4628162   6.420   1.647   6.302  0.0985  0.0212  0.0805
  199MOL    H4728163   6.561   1.432   6.268 -0.3569  2.7953 -0.8754
  199MOL    H4828164   6.500   1.346   6.408 -1.4945 -0.0053 -0.6738
  199MOL    H4928165   6.355   1.555   6.469 -1.4595  1.0051  0.0188
  199MOL    H5028166   6.319   1.470   6.326  2.2930 -2.9207  0.2156
  199MOL    C5128167   6.452   1.760   6.386  0.2010  0.5986  0.6676
  199MOL    C5228168   6.449   1.878   6.287 -0.2413 -0.0691 -0.4523
  199MOL    O5328169   6.319   1.878   6.230 -0.3021 -0.1314  0.1527
  199MOL    H5428170   6.388   1.767   6.474 -0.5781  0.0326  0.1482
  199MOL    H5528171   6.549   1.736   6.430 -0.0911 -0.4208  0.7671
  199MOL    H5628172   6.530   1.868   6.215  0.5747 -2.1958  0.7049
  199MOL    H5728173   6.473   1.967   6.345  0.7170 -1.8699  2.0466
  199MOL    C5828174   6.264   2.009   6.233  0.7256  0.2174  0.0708
  199MOL    C5928175   6.334   2.115   6.140  0.1342  0.2732  0.2092
  199MOL    O6028176   6.249   2.133   6.028 -0.0016  0.4856  0.4051
  199MOL    H6128177   6.156   2.014   6.222  0.4655 -0.6695  1.9989
  199MOL    H6228178   6.284   2.053   6.331 -0.0674  3.6092 -1.1993
  199MOL    H6328179   6.433   2.083   6.108 -0.8148 -0.2757 -2.2963
  199MOL    H6428180   6.347   2.205   6.200  2.2554  1.1688 -1.5043
  199MOL    C6528181   6.248   2.021   5.937  0.0405  0.0838 -0.3173
  199MOL    C6628182   6.219   2.066   5.794  0.2468 -0.2922 -0.2666
  199MOL    O6728183   6.320   2.149   5.739  1.2932  0.2046  0.4332
  199MOL    H6828184   6.340   1.966   5.957 -1.2387 -1.7435  0.7292
  199MOL    H6928185   6.173   1.951   5.975  1.2740 -2.3365 -2.1907
  199MOL    H7028186   6.122   2.113   5.778 -0.3826 -1.9443 -1.4318
  199MOL    H7128187   6.217   1.972   5.739 -0.2796 -0.5204  0.1329
  199MOL    C7228188   6.303   2.158   5.595 -0.7991  0.0659 -0.4601
  199MOL    C7328189   6.210   2.278   5.557 -0.1058 -0.0405  0.5274
  199MOL    O7428190   6.070   2.251   5.588 -0.1114  0.6557 -0.7427
  199MOL    H7528191   6.400   2.179   5.552 -1.2421 -0.0663 -1.5219
  199MOL    H7628192   6.282   2.066   5.541  0.9734 -2.1322  2.3778
  199MOL    H7728193   6.234   2.297   5.452 -0.2599 -2.5025  0.0196
  199MOL    H7828194   6.236   2.361   5.622  0.7470 -0.6269  0.9465
  199MOL    C7928195   5.979   2.318   5.501 -0.2288 -0.1833 -0.2790
  199MOL    C8028196   5.839   2.304   5.542  0.2214  0.3345 -0.1227
  199MOL    O8128197   5.801   2.177   5.480 -0.1298  0.2104 -0.3830
  199MOL    H8228198   5.999   2.425   5.504  0.7832 -0.2507 -2.8435
  199MOL    H8328199   6.011   2.286   5.401  1.4254 -3.2951  1.1698
  199MOL    H8428200   5.787   2.391   5.502 -0.9707 -0.3415 -0.0672
  199MOL    H8528201   5.816   2.311   5.648 -1.7396 -2.6669 -0.2717
  199MOL    C8628202   5.669   2.173   5.435 -0.2186  0.5986 -0.0515
  199MOL    C8728203   5.639   2.035   5.377 -0.2219  0.2716  0.1156
  199MOL    O8828204   5.705   2.012   5.254  0.0715  0.3448  0.1049
  199MOL    H8928205   5.611   2.190   5.526  1.1865  3.5109  0.3722
  199MOL    H9028206   5.642   2.254   5.367  0.7190 -0.5857 -1.8655
  199MOL    H9128207   5.531   2.037   5.370 -0.3690  0.1734  2.0898
  199MOL    H9228208   5.680   1.965   5.450  1.1600  2.2627  1.2901
  199MOL    C9328209   5.675   1.883   5.199 -0.5305 -0.1729 -0.0991
  199MOL    C9428210   5.774   1.842   5.091 -0.2000 -0.4431  0.4281
  199MOL    O9528211   5.690   1.773   4.997 -0.2088 -0.0049 -0.1453
  199MOL    H9628212   5.662   1.800   5.269 -1.8312 -0.2158 -0.3763
  199MOL    H9728213   5.574   1.891   5.159 -0.9238 -0.6795  0.7748
  199MOL    H9828214   5.864   1.789   5.121 -0.4169 -0.4514  1.0722
  199MOL    H9928215   5.819   1.932   5.048 -0.3740 -0.9798 -0.8865
  199MOL   C10028216   5.724   1.792   4.869  0.2232  0.9245 -0.2813
  199MOL   C10128217   5.860   1.747   4.827  0.1304  0.5395 -0.5637
  199MOL   O10228218   5.946   1.860   4.851  0.1381 -0.0245  0.0198
  199MOL   H10328219   5.646   1.735   4.818  0.8245 -0.8674  0.7882
  199MOL   H10428220   5.708   1.893   4.832 -0.7698  0.9961  0.3208
  199MOL   H10528221   5.853   1.711   4.724  0.7005  3.1809 -1.5705
  199MOL   H10628222   5.888   1.655   4.878  3.3002  1.0675 -1.2350
  199MOL   C10728223   6.083   1.836   4.850 -0.7443  0.1869  0.7197
  199MOL   C10828224   6.159   1.966   4.862 -0.4613  0.3699  0.5768
  199MOL   O10928225   6.298   1.937   4.862 -0.3335  0.5388  0.0511
  199MOL   H11028226   6.119   1.772   4.930  1.2652 -0.8798 -0.9765
  199MOL   H11128227   6.102   1.788   4.754 -2.1861  1.1470 -0.0541
  199MOL   H11228228   6.133   2.009   4.959 -1.4717 -0.0016  0.4789
  199MOL   H11328229   6.137   2.041   4.787  0.2516 -0.4590 -0.4662
  199MOL   C11428230   6.385   2.049   4.852 -0.3863 -0.2275  0.2497
  199MOL   C11528231   6.350   2.140   4.736  0.2418 -0.1531 -0.0142
  199MOL   O11628232   6.266   2.247   4.785 -0.0688  0.4001 -0.1756
  199MOL   H11728233   6.401   2.114   4.938  2.3433  1.7175 -1.6662
  199MOL   H11828234   6.469   1.981   4.837 -2.2737 -1.8822 -3.4207
  199MOL   H11928235   6.303   2.089   4.652 -0.7607  1.9352 -0.7289
  199MOL   H12028236   6.439   2.188   4.696  1.8753 -1.1794  2.2734
  199MOL   C12128237   6.191   2.312   4.679 -0.0870 -0.3623 -0.1030
  199MOL   C12228238   6.184   2.458   4.700  0.0759 -0.1344 -0.5338
  199MOL   O12328239   6.053   2.507   4.670  0.2118 -0.0981 -0.1813
  199MOL   H12428240   6.240   2.292   4.584 -0.8848  3.8824 -1.5114
  199MOL   H12528241   6.094   2.263   4.689  0.9250 -2.3332  0.3405
  199MOL   H12628242   6.258   2.496   4.629 -0.5210 -2.2772 -2.3181
  199MOL   H12728243   6.226   2.477   4.799  1.6334  2.1825 -1.5871
  199MOL   C12828244   6.040   2.643   4.699  1.0565 -0.0758 -0.3157
  199MOL   C12928245   5.894   2.674   4.668  0.1797 -0.1698  0.2363
  199MOL   O13028246   5.874   2.675   4.524  0.7256 -0.3194  0.2961
  199MOL   H13128247   6.060   2.666   4.804  3.0492  0.2748 -0.7486
  199MOL   H13228248   6.105   2.705   4.637 -1.2528  2.4500 -0.3614
  199MOL   H13328249   5.896   2.776   4.707  0.1245 -0.2054  0.3318
  199MOL   H13428250   5.809   2.623   4.715 -2.0445  2.9873 -0.1969
  199MOL   C13528251   5.816   2.557   4.469 -0.1321  0.5739 -0.4425
  199MOL   C13628252   5.885   2.550   4.338  0.6482 -0.0486 -0.1867
  199MOL   O13728253   5.848   2.662   4.263  0.2316  0.1228  0.3635
  199MOL   H13828254   5.833   2.463   4.522 -3.2380 -1.0220 -2.1575
  199MOL   H13928255   5.709   2.572   4.460 -0.1714  0.4386 -0.2086
  199MOL   H14028256   5.844   2.460   4.293  0.1202  0.7881 -1.4049
  199MOL   H14128257   5.992   2.530   4.352  0.3550 -2.5347 -1.3114
  199MOL   H14228258   5.804   2.728   4.314 -1.4990 -0.5087 -0.2971
  200MOL     C128259   0.478   2.766   7.243  0.3748 -0.2652  0.6515
  200MOL     C228260   0.379   2.683   7.333 -0.1873  0.5197  0.3304
  200MOL     O328261   0.418   2.547   7.317  0.2703  0.0529  0.0577
  200MOL     H428262   0.442   2.869   7.244  0.0866 -0.3719  1.2760
  200MOL     H528263   0.471   2.737   7.138 -0.6710  0.9245  0.3861
  200MOL     H628264   0.278   2.694   7.295  0.0044 -0.3802 -0.4601
  200MOL     H728265   0.384   2.716   7.437  2.4155 -2.3749  1.2015
  200MOL     H828266   0.580   2.764   7.281  0.4702 -0.0240  0.4079
  200MOL     C928267   0.370   2.463   7.418  0.1414 -0.9733  0.0356
  200MOL    C1028268   0.437   2.325   7.420  0.4907  0.0461 -0.0694
  200MOL    O1128269   0.573   2.355   7.460  0.7289  0.6403 -0.1092
  200MOL    H1228270   0.365   2.513   7.514  0.3303 -0.7341 -0.0816
  200MOL    H1328271   0.263   2.450   7.398 -0.1193  1.8793 -0.6208
  200MOL    H1428272   0.427   2.269   7.327  0.0689 -1.1494  0.6823
  200MOL    H1528273   0.386   2.263   7.494 -1.1475  0.5273 -0.7771
  200MOL    C1628274   0.648   2.246   7.517 -0.2428 -0.4805 -0.3036
  200MOL    C1728275   0.647   2.242   7.670 -0.3766  0.3996  0.3346
  200MOL    O1828276   0.688   2.359   7.726  0.4822  0.1569 -0.3420
  200MOL    H1928277   0.613   2.158   7.462 -2.3539  0.3176 -0.2696
  200MOL    H2028278   0.749   2.252   7.477  0.0965 -0.3126  0.5699
  200MOL    H2128279   0.718   2.165   7.701  1.1457 -0.2342 -4.3315
  200MOL    H2228280   0.553   2.206   7.710 -0.3722 -1.3531 -1.1462
  200MOL    C2328281   0.707   2.343   0.096 -0.9168 -0.5752  0.3630
  200MOL    C2428282   0.772   2.472   0.148 -0.0931 -0.4596 -0.3079
  200MOL    O2528283   0.677   2.573   0.164  0.0781  0.5173 -0.3813
  200MOL    H2628284   0.613   2.329   0.150 -1.3139  0.7276  0.0121
  200MOL    H2728285   0.778   2.267   0.128  1.3648  1.2526 -0.2911
  200MOL    H2828286   0.852   2.512   0.085 -1.5561  0.4734 -1.5891
  200MOL    H2928287   0.812   2.440   0.244  1.1910 -0.0832 -0.6931
  200MOL    C3028288   0.721   2.688   0.230  0.3358  0.0124  0.1886
  200MOL    C3128289   0.599   2.757   0.288 -0.7832 -0.0815 -0.1637
  200MOL    O3228290   0.541   2.849   0.194  0.3851 -0.2623 -0.1920
  200MOL    H3328291   0.785   2.658   0.312 -0.9361 -2.3340  0.3482
  200MOL    H3428292   0.785   2.753   0.169  1.9216 -0.3920  1.4027
  200MOL    H3528293   0.637   2.811   0.375  1.8360  0.4217 -1.5738
  200MOL    H3628294   0.524   2.686   0.324  1.5110 -1.4220  2.1005
  200MOL    C3728295   0.442   2.923   0.268  0.3650 -0.3679 -0.1825
  200MOL    C3828296   0.381   3.041   0.187 -0.8524  0.0727 -0.4746
  200MOL    O3928297   0.465   3.152   0.205  1.0165  0.3108 -0.7045
  200MOL    H4028298   0.360   2.857   0.296  0.7155 -1.4084 -1.5488
  200MOL    H4128299   0.479   2.967   0.361  0.5195  0.6253 -0.7150
  200MOL    H4228300   0.283   3.064   0.229 -0.2743  0.2911  0.7657
  200MOL    H4328301   0.367   3.004   0.085  2.6131 -2.8498  0.0105
  200MOL    C4428302   0.581   3.147   0.126  0.0055 -0.0537 -0.1809
  200MOL    C4528303   0.659   3.276   0.146 -0.3079 -0.3643 -0.4487
  200MOL    O4628304   0.757   3.283   0.042  0.3110 -0.6331 -0.2694
  200MOL    H4728305   0.640   3.069   0.175 -0.4969  0.1498  0.7559
  200MOL    H4828306   0.557   3.132   0.021 -2.3264 -0.1350  0.3427
  200MOL    H4928307   0.714   3.289   0.238 -0.2801  3.1729 -0.8857
  200MOL    H5028308   0.589   3.360   0.147  1.1305  0.8732  3.0135
  200MOL    C5128309   0.844   3.395   0.045  0.0867 -1.3253  0.1807
  200MOL    C5228310   0.959   3.388   0.149  0.1447  0.1985 -0.0779
  200MOL    O5328311   0.940   3.489   0.250  0.4514  0.1598 -0.4710
  200MOL    H5428312   0.891   3.406   7.719  0.2017  2.8737  0.6363
  200MOL    H5528313   0.788   3.487   0.061  1.4159  0.1317 -3.1695
  200MOL    H5628314   1.059   3.399   0.108  0.2405 -2.0027 -0.4914
  200MOL    H5728315   0.964   3.286   0.188 -1.8140 -0.3361 -1.1454
  200MOL    C5828316   1.032   3.488   0.364  0.3920  0.3373 -0.9751
  200MOL    C5928317   0.990   3.399   0.486  0.3114  0.4898 -0.2610
  200MOL    O6028318   0.941   3.264   0.460  0.5914 -0.5030  0.3957
  200MOL    H6128319   1.134   3.460   0.336 -0.5209 -3.0932 -1.0873
  200MOL    H6228320   1.052   3.581   0.417  0.7564  0.7460 -1.8302
  200MOL    H6328321   0.922   3.455   0.550 -1.2598 -1.5803 -0.0453
  200MOL    H6428322   1.075   3.389   0.553 -0.6072  1.8372  1.1294
  200MOL    C6528323   0.881   3.209   0.582 -0.5200 -0.4734  0.8179
  200MOL    C6628324   0.855   3.061   0.559  0.5892  0.7058 -0.1004
  200MOL    O6728325   0.972   2.984   0.552  0.4371 -0.1389  0.1622
  200MOL    H6828326   0.939   3.231   0.672 -2.7116  1.5404  1.7823
  200MOL    H6928327   0.793   3.270   0.603 -0.5485 -0.7683  1.5592
  200MOL    H7028328   0.803   3.048   0.464  2.1487  1.9831 -1.1555
  200MOL    H7128329   0.787   3.021   0.635  0.1139 -2.0973 -1.9120
  200MOL    C7228330   0.958   2.847   0.559  0.7759 -0.5997 -0.3170
  200MOL    C7328331   1.097   2.786   0.590  0.1035 -0.9281 -0.3661
  200MOL    O7428332   1.121   2.802   0.732 -0.6679 -0.3549  0.3517
  200MOL    H7528333   0.875   2.823   0.625 -0.1151 -0.6671 -1.4478
  200MOL    H7628334   0.935   2.824   0.455  2.9663  2.2652 -1.4985
  200MOL    H7728335   1.177   2.828   0.528  0.1337 -0.9545 -0.3446
  200MOL    H7828336   1.098   2.681   0.561 -0.8738 -0.7743 -0.9849
  200MOL    C7928337   1.253   2.765   0.773 -0.3574  0.2801 -0.7424
  200MOL    C8028338   1.246   2.717   0.915 -0.4125  0.5578  0.6598
  200MOL    O8128339   1.202   2.588   0.940 -0.1616  0.3450 -0.1709
  200MOL    H8228340   1.299   2.686   0.714 -1.5035 -0.9941  0.0407
  200MOL    H8328341   1.311   2.856   0.757  3.0616 -1.7164 -0.1304
  200MOL    H8428342   1.191   2.777   0.988  1.4191  0.5606  2.0693
  200MOL    H8528343   1.350   2.731   0.944 -0.0621  0.1410 -0.3956
  200MOL    C8628344   1.069   2.550   0.904 -0.1270  0.0802 -0.2118
  200MOL    C8728345   1.050   2.402   0.933 -0.2749 -0.1472 -0.2998
  200MOL    O8828346   0.914   2.373   0.944 -0.1324 -0.0466 -0.0929
  200MOL    H8928347   0.999   2.598   0.973  0.3768 -1.1253  1.1695
  200MOL    H9028348   1.040   2.585   0.805  0.1269 -0.9015 -0.6365
  200MOL    H9128349   1.104   2.371   1.023  2.2147  2.5378 -0.7924
  200MOL    H9228350   1.113   2.358   0.855  1.5644  3.4449 -0.9534
  200MOL    C9328351   0.879   2.238   0.985  0.8496 -0.4883 -0.8066
  200MOL    C9428352   0.911   2.129   0.880  0.2502 -0.0799 -0.0467
  200MOL    O9528353   1.048   2.119   0.866 -0.5278 -0.0751  0.2847
  200MOL    H9628354   0.923   2.219   1.084 -2.2142  0.4017  0.7735
  200MOL    H9728355   0.774   2.229   1.012  1.6416 -1.7511  2.0555
  200MOL    H9828356   0.869   2.157   0.783 -0.2078  0.9958  0.4522
  200MOL    H9928357   0.876   2.030   0.910 -0.2183  0.9060  2.8087
  200MOL   C10028358   1.084   2.031   0.756  0.4268  0.3418 -0.1199
  200MOL   C10128359   1.234   2.017   0.772 -0.0708 -0.3521  0.0519
  200MOL   O10228360   1.263   1.885   0.727 -0.5575 -0.6679  0.0568
  200MOL   H10328361   1.042   1.930   0.765 -1.4542  1.0777 -0.4123
  200MOL   H10428362   1.057   2.082   0.664  0.5697  1.3980  0.4260
  200MOL   H10528363   1.257   2.043   0.876 -2.3774 -1.0243  0.7650
  200MOL   H10628364   1.278   2.091   0.706  0.1178  2.0490  2.7556
  200MOL   C10728365   1.400   1.857   0.743 -0.3061  0.0348  0.0797
  200MOL   C10828366   1.433   1.707   0.707 -0.5363 -0.0240 -0.4695
  200MOL   O10928367   1.393   1.608   0.807 -0.1530  0.5500  0.6822
  200MOL   H11028368   1.448   1.934   0.683 -2.2942 -0.9808 -2.9530
  200MOL   H11128369   1.436   1.877   0.843  0.7766 -1.1596 -0.0639
  200MOL   H11228370   1.541   1.702   0.695 -0.3330 -0.1158  1.2284
  200MOL   H11328371   1.395   1.692   0.606  1.3881 -1.4403 -1.0048
  200MOL   C11428372   1.270   1.550   0.783  0.3928 -0.2270 -0.3911
  200MOL   C11528373   1.258   1.422   0.875  0.0261 -0.8350  0.4312
  200MOL   O11628374   1.305   1.305   0.812  0.1334  0.0139  0.6701
  200MOL   H11728375   1.187   1.617   0.809  0.7973 -0.1546  0.7388
  200MOL   H11828376   1.238   1.523   0.682 -2.5068 -1.0458  0.6716
  200MOL   H11928377   1.156   1.416   0.912 -0.0869 -0.7443  0.1293
  200MOL   H12028378   1.312   1.448   0.967 -1.1421  1.6906  0.4450
  200MOL   C12128379   1.276   1.196   0.897 -0.8349  0.2457  0.0610
  200MOL   C12228380   1.360   1.068   0.861 -0.8509 -0.2063  0.4026
  200MOL   O12328381   1.322   1.029   0.731  0.0504 -0.6759 -0.2701
  200MOL   H12428382   1.291   1.223   1.001 -3.3338 -0.4175  0.6414
  200MOL   H12528383   1.170   1.171   0.892 -0.7361 -0.5720  1.7664
  200MOL   H12628384   1.327   0.993   0.932 -0.8827 -0.2173  0.3762
  200MOL   H12728385   1.465   1.091   0.877 -0.2289 -1.4151 -1.7988
  200MOL   C12828386   1.194   0.969   0.721 -0.4271 -0.2376  0.1514
  200MOL   C12928387   1.185   0.915   0.581  0.0633  0.7324  0.8160
  200MOL   O13028388   1.263   0.799   0.559 -0.6729  0.4373  0.0054
  200MOL   H13128389   1.184   0.900   0.805  2.6539  1.1120  1.7251
  200MOL   H13228390   1.117   1.046   0.733 -1.5491 -1.5080  1.3083
  200MOL   H13328391   1.219   0.993   0.514  0.2871 -1.0270 -1.1654
  200MOL   H13428392   1.081   0.885   0.564 -0.6909  3.1189  0.9734
  200MOL   C13528393   1.256   0.758   0.421  0.6487 -0.0541 -0.2048
  200MOL   C13628394   1.389   0.696   0.392 -0.2265 -0.1400  0.1384
  200MOL   O13728395   1.481   0.808   0.399 -0.2241 -0.0466 -0.2033
  200MOL   H13828396   1.182   0.680   0.400  3.2303 -2.7201  0.2917
  200MOL   H13928397   1.246   0.830   0.339  2.1007  1.0993  0.6074
  200MOL   H14028398   1.399   0.657   0.291  0.5130 -0.7258  0.4250
  200MOL   H14128399   1.411   0.623   0.471 -0.8858 -0.3348  0.1442
  200MOL   H14228400   1.457   0.853   0.478 -0.4683  0.2448 -0.4381
  201MOL     C128401   0.202   1.091   3.231  0.4972  0.2919  0.0136
  201MOL     C228402   0.196   0.991   3.110 -0.4456 -0.5095 -0.0815
  201MOL     O328403   0.062   0.948   3.108  0.3976 -0.4565 -0.2375
  201MOL     H428404   0.305   1.127   3.238  0.2762  0.8455  0.5420
  201MOL     H528405   0.183   1.036   3.323  0.3463  0.5218  0.1205
  201MOL     H628406   0.257   0.903   3.130  1.4557  0.9492  0.7064
  201MOL     H728407   0.240   1.044   3.025 -0.8304  0.8327  0.5346
  201MOL     H828408   0.144   1.183   3.223  0.7146  0.5508  1.1927
  201MOL     C928409   0.018   0.912   2.973  0.2906 -0.8308 -0.4362
  201MOL    C1028410   7.646   0.865   2.997 -0.3463 -0.2731  0.6031
  201MOL    O1128411   7.558   0.975   2.968  0.0216  0.4311 -0.2157
  201MOL    H1228412   0.027   0.990   2.897 -2.9218 -0.5461 -0.6274
  201MOL    H1328413   0.093   0.836   2.951 -0.8172 -2.0353 -0.1198
  201MOL    H1428414   7.632   0.819   3.095 -1.0353 -1.3119  0.0323
  201MOL    H1528415   7.623   0.784   2.928  2.4223 -0.9231  0.3827
  201MOL    C1628416   7.429   0.966   3.029  1.3194  0.1708  0.1334
  201MOL    C1728417   7.344   1.072   2.963  0.5671  0.5837  0.2622
  201MOL    O1828418   7.212   1.020   2.952  0.0838  0.1936 -0.6537
  201MOL    H1928419   7.390   0.864   3.019 -3.3842  1.8401  0.4480
  201MOL    H2028420   7.444   0.985   3.135  0.4685 -0.7792  0.4299
  201MOL    H2128421   7.386   1.091   2.864  1.7227  2.3720  1.0777
  201MOL    H2228422   7.344   1.166   3.018 -0.8691  2.2448 -2.4408
  201MOL    C2328423   7.135   1.045   3.068  0.1834  0.3305 -0.1597
  201MOL    C2428424   6.991   0.992   3.053 -0.5028 -0.3379  0.8219
  201MOL    O2528425   6.930   1.002   3.178 -0.2982  0.2859 -0.5719
  201MOL    H2628426   7.182   1.004   3.157  1.7930  0.2080 -1.0543
  201MOL    H2728427   7.124   1.152   3.084 -0.1519  0.1599  0.7933
  201MOL    H2828428   6.996   0.890   3.017  0.6369  0.2186 -0.6558
  201MOL    H2928429   6.935   1.042   2.974  1.7531 -1.9663 -1.8833
  201MOL    C3028430   6.810   0.924   3.179 -0.7869 -0.6079  0.1426
  201MOL    C3128431   6.725   0.946   3.299 -0.8154  0.7819 -0.3869
  201MOL    O3228432   6.800   0.898   3.412 -0.5279  0.2623  0.4608
  201MOL    H3328433   6.749   0.946   3.091  0.1770  0.0219 -0.3778
  201MOL    H3428434   6.846   0.821   3.180  3.2790  0.7217  2.4834
  201MOL    H3528435   6.626   0.900   3.296 -0.4079 -0.1158 -0.2553
  201MOL    H3628436   6.708   1.053   3.307 -1.6567  0.5956  0.4286
  201MOL    C3728437   6.744   0.922   3.544  0.1496  0.3906  0.5903
  201MOL    C3828438   6.644   0.826   3.584  0.3706  0.0771  0.3222
  201MOL    O3928439   6.708   0.707   3.641 -0.6049 -0.5885  0.2852
  201MOL    H4028440   6.817   0.925   3.624  2.9454  1.4697 -1.9056
  201MOL    H4128441   6.695   1.019   3.540 -2.8522 -1.0409  1.4731
  201MOL    H4228442   6.578   0.796   3.503 -2.0124  0.2753  2.1343
  201MOL    H4328443   6.585   0.870   3.665  0.6145 -0.7737  0.9646
  201MOL    C4428444   6.640   0.644   3.745 -0.1529  0.1602 -0.8924
  201MOL    C4528445   6.710   0.505   3.782 -0.4428  0.2812  0.0285
  201MOL    O4628446   6.850   0.518   3.803 -0.0720 -0.2704  0.4832
  201MOL    H4728447   6.636   0.700   3.839  1.0162  1.8906 -1.8494
  201MOL    H4828448   6.534   0.628   3.727  0.3055 -2.7018 -1.2368
  201MOL    H4928449   6.712   0.452   3.687  0.0584 -1.2051  0.8392
  201MOL    H5028450   6.664   0.448   3.863  1.4455  1.2123  1.7784
  201MOL    C5128451   6.923   0.393   3.819 -0.2960 -0.8569  0.6418
  201MOL    C5228452   7.072   0.407   3.786 -0.2580  0.0367  0.4296
  201MOL    O5328453   7.094   0.484   3.670 -0.0763  0.1810 -0.2272
  201MOL    H5428454   6.925   0.363   3.924  2.6099  0.2653  0.9552
  201MOL    H5528455   6.876   0.322   3.750 -0.3322  0.6187 -0.8728
  201MOL    H5628456   7.105   0.304   3.772 -1.0124 -0.4422  2.0585
  201MOL    H5728457   7.130   0.448   3.868 -0.3600  1.0105  0.0246
  201MOL    C5828458   7.094   0.622   3.695 -0.3260 -0.5973  0.4191
  201MOL    C5928459   7.041   0.688   3.571  0.0626  0.3737 -0.6808
  201MOL    O6028460   7.135   0.689   3.465  0.1273 -0.9221  0.1597
  201MOL    H6128461   7.025   0.640   3.777 -1.5088 -2.0059 -0.2536
  201MOL    H6228462   7.194   0.646   3.731  1.0357 -1.6449 -2.4851
  201MOL    H6328463   6.990   0.784   3.582 -0.1523  0.2672 -0.7350
  201MOL    H6428464   6.969   0.611   3.544 -0.1024  0.3475 -0.1553
  201MOL    C6528465   7.239   0.783   3.492  0.6470  0.5942 -0.2383
  201MOL    C6628466   7.327   0.795   3.358  0.2137  0.6226 -0.2792
  201MOL    O6728467   7.431   0.892   3.359  0.3392  0.4127  0.5757
  201MOL    H6828468   7.205   0.882   3.522  0.8735  0.6304 -0.0942
  201MOL    H6928469   7.303   0.762   3.577  1.0090  0.9112 -0.4326
  201MOL    H7028470   7.261   0.814   3.272  0.8736  3.0149 -0.3007
  201MOL    H7128471   7.370   0.701   3.324 -1.0135  0.9899 -2.9865
  201MOL    C7228472   7.565   0.852   3.391  0.2282  0.3266 -0.5693
  201MOL    C7328473   7.641   0.983   3.389  0.7855  0.2148 -0.6356
  201MOL    O7428474   7.608   1.067   3.501  0.4352 -0.3549  0.3113
  201MOL    H7528475   7.575   0.794   3.483 -1.1336  1.8055  0.5303
  201MOL    H7628476   7.600   0.782   3.314 -3.3717 -0.2245 -1.7730
  201MOL    H7728477   7.623   1.029   3.292 -0.7111  0.4211 -0.2662
  201MOL    H7828478   7.747   0.959   3.376  0.4014 -2.5205  0.8882
  201MOL    C7928479   7.683   1.182   3.529 -0.2798 -0.0586 -0.2801
  201MOL    C8028480   7.657   1.216   3.680 -0.2755  0.3088 -0.4112
  201MOL    O8128481   7.711   1.112   3.754 -0.1414  0.0695  0.5326
  201MOL    H8228482   0.018   1.157   3.522  0.2977  2.1792 -0.0750
  201MOL    H8328483   7.664   1.272   3.471  1.3453  1.0428  0.8454
  201MOL    H8428484   7.556   1.246   3.708 -0.4397  1.3457 -2.0504
  201MOL    H8528485   7.715   1.305   3.704 -0.9945  0.0146  2.6516
  201MOL    C8628486   7.717   1.139   3.893 -0.1424  0.4968  0.1882
  201MOL    C8728487   0.059   1.054   3.970 -0.1972 -0.3519  0.6316
  201MOL    O8828488   0.023   0.916   3.982  0.2066  0.1893  0.2698
  201MOL    H8928489   7.737   1.245   3.910  0.7184  0.1447  1.4008
  201MOL    H9028490   7.618   1.125   3.937  0.4171  1.5083  1.8046
  201MOL    H9128491   0.072   1.083   4.074 -0.3696 -1.3193  0.9242
  201MOL    H9228492   0.155   1.075   3.922 -0.6750  1.5532  0.4498
  201MOL    C9328493   0.137   0.841   4.018  0.0819  0.3798 -0.2901
  201MOL    C9428494   0.096   0.700   4.036  0.6040  0.1100  0.1205
  201MOL    O9528495   0.065   0.679   4.168 -0.2051 -0.5810  0.4851
  201MOL    H9628496   0.204   0.846   3.932  0.6611  0.3544  0.1491
  201MOL    H9728497   0.195   0.877   4.104 -0.3273 -0.5851  0.4037
  201MOL    H9828498   0.182   0.636   4.015  0.1567 -0.9925  1.6260
  201MOL    H9928499   0.018   0.666   3.967  1.4030  0.5711 -1.0309
  201MOL   C10028500   0.056   0.542   4.213 -0.2751 -0.6871 -0.2882
  201MOL   C10128501   0.001   0.540   4.354  0.7962  0.0967  0.4048
  201MOL   O10228502   0.099   0.529   4.451  0.3863 -0.1335 -0.0687
  201MOL   H10328503   7.766   0.491   4.140 -1.5123  1.0504 -0.4902
  201MOL   H10428504   0.147   0.484   4.200 -0.1231 -0.3879 -0.5540
  201MOL   H10528505   7.720   0.446   4.369 -0.5157  0.8223  0.5356
  201MOL   H10628506   7.697   0.618   4.372  1.2149  0.7923 -0.8236
  201MOL   C10728507   0.160   0.660   4.476 -0.2555 -0.5184 -0.2810
  201MOL   C10828508   0.301   0.652   4.543 -0.3531 -0.0714  0.1811
  201MOL   O10928509   0.289   0.671   4.682  0.0051  0.1971  0.5158
  201MOL   H11028510   0.165   0.723   4.387 -1.6214 -0.5397 -0.3876
  201MOL   H11128511   0.111   0.718   4.554  2.6840  0.3969  0.9347
  201MOL   H11228512   0.374   0.720   4.501  1.8580 -1.7014  1.3127
  201MOL   H11328513   0.334   0.550   4.525  2.1035  0.6278  0.5597
  201MOL   C11428514   0.237   0.562   4.760 -0.1411 -0.5241  0.0756
  201MOL   C11528515   0.220   0.618   4.904 -0.6013 -0.6759  0.4539
  201MOL   O11628516   0.332   0.578   4.993 -0.3224 -0.4210  0.6022
  201MOL   H11728517   0.139   0.535   4.721 -1.0600 -2.1798  3.2858
  201MOL   H11828518   0.302   0.475   4.765 -1.6482 -1.8273 -2.3250
  201MOL   H11928519   0.128   0.584   4.952 -0.7067 -1.6351 -0.4110
  201MOL   H12028520   0.221   0.727   4.896 -2.5627 -0.4190  3.0881
  201MOL   C12128521   0.319   0.621   5.127 -0.1238  0.9692 -0.0426
  201MOL   C12228522   0.448   0.591   5.208  0.0476 -0.5305 -0.0835
  201MOL   O12328523   0.475   0.456   5.260  0.1630 -0.4199 -0.4034
  201MOL   H12428524   0.317   0.729   5.123  2.6624  1.1660  2.8888
  201MOL   H12528525   0.238   0.580   5.188 -0.4050  0.0289 -1.0188
  201MOL   H12628526   0.443   0.649   5.300 -0.8151 -0.2498 -0.3046
  201MOL   H12728527   0.542   0.626   5.164  0.2679  0.1752  0.9344
  201MOL   C12828528   0.524   0.379   5.163  0.0760 -0.2124 -0.6118
  201MOL   C12928529   0.547   0.235   5.222  0.4392  0.3295 -0.0971
  201MOL   O13028530   0.423   0.190   5.287  0.6787 -0.2249  0.8163
  201MOL   H13128531   0.451   0.372   5.083 -2.5292 -2.1477  1.8283
  201MOL   H13228532   0.624   0.407   5.131 -0.5730  1.1660 -1.4777
  201MOL   H13328533   0.629   0.250   5.292  1.0074  0.5507 -0.7990
  201MOL   H13428534   0.579   0.164   5.146 -1.6517 -1.3506  0.5549
  201MOL   C13528535   0.433   0.202   5.430 -0.0783 -0.7684  0.0022
  201MOL   C13628536   0.307   0.144   5.502  0.5855  0.4159 -0.5384
  201MOL   O13728537   0.303   0.192   5.629 -0.5341  0.0272 -0.1943
  201MOL   H13828538   0.523   0.151   5.466 -0.6463 -2.6543 -1.1972
  201MOL   H13928539   0.450   0.309   5.443  1.4352 -1.0317  0.3542
  201MOL   H14028540   0.300   0.035   5.499  0.0583  0.4715 -1.9023
  201MOL   H14128541   0.222   0.189   5.451 -0.0916  0.0510  0.2547
  201MOL   H14228542   0.357   0.143   5.690 -3.1020 -2.6172  0.0510
  202MOL     C128543   3.205   2.732   2.643  0.5833  0.3133  0.1661
  202MOL     C228544   3.099   2.638   2.605 -0.0744 -0.7208 -0.8025
  202MOL     O328545   2.974   2.673   2.668  0.7056  0.1648 -0.4316
  202MOL     H428546   3.206   2.750   2.751  1.9726  1.1444  0.0389
  202MOL     H528547   3.179   2.829   2.600 -0.9942 -0.3957 -0.4939
  202MOL     H628548   3.130   2.541   2.643 -1.1891 -1.0005 -0.6039
  202MOL     H728549   3.097   2.623   2.497 -0.8996  0.4726 -0.9651
  202MOL     H828550   3.301   2.699   2.603  0.2719  0.0430 -0.3561
  202MOL     C928551   2.915   2.793   2.612 -0.0950  0.7264  0.1501
  202MOL    C1028552   2.877   2.774   2.465  0.3163  0.6957  0.1047
  202MOL    O1128553   2.781   2.673   2.444  0.4450 -0.2307  0.1537
  202MOL    H1228554   2.819   2.808   2.662 -1.6940 -3.2365 -1.5170
  202MOL    H1328555   2.980   2.879   2.628  0.4496  0.6068 -1.3634
  202MOL    H1428556   2.962   2.763   2.398  2.8583  1.8800  2.9974
  202MOL    H1528557   2.831   2.862   2.420  2.2165  1.6412 -0.0331
  202MOL    C1628558   2.762   2.655   2.301 -0.5842  0.0830  0.2866
  202MOL    C1728559   2.652   2.556   2.266 -0.5846 -0.2712 -0.2110
  202MOL    O1828560   2.537   2.636   2.265  0.1184  0.2369 -0.2723
  202MOL    H1928561   2.728   2.749   2.257 -0.4664 -0.2120 -0.4438
  202MOL    H2028562   2.854   2.625   2.251  0.2792 -0.5996  2.2394
  202MOL    H2128563   2.633   2.482   2.344  0.6942 -0.3335  0.0594
  202MOL    H2228564   2.673   2.502   2.174  0.8938 -1.5086  0.8347
  202MOL    C2328565   2.428   2.569   2.204  0.1862  0.3721  0.1236
  202MOL    C2428566   2.292   2.642   2.230 -0.2781 -0.6965 -0.1342
  202MOL    O2528567   2.232   2.658   2.106  0.2280 -0.1907  0.0382
  202MOL    H2628568   2.437   2.569   2.095 -1.3726  0.9903 -0.0158
  202MOL    H2728569   2.423   2.470   2.249  0.3419  0.8424  1.1916
  202MOL    H2828570   2.317   2.736   2.280 -0.4130 -0.7314 -0.0021
  202MOL    H2928571   2.230   2.589   2.302  0.1639  0.3069  1.0190
  202MOL    C3028572   2.118   2.741   2.111  0.1835  0.9190  0.5047
  202MOL    C3128573   2.003   2.648   2.117  0.0901  0.1607  0.1780
  202MOL    O3228574   1.956   2.607   2.241  0.8698 -0.6765  0.0240
  202MOL    H3328575   2.115   2.816   2.190  0.2248 -0.1316  1.5303
  202MOL    H3428576   2.112   2.781   2.010  1.4084 -1.6306 -0.6315
  202MOL    H3528577   2.029   2.556   2.065 -0.7258  0.7262 -1.2963
  202MOL    H3628578   1.919   2.688   2.059 -1.9560 -3.3349  0.6271
  202MOL    C3728579   1.883   2.712   2.306 -0.0025 -0.5566  0.6000
  202MOL    C3828580   1.931   2.713   2.451 -0.1903 -0.6285  0.2796
  202MOL    O3928581   2.069   2.752   2.471  0.0870 -0.0378  0.1525
  202MOL    H4028582   1.890   2.809   2.259  0.0185 -1.2207 -0.7791
  202MOL    H4128583   1.779   2.679   2.294 -0.5082  1.1783  0.1192
  202MOL    H4228584   1.915   2.626   2.514  0.0432 -1.4427 -0.7800
  202MOL    H4328585   1.869   2.782   2.509  2.1507 -0.7957  3.0519
  202MOL    C4428586   2.098   2.884   2.525  0.4380  0.5474  0.5242
  202MOL    C4528587   2.250   2.910   2.504  0.2673 -0.2644  0.3760
  202MOL    O4628588   2.288   2.977   2.383  0.8514  0.4813  0.1334
  202MOL    H4728589   2.044   2.951   2.458  0.5063 -0.2272 -0.3185
  202MOL    H4828590   2.073   2.885   2.631 -1.7838 -2.2641  0.1205
  202MOL    H4928591   2.317   2.825   2.515  0.5191  0.2599  3.2361
  202MOL    H5028592   2.281   2.981   2.581  2.1936 -1.3141  0.5872
  202MOL    C5128593   2.429   3.004   2.381  0.1994  0.0846 -0.6807
  202MOL    C5228594   2.460   3.085   2.253 -0.3444  0.5024 -0.1357
  202MOL    O5328595   2.581   3.158   2.255 -0.6277  0.3629 -0.3671
  202MOL    H5428596   2.454   3.064   2.468 -0.9307 -0.9978  0.4052
  202MOL    H5528597   2.483   2.909   2.386 -0.8694 -0.5112 -0.1340
  202MOL    H5628598   2.381   3.160   2.249 -0.5163  0.3120 -0.2822
  202MOL    H5728599   2.463   3.026   2.161  0.8285  1.7819 -0.9508
  202MOL    C5828600   2.623   3.215   2.132 -0.0602  0.6229 -0.3675
  202MOL    C5928601   2.743   3.306   2.154  0.0489 -0.6022  0.4061
  202MOL    O6028602   2.765   3.390   2.042 -0.4917  0.6383  0.1340
  202MOL    H6128603   2.653   3.136   2.063  0.6094  0.2762  0.3073
  202MOL    H6228604   2.539   3.273   2.094 -0.3944 -0.3018 -1.0544
  202MOL    H6328605   2.823   3.232   2.158 -1.4338 -2.3768 -1.8128
  202MOL    H6428606   2.735   3.355   2.251  1.1032  3.2294 -1.3728
  202MOL    C6528607   2.867   3.480   2.056  0.3938  0.1304 -0.2872
  202MOL    C6628608   2.875   3.570   1.927  0.1020 -0.1717 -0.2322
  202MOL    O6728609   2.940   3.497   1.821  0.2328 -0.1069 -0.6998
  202MOL    H6828610   2.834   3.535   2.144 -0.6049  0.7406 -1.0220
  202MOL    H6928611   2.956   3.419   2.071  2.0153  2.5432  0.1521
  202MOL    H7028612   2.921   3.666   1.950 -0.6086  0.2514 -0.5624
  202MOL    H7128613   2.776   3.608   1.903  0.9415  1.8792 -0.5556
  202MOL    C7228614   2.900   3.537   1.687 -0.0948 -0.5936  0.5741
  202MOL    C7328615   2.983   3.646   1.623 -0.3304  0.0136 -0.0473
  202MOL    O7428616   2.924   3.774   1.656  0.4606  0.1221 -0.3617
  202MOL    H7528617   2.908   3.457   1.614 -0.5337  0.0199 -0.1457
  202MOL    H7628618   2.800   3.580   1.693  0.1973  0.9051 -3.6323
  202MOL    H7728619   2.977   3.629   1.516  0.3671  2.1111 -0.4416
  202MOL    H7828620   3.084   3.645   1.662 -0.1801  2.2621 -0.3299
  202MOL    C7928621   3.017   3.878   1.620 -0.0029 -0.2834  0.7247
  202MOL    C8028622   2.949   4.011   1.634 -0.3069 -0.0161  0.5786
  202MOL    O8128623   2.858   4.047   1.527 -0.0460 -0.3406 -0.0234
  202MOL    H8228624   3.104   3.880   1.686 -0.4835  1.9029  1.3325
  202MOL    H8328625   3.053   3.877   1.517 -2.6126 -0.7881 -0.2179
  202MOL    H8428626   3.030   4.083   1.644 -0.4902  0.4427 -1.0231
  202MOL    H8528627   2.892   4.024   1.726 -1.1147  1.4354 -0.1001
  202MOL    C8628628   2.738   3.965   1.513 -0.1746 -0.3471 -0.2740
  202MOL    C8728629   2.630   4.036   1.431 -0.0722  0.2854 -0.2199
  202MOL    O8828630   2.647   4.002   1.296 -0.1667  0.0596 -0.5033
  202MOL    H8928631   2.773   3.874   1.464 -2.4706 -1.3754 -0.0952
  202MOL    H9028632   2.702   3.944   1.613  1.8194 -1.0802  0.2988
  202MOL    H9128633   2.640   4.145   1.438 -0.9015  0.3052  0.7685
  202MOL    H9228634   2.543   3.994   1.482  0.1817  0.3677  0.2743
  202MOL    C9328635   2.536   4.029   1.214  0.7751  0.1761 -0.1933
  202MOL    C9428636   2.554   4.009   1.064 -0.9035 -0.6142 -0.3306
  202MOL    O9528637   2.562   3.866   1.034 -0.0819  0.4319 -0.2283
  202MOL    H9628638   2.450   3.991   1.270 -0.1414  0.0130 -1.6992
  202MOL    H9728639   2.519   4.135   1.232  1.1284 -0.2001  2.7423
  202MOL    H9828640   2.639   4.063   1.024 -1.3957  1.1315  0.9263
  202MOL    H9928641   2.461   4.048   1.021 -1.2847 -0.2450  0.8134
  202MOL   C10028642   2.550   3.839   0.893  0.0903 -0.0033  0.6028
  202MOL   C10128643   2.691   3.835   0.825 -0.4261  0.0086 -0.0296
  202MOL   O10228644   2.753   3.704   0.836  0.0019  0.1234  0.0870
  202MOL   H10328645   2.492   3.747   0.882  0.5516 -0.3404  0.9664
  202MOL   H10428646   2.482   3.905   0.838 -1.2931 -1.4415  0.5477
  202MOL   H10528647   2.755   3.909   0.872 -0.1337  0.6133 -1.3689
  202MOL   H10628648   2.672   3.865   0.722 -0.3966  0.8332  0.2036
  202MOL   C10728649   2.878   3.692   0.764 -0.0585  0.1802  0.6209
  202MOL   C10828650   2.926   3.546   0.756 -0.3978 -0.1960 -0.1962
  202MOL   O10928651   2.968   3.484   0.873  0.1876 -0.0681  0.5159
  202MOL   H11028652   2.866   3.733   0.663  0.5880 -1.6263 -0.2041
  202MOL   H11128653   2.942   3.767   0.811  0.4234  0.1515  0.0233
  202MOL   H11228654   3.000   3.536   0.678  0.1147 -1.4854  0.4445
  202MOL   H11328655   2.841   3.485   0.724  1.0543 -2.6966  0.5873
  202MOL   C11428656   2.978   3.342   0.865 -1.4672 -0.8063  0.1772
  202MOL   C11528657   3.017   3.272   0.987 -0.2583  0.3619 -1.3150
  202MOL   O11628658   2.915   3.271   1.092  0.5725  0.0026 -0.1328
  202MOL   H11728659   2.886   3.299   0.824 -0.3554 -2.4895 -0.6224
  202MOL   H11828660   3.047   3.322   0.783 -0.5405 -0.9109  0.9823
  202MOL   H11928661   3.102   3.320   1.037 -1.1736  0.4425  0.1880
  202MOL   H12028662   3.033   3.168   0.960 -0.2442  0.3907 -1.4173
  202MOL   C12128663   2.900   3.398   1.154 -0.4063 -0.5453  0.3424
  202MOL   C12228664   2.783   3.395   1.245 -0.1879 -0.9069 -0.2431
  202MOL   O12328665   2.797   3.296   1.344  0.1618 -0.0021 -0.0641
  202MOL   H12428666   2.984   3.425   1.218 -2.0475 -0.6972  2.6328
  202MOL   H12528667   2.886   3.482   1.086  0.4760 -1.2766 -0.7632
  202MOL   H12628668   2.696   3.381   1.181 -0.1627 -1.3230 -0.1885
  202MOL   H12728669   2.758   3.484   1.301 -2.3718 -2.3448  1.1516
  202MOL   C12828670   2.692   3.299   1.445 -0.3020 -0.5216 -0.5593
  202MOL   C12928671   2.672   3.160   1.505  0.2882  0.9629 -0.0545
  202MOL   O13028672   2.772   3.130   1.596  0.3388 -0.2707  0.5960
  202MOL   H13128673   2.711   3.376   1.520  0.6633  0.3400 -1.6662
  202MOL   H13228674   2.597   3.309   1.392 -1.2313 -2.3364  0.6890
  202MOL   H13328675   2.676   3.087   1.424  0.6552 -0.7395  1.4619
  202MOL   H13428676   2.572   3.151   1.547 -0.9645  3.3152 -2.3619
  202MOL   C13528677   2.752   3.181   1.730  0.3766 -0.4888 -0.4887
  202MOL   C13628678   2.888   3.172   1.794  0.5300 -0.4381 -0.1624
  202MOL   O13728679   2.925   3.037   1.790  0.2682  0.0710 -0.2590
  202MOL   H13828680   2.717   3.284   1.737 -2.4021 -1.4156 -0.2383
  202MOL   H13928681   2.682   3.119   1.786  0.2695 -0.5425 -0.6798
  202MOL   H14028682   2.889   3.198   1.900 -1.0016  2.4013 -0.8168
  202MOL   H14128683   2.954   3.242   1.743  1.2473 -0.2444  1.0137
  202MOL   H14228684   2.965   3.019   1.707  0.8645  0.1300  0.0155
  203MOL     C128685   6.737   2.823   0.258 -0.3805 -0.6534  0.7213
  203MOL     C228686   6.751   2.714   0.349 -0.0649  0.5179  1.4346
  203MOL     O328687   6.695   2.751   0.470  0.1375 -0.1871 -0.3252
  203MOL     H428688   6.804   2.807   0.173  0.0271 -2.2130  1.3031
  203MOL     H528689   6.769   2.913   0.310 -1.9318  0.4905 -0.2507
  203MOL     H628690   6.853   2.682   0.368 -0.2408  0.4140  2.1911
  203MOL     H728691   6.700   2.626   0.310 -1.7933  0.9502  2.6673
  203MOL     H828692   6.635   2.850   0.232 -0.1736 -1.3763 -0.9513
  203MOL     C928693   6.643   2.636   0.550 -0.4816 -0.6234 -0.5816
  203MOL    C1028694   6.583   2.700   0.672  0.5198 -0.5135 -0.9538
  203MOL    O1128695   6.493   2.806   0.637  0.0261 -0.2186 -0.2956
  203MOL    H1228696   6.565   2.577   0.502  2.6912 -3.2783 -2.7662
  203MOL    H1328697   6.732   2.576   0.572 -0.8776 -0.5856  1.2053
  203MOL    H1428698   6.662   2.732   0.740 -0.5819 -0.5347  0.3519
  203MOL    H1528699   6.525   2.627   0.727  0.8476 -0.3114 -0.3308
  203MOL    C1628700   6.398   2.825   0.743 -0.4116  0.1083  0.0962
  203MOL    C1728701   6.286   2.902   0.672 -0.5323 -0.2605  0.3871
  203MOL    O1828702   6.195   2.816   0.598 -0.0486 -0.2049 -1.0321
  203MOL    H1928703   6.358   2.734   0.788 -0.5829  0.6702  1.1005
  203MOL    H2028704   6.445   2.886   0.820  0.2312 -1.2083  0.7573
  203MOL    H2128705   6.324   2.979   0.605  1.7675 -2.1124 -0.4870
  203MOL    H2228706   6.225   2.958   0.743 -0.4635  0.4117 -0.0757
  203MOL    C2328707   6.058   2.845   0.597  0.3335  0.4828  0.8912
  203MOL    C2428708   6.000   2.766   0.488 -0.3048 -0.2598 -0.3029
  203MOL    O2528709   5.989   2.629   0.524  0.8325 -0.0410  0.1596
  203MOL    H2628710   6.001   2.825   0.688  0.0478  2.6212  1.2129
  203MOL    H2728711   6.042   2.951   0.580  1.0329  0.5279  0.4945
  203MOL    H2828712   6.065   2.769   0.402 -0.2671  2.2016 -0.2121
  203MOL    H2928713   5.902   2.806   0.462  0.7877  2.7397  0.0903
  203MOL    C3028714   5.947   2.563   0.405  0.1080  0.0570 -0.0593
  203MOL    C3128715   5.908   2.422   0.455  0.5222 -0.1671 -0.1470
  203MOL    O3228716   6.010   2.363   0.519 -0.5295  0.3089 -0.3895
  203MOL    H3328717   5.859   2.609   0.360  0.3119  0.7146  0.2006
  203MOL    H3428718   6.023   2.564   0.327  2.0905 -0.3608  1.8086
  203MOL    H3528719   5.857   2.357   0.384 -1.9923  1.5112  0.0646
  203MOL    H3628720   5.836   2.445   0.533  0.4317  1.3490 -0.6723
  203MOL    C3728721   5.968   2.234   0.574 -0.1021 -0.2180 -0.2280
  203MOL    C3828722   6.085   2.156   0.630  0.0245 -0.2577  0.0080
  203MOL    O3928723   6.123   2.061   0.533 -0.1602 -0.4156 -0.0952
  203MOL    H4028724   5.891   2.247   0.650 -0.3513 -0.4952 -0.4296
  203MOL    H4128725   5.927   2.167   0.498 -0.5194 -1.0983  0.7666
  203MOL    H4228726   6.048   2.107   0.720 -1.2537 -0.1487 -0.4431
  203MOL    H4328727   6.174   2.215   0.655 -0.7943  0.1913  1.9139
  203MOL    C4428728   6.212   1.964   0.580 -0.7891 -0.2959 -0.4087
  203MOL    C4528729   6.249   1.869   0.470 -0.4451 -1.1531  0.0626
  203MOL    O4628730   6.330   1.927   0.367 -0.5347  0.0002 -0.4937
  203MOL    H4728731   6.304   2.001   0.625 -0.3200 -4.1429  1.9861
  203MOL    H4828732   6.162   1.914   0.663 -4.2794  3.4682 -0.0581
  203MOL    H4928733   6.163   1.826   0.418 -0.2207  1.3746 -2.4877
  203MOL    H5028734   6.298   1.774   0.492  1.0509 -0.7006 -1.2372
  203MOL    C5128735   6.448   1.855   0.325  0.4069  0.0844  0.0102
  203MOL    C5228736   6.529   1.944   0.226 -0.5012 -0.7012 -0.3127
  203MOL    O5328737   6.460   1.948   0.100 -0.3874 -0.3820  0.5569
  203MOL    H5428738   6.501   1.832   0.418  2.8306  1.3395 -1.0200
  203MOL    H5528739   6.432   1.759   0.274  2.2209  0.1713 -0.7577
  203MOL    H5628740   6.623   1.890   0.215  0.7542  0.5076  3.6622
  203MOL    H5728741   6.543   2.042   0.272  0.5442  0.3246 -2.7153
  203MOL    C5828742   6.523   2.047   0.018  0.3245  0.1736 -0.1841
  203MOL    C5928743   6.424   2.094   7.676  0.7236 -0.9353 -0.6832
  203MOL    O6028744   6.456   2.220   7.615  0.3268  0.6931 -0.7452
  203MOL    H6128745   6.541   2.132   0.082  2.4168 -0.4509  0.1116
  203MOL    H6228746   6.614   2.013   7.739  1.2788 -0.4701  1.9282
  203MOL    H6328747   6.320   2.094   7.706  1.0429 -0.3460  0.4584
  203MOL    H6428748   6.424   2.018   7.598  0.2742 -0.0428 -1.5629
  203MOL    C6528749   6.381   2.245   7.499  0.0755  0.5296  0.0497
  203MOL    C6628750   6.377   2.399   7.468 -0.1346  0.4712  0.4956
  203MOL    O6728751   6.510   2.438   7.418  0.0625 -0.3378 -0.5489
  203MOL    H6828752   6.404   2.180   7.415  0.2001  0.4187  0.1679
  203MOL    H6928753   6.280   2.215   7.527  0.0769 -1.4069 -1.8927
  203MOL    H7028754   6.355   2.463   7.552 -0.4122  1.2415 -0.1616
  203MOL    H7128755   6.302   2.413   7.391  1.4532 -1.8593 -1.5657
  203MOL    C7228756   6.554   2.385   7.289  0.3570  0.3902 -0.2419
  203MOL    C7328757   6.703   2.426   7.293 -1.1765 -0.4328  0.2469
  203MOL    O7428758   6.721   2.567   7.275  0.3712 -0.6813 -0.4116
  203MOL    H7528759   6.537   2.278   7.286 -2.9313  0.8347 -0.0966
  203MOL    H7628760   6.489   2.442   7.222 -1.8216  0.0269  1.5101
  203MOL    H7728761   6.765   2.375   7.220 -0.2260 -0.4864  1.0766
  203MOL    H7828762   6.753   2.395   7.385 -0.5789  0.2377  0.1614
  203MOL    C7928763   6.848   2.635   7.266 -0.0055 -0.8909  0.3965
  203MOL    C8028764   6.834   2.789   7.257 -0.1968  1.3956  0.0188
  203MOL    O8128765   6.837   2.819   7.121 -0.3863 -0.5058  0.3284
  203MOL    H8228766   6.903   2.618   7.359  1.5329 -0.0824 -0.3613
  203MOL    H8328767   6.905   2.575   7.196 -1.7878 -2.3157  0.1113
  203MOL    H8428768   6.927   2.812   7.309 -0.5211 -0.5387  1.5349
  203MOL    H8528769   6.748   2.834   7.307 -0.4392 -2.8717  3.7939
  203MOL    C8628770   6.824   2.956   7.109 -0.7995  0.1775 -0.5179
  203MOL    C8728771   6.844   3.003   6.966  0.2158  0.1101  0.7189
  203MOL    O8828772   6.981   3.027   6.935  0.3743 -0.0780  0.7888
  203MOL    H8928773   6.722   2.974   7.141 -0.4580  1.3140 -0.0454
  203MOL    H9028774   6.897   3.021   7.159 -0.6796  0.3024 -0.8521
  203MOL    H9128775   6.777   3.088   6.947 -2.3839 -2.0930 -0.3511
  203MOL    H9228776   6.812   2.921   6.902 -0.8069 -0.7273  2.2713
  203MOL    C9328777   7.012   3.096   6.816  0.1750 -0.5701 -0.0914
  203MOL    C9428778   6.958   3.015   6.690 -0.1392 -0.0197 -0.3153
  203MOL    O9528779   6.817   3.042   6.671  0.5299 -0.3291 -0.1876
  203MOL    H9628780   6.967   3.195   6.825  1.8773  0.1332  0.9390
  203MOL    H9728781   7.119   3.115   6.826 -0.3208  1.9241  0.8699
  203MOL    H9828782   6.979   2.908   6.696 -1.6996 -0.3028  0.3128
  203MOL    H9928783   7.014   3.047   6.602 -1.5174 -0.7909 -1.4974
  203MOL   C10028784   6.769   2.954   6.573  0.6235  0.3145 -0.5921
  203MOL   C10128785   6.613   2.957   6.572  0.3757  0.4566 -0.2996
  203MOL   O10228786   6.553   2.859   6.493 -0.3651 -0.4328 -0.0654
  203MOL   H10328787   6.811   2.968   6.473  1.6140 -0.8361 -0.3578
  203MOL   H10428788   6.788   2.849   6.598 -1.3745  0.7154  2.8682
  203MOL   H10528789   6.580   3.057   6.544 -2.8012  0.5359  3.2090
  203MOL   H10628790   6.570   2.938   6.671 -0.4064  1.0588 -0.5171
  203MOL   C10728791   6.415   2.856   6.493  0.2323  0.1642 -0.6992
  203MOL   C10828792   6.357   2.962   6.392 -0.2434  0.1122 -0.2799
  203MOL   O10928793   6.397   2.918   6.259  0.0684 -0.2322  0.1130
  203MOL   H11028794   6.402   2.752   6.465 -1.1851  0.2656 -0.4378
  203MOL   H11128795   6.371   2.862   6.593  2.2467  0.4741  0.2020
  203MOL   H11228796   6.384   3.065   6.412  0.4074  0.2988 -2.0472
  203MOL   H11328797   6.249   2.958   6.405 -0.1523  3.2504  2.0161
  203MOL   C11428798   6.337   2.990   6.149 -0.1005  0.5090  0.3634
  203MOL   C11528799   6.417   2.953   6.021 -0.2246 -0.0731  0.4615
  203MOL   O11628800   6.545   3.013   6.022  0.5143  0.2421 -0.3890
  203MOL   H11728801   6.229   2.977   6.141 -0.0303  0.3672 -0.3602
  203MOL   H11828802   6.336   3.097   6.170 -2.4445 -0.0417  3.4645
  203MOL   H11928803   6.374   3.008   5.938  1.6276  1.6757  0.6299
  203MOL   H12028804   6.409   2.846   5.999 -1.8024 -0.0239  0.7574
  203MOL   C12128805   6.639   2.944   6.097 -0.1504 -0.0661 -0.1030
  203MOL   C12228806   6.776   3.008   6.070  0.0127  0.5800  0.1330
  203MOL   O12328807   6.790   3.140   6.129  0.4457 -0.0985 -0.8319
  203MOL   H12428808   6.620   2.926   6.203 -1.4150 -2.5726 -0.7178
  203MOL   H12528809   6.640   2.843   6.057  0.5235 -0.0460 -0.1440
  203MOL   H12628810   6.799   2.998   5.964 -0.8552 -3.2298  0.2156
  203MOL   H12728811   6.842   2.940   6.125 -1.1409 -1.3624 -0.8191
  203MOL   C12828812   6.868   3.233   6.060 -0.0811 -1.1996 -0.0433
  203MOL   C12928813   6.776   3.290   5.944  0.7495 -0.7286 -0.1696
  203MOL   O13028814   6.708   3.401   5.997  0.2596  0.3998 -0.0616
  203MOL   H13128815   6.916   3.311   6.118 -0.2256  0.6896 -2.3768
  203MOL   H13228816   6.959   3.183   6.024  1.0057  0.5680  0.1953
  203MOL   H13328817   6.725   3.214   5.885  2.5720 -0.7584 -1.7574
  203MOL   H13428818   6.837   3.327   5.862 -0.2777  1.5368  0.0424
  203MOL   C13528819   6.788   3.517   6.010 -1.0859 -0.3715  0.1980
  203MOL   C13628820   6.693   3.638   6.019  0.4685 -0.3326  0.2264
  203MOL   O13728821   6.630   3.640   6.145  0.1828  0.2312  0.3106
  203MOL   H13828822   6.855   3.518   6.097 -2.0426  1.0510  0.9369
  203MOL   H13928823   6.854   3.537   5.926  0.7537 -0.6782  1.5398
  203MOL   H14028824   6.618   3.646   5.941 -0.8025 -1.2713  1.3218
  203MOL   H14128825   6.751   3.730   6.011  0.0780  0.0136  1.3190
  203MOL   H14228826   6.584   3.558   6.158  2.4849 -0.9265  1.3188
  204MOL     C128827   6.812   6.558   3.316 -0.1031 -0.5538  0.5713
  204MOL     C228828   6.758   6.669   3.409 -0.3090 -0.1958  0.7296
  204MOL     O328829   6.833   6.787   3.379  0.5804  0.0307  1.2640
  204MOL     H428830   6.744   6.473   3.327 -1.0968  0.0758 -0.5494
  204MOL     H528831   6.904   6.515   3.356 -0.5259 -0.8446  1.2313
  204MOL     H628832   6.757   6.635   3.512  0.8478  1.1131  1.1850
  204MOL     H728833   6.655   6.694   3.382 -0.2268 -1.9591 -1.3345
  204MOL     H828834   6.821   6.595   3.214  1.6200 -0.1108  0.8720
  204MOL     C928835   6.776   6.902   3.430 -0.0578 -0.3646  0.0609
  204MOL    C1028836   6.874   7.018   3.427 -0.6370 -0.7021  0.4350
  204MOL    O1128837   6.956   7.014   3.548  0.4109  0.1333  0.5791
  204MOL    H1228838   6.677   6.921   3.387 -0.1057  0.2627  0.4347
  204MOL    H1328839   6.758   6.885   3.536  3.3866 -3.5477  0.2407
  204MOL    H1428840   6.814   7.107   3.441  1.4073  0.6292  0.9853
  204MOL    H1528841   6.934   7.020   3.336 -0.3672 -0.4695  0.6151
  204MOL    C1628842   7.038   7.125   3.547  0.6059  0.7461 -0.2696
  204MOL    C1728843   7.121   7.145   3.674 -0.2382  0.4887 -0.4330
  204MOL    O1828844   7.199   7.266   3.671  0.2087 -0.5588  0.1017
  204MOL    H1928845   7.098   7.116   3.457  1.6535 -0.7312  0.5608
  204MOL    H2028846   6.977   7.213   3.525 -1.2162 -1.0013 -2.4208
  204MOL    H2128847   7.189   7.060   3.678 -2.8522 -1.5839  1.9176
  204MOL    H2228848   7.056   7.131   3.760  1.8379 -0.4438  1.0237
  204MOL    C2328849   7.276   7.288   3.794 -0.1828  0.3225 -0.3830
  204MOL    C2428850   7.383   7.185   3.823  0.1561 -0.5650 -0.0730
  204MOL    O2528851   7.310   7.094   3.904 -0.2853  0.3073 -0.2252
  204MOL    H2628852   7.321   7.385   3.775 -0.7593  0.6021 -0.3545
  204MOL    H2728853   7.211   7.305   3.881  0.8583  0.7435  0.3200
  204MOL    H2828854   7.457   7.232   3.888 -0.7783 -0.2269  0.7631
  204MOL    H2928855   7.428   7.140   3.735 -1.2873  1.5177 -1.9326
  204MOL    C3028856   7.384   6.979   3.941 -0.4178  0.4063 -0.0643
  204MOL    C3128857   7.451   6.900   3.824  0.7563  0.2094 -0.6565
  204MOL    O3228858   7.584   6.941   3.809  0.1473 -0.0034  0.1100
  204MOL    H3328859   7.457   7.010   4.016  1.4624  0.0782 -1.7190
  204MOL    H3428860   7.318   6.911   3.995 -2.2759  3.3537  1.5199
  204MOL    H3528861   7.393   6.912   3.732 -0.1735 -1.5884 -0.3109
  204MOL    H3628862   7.462   6.793   3.841  0.9778  0.6864  2.3656
  204MOL    C3728863   7.632   6.952   3.670  0.2134 -0.3255 -0.9849
  204MOL    C3828864   7.751   7.059   3.670 -0.8459 -0.2412 -0.1673
  204MOL    O3928865   0.105   6.997   3.689 -0.0580  0.3755  0.0564
  204MOL    H4028866   7.653   6.852   3.633 -1.6145 -0.3320 -2.0859
  204MOL    H4128867   7.548   6.986   3.608  0.7528  0.9268 -1.0536
  204MOL    H4228868   7.728   7.127   3.751  3.5498 -1.0933  1.9534
  204MOL    H4328869   7.750   7.112   3.575 -1.3409 -0.2779 -0.1860
  204MOL    C4428870   0.212   7.083   3.670  0.4933 -0.0001 -0.2554
  204MOL    C4528871   0.230   7.120   3.521  1.3433  0.3751 -0.3248
  204MOL    O4628872   0.157   7.236   3.503 -0.4452 -0.5742 -0.3136
  204MOL    H4728873   0.223   7.156   3.750  0.0925 -1.0669  0.7934
  204MOL    H4828874   0.289   7.010   3.698 -1.2278 -1.4363  0.8788
  204MOL    H4928875   0.185   7.045   3.457  1.1329  1.0494 -0.9737
  204MOL    H5028876   0.332   7.134   3.486  1.6612  0.7618  0.7457
  204MOL    C5128877   0.148   7.273   3.365  0.6630 -0.4446  0.0834
  204MOL    C5228878   0.037   7.368   3.339  0.6836 -0.0111  0.0522
  204MOL    O5328879   0.020   7.386   3.195  0.6241  0.0953  0.1481
  204MOL    H5428880   0.239   7.324   3.332  0.0379  1.0637  0.6602
  204MOL    H5528881   0.137   7.190   3.296 -2.0401  0.2646 -0.3847
  204MOL    H5628882   0.045   7.460   3.397  0.2439  0.9316 -1.3675
  204MOL    H5728883   7.719   7.328   3.388  0.3176  0.1114 -0.5086
  204MOL    C5828884   7.691   7.475   3.152  0.2343 -0.1690  0.0398
  204MOL    C5928885   7.712   7.466   2.999  0.3859  0.0060  0.3642
  204MOL    O6028886   7.635   7.355   2.961  0.5091 -0.1956  0.1446
  204MOL    H6128887   7.589   7.444   3.172 -0.1131  0.1209 -1.2801
  204MOL    H6228888   7.708   7.576   3.191  0.3701  0.8558 -2.5484
  204MOL    H6328889   0.046   7.452   2.976 -0.2979 -3.5206 -0.9295
  204MOL    H6428890   7.678   7.555   2.947 -1.5262 -1.3961 -0.8558
  204MOL    C6528891   7.660   7.325   2.820  0.2028 -0.4575  0.3616
  204MOL    C6628892   7.603   7.193   2.769  0.3082 -0.5431  0.5298
  204MOL    O6728893   7.475   7.239   2.713  0.2968  0.2432 -0.5332
  204MOL    H6828894   7.617   7.411   2.769 -1.7431 -1.5221  0.1215
  204MOL    H6928895   7.767   7.327   2.800  0.0529 -0.1087 -0.4403
  204MOL    H7028896   7.602   7.122   2.852 -2.2828  0.4254  1.3673
  204MOL    H7128897   7.668   7.164   2.687 -2.3693 -1.3253 -1.3921
  204MOL    C7228898   7.400   7.129   2.654 -0.8205 -0.3421  0.5149
  204MOL    C7328899   7.272   7.174   2.580  0.4565 -0.8458 -0.5625
  204MOL    O7428900   7.173   7.203   2.677 -0.4533  0.1199 -0.0197
  204MOL    H7528901   7.462   7.085   2.576 -2.1502 -2.2565  0.5100
  204MOL    H7628902   7.393   7.046   2.725 -0.2708 -1.0236 -0.2210
  204MOL    H7728903   7.232   7.102   2.508 -0.4593  1.1189 -2.0798
  204MOL    H7828904   7.283   7.258   2.510 -2.2642 -0.3910 -0.4908
  204MOL    C7928905   7.102   7.088   2.728 -0.6606 -0.8465  0.2898
  204MOL    C8028906   6.991   7.134   2.823  0.7383 -0.0635 -0.5579
  204MOL    O8128907   7.038   7.153   2.951 -0.0944 -0.1608  0.0299
  204MOL    H8228908   7.058   7.039   2.642  1.3097 -1.7581 -0.2349
  204MOL    H8328909   7.179   7.041   2.790 -0.0385  1.5283  1.3941
  204MOL    H8428910   6.923   7.050   2.831 -0.9059  1.0396 -2.2921
  204MOL    H8528911   6.936   7.220   2.783 -1.1392  1.2008  4.4217
  204MOL    C8628912   7.126   7.264   2.974 -0.1032  0.5099 -0.3443
  204MOL    C8728913   7.154   7.294   3.122  0.3716  0.2853 -0.0901
  204MOL    O8828914   7.028   7.336   3.172  0.4709  0.3895  0.4760
  204MOL    H8928915   7.221   7.227   2.937  0.7749  0.9284  1.4731
  204MOL    H9028916   7.094   7.356   2.924 -1.4489 -0.5077 -1.3965
  204MOL    H9128917   7.226   7.373   3.144 -1.6023  1.3718  2.7842
  204MOL    H9228918   7.199   7.214   3.181 -1.0109  1.0190  2.0153
  204MOL    C9328919   7.038   7.416   3.286  0.3359 -0.3538  1.1176
  204MOL    C9428920   6.908   7.474   3.341  0.1858 -0.7445 -0.6278
  204MOL    O9528921   6.841   7.367   3.401  0.0481 -0.3166  0.1084
  204MOL    H9628922   7.080   7.360   3.369  1.3221 -2.1099 -0.5270
  204MOL    H9728923   7.097   7.503   3.256  1.8492 -2.2240 -1.5631
  204MOL    H9828924   6.848   7.518   3.261  3.5689 -0.8839 -3.4173
  204MOL    H9928925   6.940   7.551   3.411 -2.8502  0.5034 -0.5592
  204MOL   C10028926   6.747   7.412   3.503  0.9567 -0.7420 -0.2822
  204MOL   C10128927   6.670   7.293   3.570 -0.0925 -0.3744 -0.2467
  204MOL   O10228928   6.595   7.226   3.474 -0.1740 -0.2616 -0.1599
  204MOL   H10328929   6.801   7.470   3.579 -1.5713  0.2785  0.7795
  204MOL   H10428930   6.675   7.487   3.470  0.4585 -0.0282  2.3198
  204MOL   H10528931   6.607   7.322   3.654 -0.1907  0.9493 -0.7638
  204MOL   H10628932   6.749   7.230   3.611 -0.6102 -1.6508 -1.1537
  204MOL   C10728933   6.477   7.297   3.432  0.6088 -0.0372 -0.3734
  204MOL   C10828934   6.413   7.209   3.325 -0.1266  0.6545  0.4106
  204MOL   O10928935   6.473   7.226   3.195  0.1515 -0.0953 -0.4215
  204MOL   H11028936   6.406   7.319   3.511  0.1382  0.3140 -0.8974
  204MOL   H11128937   6.494   7.398   3.396  1.1699 -0.7152 -2.0549
  204MOL   H11228938   6.305   7.198   3.326 -0.0253 -0.4653  0.0572
  204MOL   H11328939   6.430   7.103   3.345 -3.0807  0.0640  0.0455
  204MOL   C11428940   6.611   7.194   3.174 -0.2740 -0.6316 -0.5626
  204MOL   C11528941   6.665   7.189   3.031 -0.2037 -0.5366  0.0614
  204MOL   O11628942   6.712   7.308   2.968 -0.0850 -0.3147  0.0228
  204MOL   H11728943   6.672   7.261   3.233  0.0760 -0.8295 -0.6967
  204MOL   H11828944   6.622   7.094   3.216  1.0044  0.1390  0.9724
  204MOL   H11928945   6.600   7.132   2.964 -1.1608  1.1366 -0.4535
  204MOL   H12028946   6.754   7.125   3.035  0.2828  0.2741  2.4452
  204MOL   C12128947   6.624   7.418   2.976 -0.1183  0.1572  0.3279
  204MOL   C12228948   6.662   7.528   2.885 -0.6665 -0.0181  0.3119
  204MOL   O12328949   6.763   7.601   2.944  0.0304  0.0327  0.2022
  204MOL   H12428950   6.520   7.393   2.960 -0.5677  0.6617  2.2637
  204MOL   H12528951   6.628   7.457   3.078  1.6297 -0.7359  0.6219
  204MOL   H12628952   6.572   7.584   2.859 -0.9353 -1.3649 -1.7907
  204MOL   H12728953   6.696   7.481   2.793 -1.6568 -1.4420  0.6624
  204MOL   C12828954   6.891   7.552   2.939  0.1941 -0.1385 -0.4003
  204MOL   C12928955   6.992   7.646   3.012 -0.5493  0.7017  0.4380
  204MOL   O13028956   7.015   7.755   2.926  0.6180 -0.7013  0.1246
  204MOL   H13128957   6.907   7.457   2.990  1.8151  0.5020  0.2982
  204MOL   H13228958   6.924   7.541   2.835  0.4113 -0.2449 -0.3200
  204MOL   H13328959   7.081   7.583   3.019 -0.0901  1.2392 -0.5129
  204MOL   H13428960   6.963   7.678   3.112  1.9972  1.7268  0.8715
  204MOL   C13528961   7.103   0.076   2.980  0.5645  1.0190 -0.6210
  204MOL   C13628962   7.136   0.196   2.895 -1.0817 -0.5755  0.5798
  204MOL   O13728963   7.238   0.267   2.961  0.0674  0.3250 -0.2144
  204MOL   H13828964   7.052   0.127   3.062  1.0668  0.5361 -0.0015
  204MOL   H13928965   7.191   0.025   3.018  0.4335  1.4783  0.3174
  204MOL   H14028966   7.055   0.268   2.887  0.0255  0.5336 -0.9957
  204MOL   H14128967   7.159   0.164   2.793 -2.1477 -1.5887  0.6394
  204MOL   H14228968   7.197   0.315   3.031 -2.9043  0.9102 -2.2459
  205MOL     C128969   5.648   1.737   1.710 -0.5184 -0.4366  1.0985
  205MOL     C228970   5.677   1.654   1.578  0.1780  0.4820  0.8420
  205MOL     O328971   5.690   1.518   1.611 -0.1904  0.5466 -0.0252
  205MOL     H428972   5.733   1.725   1.778  0.3448  0.0303  0.1159
  205MOL     H528973   5.555   1.710   1.760 -1.6874 -0.6732 -1.1769
  205MOL     H628974   5.769   1.692   1.535  0.5133 -0.3629  0.8090
  205MOL     H728975   5.599   1.672   1.504 -0.6933 -0.0608  1.6144
  205MOL     H828976   5.625   1.837   1.673 -2.8370 -0.6439  1.8756
  205MOL     C928977   5.697   1.435   1.498  0.1453  1.3042  0.5208
  205MOL    C1028978   5.766   1.297   1.510 -0.6543  0.1072 -0.2708
  205MOL    O1128979   5.720   1.235   1.623 -0.1762  0.1310  0.0294
  205MOL    H1228980   5.599   1.417   1.454  1.2466  0.1078 -1.5433
  205MOL    H1328981   5.743   1.485   1.413 -0.7124 -0.8930 -1.2933
  205MOL    H1428982   5.874   1.313   1.514 -0.4064 -1.7360  1.4294
  205MOL    H1528983   5.742   1.241   1.420  0.6869 -2.5499  0.9513
  205MOL    C1628984   5.796   1.112   1.647  0.1943 -0.1711  0.1749
  205MOL    C1728985   5.715   1.013   1.719  0.0424  0.2708  0.2225
  205MOL    O1828986   5.677   1.055   1.850  0.4875 -0.0474  0.0882
  205MOL    H1928987   5.837   1.063   1.559 -3.0575 -0.6203 -1.1389
  205MOL    H2028988   5.881   1.128   1.715  1.0082 -1.9245 -0.3801
  205MOL    H2128989   5.772   0.920   1.717 -1.1800 -0.4745 -1.2530
  205MOL    H2228990   5.623   0.983   1.668  0.6640 -1.9885  0.3959
  205MOL    C2328991   5.599   0.955   1.918 -0.8717  0.0371 -0.0625
  205MOL    C2428992   5.550   1.018   2.047 -0.9971 -0.0131 -0.4378
  205MOL    O2528993   5.653   1.014   2.152  0.3765  0.3120 -0.1926
  205MOL    H2628994   5.514   0.916   1.862 -0.0743  0.1626 -1.3720
  205MOL    H2728995   5.673   0.878   1.942  0.5408  1.9656  1.9761
  205MOL    H2828996   5.468   0.952   2.077  0.2425 -1.6797 -0.6047
  205MOL    H2928997   5.516   1.117   2.017 -0.6304 -0.1818 -1.4479
  205MOL    C3028998   5.602   1.082   2.268 -0.0326 -0.3644  0.9736
  205MOL    C3128999   5.711   1.072   2.385  0.2139 -0.8530 -0.8310
  205MOL    O3229000   5.832   1.124   2.330  0.2487 -0.3566  0.1378
  205MOL    H3329001   5.567   1.181   2.242 -0.9651 -0.6300  1.1998
  205MOL    H3429002   5.513   1.039   2.313 -2.0821  2.0934 -0.6489
  205MOL    H3529003   5.720   0.967   2.412  0.2829 -0.7999 -0.6485
  205MOL    H3629004   5.675   1.125   2.472 -2.2571 -1.9468 -1.1473
  205MOL    C3729005   5.940   1.085   2.403 -0.6985  0.3390  0.5574
  205MOL    C3829006   6.060   1.169   2.361  0.0580  0.5510 -0.4750
  205MOL    O3929007   6.143   1.175   2.474 -0.0933 -0.4137  0.0758
  205MOL    H4029008   5.933   1.113   2.508  0.3623 -0.0053  0.7278
  205MOL    H4129009   5.955   0.977   2.413 -2.7816 -0.0695 -0.4030
  205MOL    H4229010   6.018   1.267   2.340 -2.0238  0.4513  2.7835
  205MOL    H4329011   6.099   1.132   2.266  1.4883  0.1783  0.2441
  205MOL    C4429012   6.259   1.252   2.442  0.5719  0.3605  0.0995
  205MOL    C4529013   6.232   1.402   2.465 -0.5734  0.0546 -0.2146
  205MOL    O4629014   6.189   1.449   2.338  0.2771 -0.0827  0.6573
  205MOL    H4729015   6.341   1.223   2.507 -0.0616  0.2371  0.8442
  205MOL    H4829016   6.290   1.222   2.342 -1.4391  0.9275 -0.7246
  205MOL    H4929017   6.320   1.457   2.498 -1.0269  0.0708  1.0100
  205MOL    H5029018   6.152   1.406   2.539 -0.4624 -0.7906 -0.0488
  205MOL    C5129019   6.148   1.581   2.345 -0.2157  0.0039  0.3431
  205MOL    C5229020   6.110   1.624   2.202  0.2658  0.1992  0.4977
  205MOL    O5329021   6.220   1.692   2.142 -0.0770 -0.1208  0.2791
  205MOL    H5429022   6.066   1.589   2.416 -3.4307  0.7211 -3.2538
  205MOL    H5529023   6.223   1.655   2.374 -2.5475  3.0354 -1.0694
  205MOL    H5629024   6.025   1.691   2.209 -1.5458 -2.0027  0.1307
  205MOL    H5729025   6.058   1.548   2.144  0.7225 -0.6423  1.1771
  205MOL    C5829026   6.330   1.613   2.117 -0.0395 -0.0931  0.2999
  205MOL    C5929027   6.445   1.692   2.058 -0.2243 -0.2517 -0.2464
  205MOL    O6029028   6.512   1.774   2.155 -0.4987  0.2296  0.4354
  205MOL    H6129029   6.356   1.555   2.206 -1.1387 -2.5833 -0.9659
  205MOL    H6229030   6.309   1.533   2.047  0.8266 -0.4024  0.3876
  205MOL    H6329031   6.417   1.757   1.975  0.4040  0.7205  0.2914
  205MOL    H6429032   6.524   1.630   2.015 -1.2124 -0.5444 -1.6487
  205MOL    C6529033   6.633   1.829   2.094 -0.4127  0.1968 -0.1808
  205MOL    C6629034   6.688   1.951   2.160  0.3893  0.0695 -0.2957
  205MOL    O6729035   6.616   2.064   2.126 -0.3634 -0.3410  0.5292
  205MOL    H6829036   6.701   1.743   2.093 -1.9948 -1.0874 -0.2670
  205MOL    H6929037   6.611   1.849   1.989 -0.0516 -0.1049 -0.3164
  205MOL    H7029038   6.788   1.969   2.120  0.3196  1.3274  0.0734
  205MOL    H7129039   6.682   1.941   2.269 -0.1436 -0.7474 -0.3950
  205MOL    C7229040   6.508   2.097   2.213  0.6721 -0.4228 -0.3258
  205MOL    C7329041   6.447   2.224   2.169  0.2271 -0.3821  0.0485
  205MOL    O7429042   6.330   2.211   2.096  0.6212  0.1286  0.1505
  205MOL    H7529043   6.427   2.023   2.216  0.7268 -0.4217  1.4796
  205MOL    H7629044   6.540   2.105   2.316  1.0075  0.9892 -0.5343
  205MOL    H7729045   6.529   2.281   2.124 -0.2326  0.3499  0.1386
  205MOL    H7829046   6.426   2.296   2.248 -0.4924  0.5306 -0.9583
  205MOL    C7929047   6.338   2.150   1.970 -0.7668 -0.4980  0.3867
  205MOL    C8029048   6.228   2.186   1.871  0.0861 -0.6039 -0.1537
  205MOL    O8129049   6.205   2.324   1.838 -0.4445  0.0013  0.2805
  205MOL    H8229050   6.436   2.180   1.931 -0.8468 -0.8165 -0.0616
  205MOL    H8329051   6.341   2.043   1.987 -3.3522 -0.4706  1.1697
  205MOL    H8429052   6.130   2.153   1.906 -0.0980  0.9579  0.8384
  205MOL    H8529053   6.255   2.150   1.772  0.0138  0.8344 -0.7031
  205MOL    C8629054   6.119   2.394   1.941  0.2416 -0.6142  0.1945
  205MOL    C8729055   6.083   2.537   1.887 -0.7638  0.0299  0.0003
  205MOL    O8829056   6.212   2.608   1.886  0.5800 -0.4327 -0.5903
  205MOL    H8929057   6.021   2.349   1.957 -0.3533  0.6676  0.1327
  205MOL    H9029058   6.177   2.406   2.033  1.7401  0.2037 -0.8368
  205MOL    H9129059   6.013   2.590   1.951  0.3713 -0.4067  1.6431
  205MOL    H9229060   6.043   2.533   1.786  0.8769  2.8985 -0.8276
  205MOL    C9329061   6.228   2.733   1.818  0.8671  0.3643  0.0933
  205MOL    C9429062   6.210   2.842   1.920 -0.2714 -0.0103  0.2691
  205MOL    O9529063   6.078   2.892   1.915  0.7008  0.0634 -0.3243
  205MOL    H9629064   6.327   2.740   1.772  0.8487 -2.1939 -0.3998
  205MOL    H9729065   6.160   2.739   1.733 -0.3543 -0.6950  0.9901
  205MOL    H9829066   6.281   2.921   1.894  0.0340 -0.2264  0.4497
  205MOL    H9929067   6.245   2.803   2.016 -3.1324  1.8796  2.1464
  205MOL   C10029068   6.050   3.014   1.985  0.0780 -0.3752 -0.5909
  205MOL   C10129069   5.898   3.044   1.965 -0.5388 -0.6488  0.0402
  205MOL   O10229070   5.827   2.987   2.067 -0.2849 -0.3745  0.0686
  205MOL   H10329071   6.085   3.021   2.088  0.7874  0.1664 -0.8703
  205MOL   H10429072   6.097   3.096   1.931 -1.0083  0.2979 -0.5297
  205MOL   H10529073   5.872   3.002   1.868  2.0222 -0.5179 -0.7495
  205MOL   H10629074   5.889   3.152   1.979 -2.7599 -0.8054 -0.0639
  205MOL   C10729075   5.684   3.016   2.062  0.3531 -0.0972 -0.7065
  205MOL   C10829076   5.612   2.944   1.945  0.2104 -0.1276  0.1091
  205MOL   O10929077   5.638   3.018   1.826  0.3733  0.1627  0.2389
  205MOL   H11029078   5.649   2.982   2.159  2.7179 -1.6785 -0.3695
  205MOL   H11129079   5.664   3.123   2.055  2.0807  0.3547  0.8790
  205MOL   H11229080   5.503   2.935   1.955  0.0098 -0.5707 -2.1307
  205MOL   H11329081   5.647   2.841   1.935 -0.4317 -0.3331 -0.0971
  205MOL   C11429082   5.615   2.940   1.700  0.1153  0.0004 -0.2109
  205MOL   C11529083   5.468   2.896   1.683 -0.6822 -0.3266  0.2468
  205MOL   O11629084   5.449   2.765   1.750  0.7181 -0.6518 -0.2871
  205MOL   H11729085   5.655   2.999   1.617 -1.0082  2.3177  0.8673
  205MOL   H11829086   5.680   2.852   1.703  0.4249  0.2578  0.9662
  205MOL   H11929087   5.433   2.903   1.580  0.2405 -1.6387 -0.1660
  205MOL   H12029088   5.407   2.964   1.743  2.2012  1.6374  1.0308
  205MOL   C12129089   5.314   2.716   1.749 -0.2256  0.1479  0.9831
  205MOL   C12229090   5.300   2.619   1.629  0.6517  0.4484  1.0761
  205MOL   O12329091   5.384   2.508   1.650 -0.2891  0.2456 -0.3446
  205MOL   H12429092   5.280   2.679   1.846 -0.3068  0.7931  1.2064
  205MOL   H12529093   5.250   2.801   1.724  0.7069  0.8214  0.8245
  205MOL   H12629094   5.329   2.665   1.535  1.7594 -2.4712 -0.0948
  205MOL   H12729095   5.197   2.583   1.621  1.5497 -2.2321  1.0971
  205MOL   C12829096   5.513   2.504   1.581 -0.5529 -0.2572  0.2662
  205MOL   C12929097   5.573   2.364   1.576  0.1912  0.2302 -0.0874
  205MOL   O13029098   5.493   2.283   1.500  0.2904 -0.4944  0.7609
  205MOL   H13129099   5.497   2.532   1.477  3.6192  0.6217 -0.2242
  205MOL   H13229100   5.588   2.570   1.625  0.7176 -2.0376  0.8255
  205MOL   H13329101   5.575   2.322   1.677  0.1692  0.9564  0.2198
  205MOL   H13429102   5.674   2.365   1.534  0.7838 -0.8852  1.2545
  205MOL   C13529103   5.518   2.138   1.516 -0.0159 -1.2359  0.6293
  205MOL   C13629104   5.405   2.052   1.466 -0.7614  0.0897  0.1642
  205MOL   O13729105   5.413   1.925   1.527 -0.5062  0.6976  0.0308
  205MOL   H13829106   5.607   2.108   1.461  0.6387  1.3953  0.1763
  205MOL   H13929107   5.542   2.129   1.622 -2.6358 -0.1979  1.3510
  205MOL   H14029108   5.413   2.043   1.358  0.8495  0.7990  0.2118
  205MOL   H14129109   5.304   2.094   1.477 -1.5213 -2.1931  2.4793
  205MOL   H14229110   5.338   1.874   1.498  0.9273 -0.6411 -1.4390
  206MOL     C129111   3.297   6.273   1.389  0.2116 -0.5811 -0.4945
  206MOL     C229112   3.337   6.412   1.426  0.1769  1.0760 -0.2168
  206MOL     O329113   3.384   6.474   1.302 -0.1222  0.2723  0.4986
  206MOL     H429114   3.221   6.269   1.311 -2.2866  0.0277  1.8452
  206MOL     H529115   3.250   6.221   1.472  1.2925  0.4145  0.7485
  206MOL     H629116   3.416   6.411   1.502  1.0926 -0.2455 -1.1743
  206MOL     H729117   3.262   6.469   1.482  0.1130 -0.0884  0.8966
  206MOL     H829118   3.377   6.204   1.363  1.2183  0.1828  0.5369
  206MOL     C929119   3.412   6.610   1.318  0.4026 -0.7433 -0.4894
  206MOL    C1029120   3.286   6.691   1.281  0.1776 -0.1673 -0.3606
  206MOL    O1129121   3.186   6.696   1.387  0.3409 -0.9795  0.0226
  206MOL    H1229122   3.448   6.640   1.417  1.8510 -1.3919 -0.7961
  206MOL    H1329123   3.496   6.631   1.251  1.6702 -0.9064  1.0003
  206MOL    H1429124   3.244   6.647   1.190 -0.4529 -1.2787  0.4612
  206MOL    H1529125   3.313   6.794   1.258 -1.2088 -0.2224 -2.4254
  206MOL    C1629126   3.077   6.786   1.350 -0.3998 -0.2834  0.4549
  206MOL    C1729127   2.964   6.779   1.460 -0.1142  0.0208 -0.6645
  206MOL    O1829128   2.930   6.646   1.483 -0.5500  0.1590  0.3992
  206MOL    H1929129   3.119   6.886   1.338  0.4778 -0.8757 -1.6286
  206MOL    H2029130   3.037   6.756   1.253 -0.6502 -1.5013  0.9304
  206MOL    H2129131   2.884   6.841   1.420  1.5310  2.5394 -0.2115
  206MOL    H2229132   2.997   6.826   1.553  1.8360 -0.9223 -0.8466
  206MOL    C2329133   2.849   6.619   1.602 -0.6044  0.0019  0.0940
  206MOL    C2429134   2.807   6.472   1.601  0.0364 -0.0479  0.0285
  206MOL    O2529135   2.887   6.386   1.686 -0.1900  0.2009 -0.0451
  206MOL    H2629136   2.891   6.658   1.694  0.9870 -0.5992 -0.3719
  206MOL    H2729137   2.755   6.675   1.603 -1.3933 -1.2960  0.7764
  206MOL    H2829138   2.810   6.450   1.495  2.6181  3.1730 -0.6405
  206MOL    H2929139   2.701   6.459   1.624 -0.2592  2.1302  0.0200
  206MOL    C3029140   3.014   6.366   1.633 -0.1375  0.1677  1.0568
  206MOL    C3129141   3.090   6.292   1.749  0.1597 -0.4042  0.2866
  206MOL    O3229142   3.231   6.264   1.735  0.6659  0.2024  0.4128
  206MOL    H3329143   3.007   6.308   1.542  0.7071 -0.5119  1.4097
  206MOL    H3429144   3.065   6.459   1.606 -0.3678  0.4374  1.5376
  206MOL    H3529145   3.038   6.198   1.767 -0.1691 -0.7487 -2.3837
  206MOL    H3629146   3.081   6.360   1.835  1.7185 -2.0991  1.8275
  206MOL    C3729147   3.294   6.230   1.860  0.1760  0.0435  0.2141
  206MOL    C3829148   3.445   6.219   1.824  1.0098 -1.1837 -0.1139
  206MOL    O3929149   3.491   6.090   1.818 -0.3887 -0.1299  0.0879
  206MOL    H4029150   3.274   6.306   1.936 -2.1980 -2.1897  1.8865
  206MOL    H4129151   3.261   6.134   1.898  0.3975  0.5891  1.8302
  206MOL    H4229152   3.493   6.283   1.898 -2.8573  2.1780 -0.3117
  206MOL    H4329153   3.461   6.270   1.729 -0.0409  0.0942  0.3700
  206MOL    C4429154   3.627   6.093   1.793 -0.1850 -0.2156 -0.1159
  206MOL    C4529155   3.678   5.949   1.785 -0.1904  0.2675  0.1782
  206MOL    O4629156   3.667   5.886   1.909 -0.2732 -0.3624 -0.4984
  206MOL    H4729157   3.637   6.145   1.698 -2.8525  0.5022 -0.0289
  206MOL    H4829158   3.694   6.139   1.866 -1.6221  0.7402  0.6069
  206MOL    H4929159   3.781   5.945   1.748 -0.0983  3.4049 -0.0348
  206MOL    H5029160   3.619   5.887   1.717  1.7986 -0.3865 -1.0028
  206MOL    C5129161   3.688   5.749   1.910  0.4141 -0.7231  0.5757
  206MOL    C5229162   3.665   5.702   2.057  0.4444 -0.0881  0.5156
  206MOL    O5329163   3.524   5.677   2.071 -0.7485  0.0580 -0.7819
  206MOL    H5429164   3.620   5.687   1.851  1.0519  0.3164 -1.2798
  206MOL    H5529165   3.792   5.724   1.887  0.6574  0.3481  0.4818
  206MOL    H5629166   3.691   5.778   2.131  1.7635 -0.7600  0.7536
  206MOL    H5729167   3.732   5.620   2.084 -0.3114 -1.0267 -0.4400
  206MOL    C5829168   3.476   5.673   2.205  0.5933  0.3182 -0.0001
  206MOL    C5929169   3.350   5.763   2.216 -0.2837 -1.4803 -0.4829
  206MOL    O6029170   3.390   5.899   2.249  0.3360  0.2284 -0.5708
  206MOL    H6129171   3.453   5.572   2.239 -2.4982  0.9880 -0.0050
  206MOL    H6229172   3.559   5.705   2.268  0.7830 -0.3638  0.1034
  206MOL    H6329173   3.295   5.727   2.303  0.1200 -3.3207 -0.9552
  206MOL    H6429174   3.279   5.756   2.133  0.4980  1.2255 -1.4397
  206MOL    C6529175   3.400   5.979   2.131  0.2792 -0.1263 -0.2239
  206MOL    C6629176   3.447   6.119   2.179 -0.0612  0.4223  0.2244
  206MOL    O6729177   3.347   6.220   2.173 -0.2575 -0.0629 -0.3759
  206MOL    H6829178   3.484   5.948   2.069 -0.1951 -0.6639 -0.5980
  206MOL    H6929179   3.313   5.995   2.068  0.8895 -3.7934 -2.1520
  206MOL    H7029180   3.520   6.165   2.112 -1.0469  1.0548 -0.4291
  206MOL    H7129181   3.499   6.121   2.275  1.2676  0.6916 -0.4914
  206MOL    C7229182   3.249   6.209   2.274  0.0108  0.3271  0.1524
  206MOL    C7329183   3.124   6.283   2.230  0.2175  0.3991 -0.1491
  206MOL    O7429184   3.035   6.300   2.336  0.8166  0.6511  0.1585
  206MOL    H7529185   3.230   6.104   2.299  0.3241 -0.0397 -1.1122
  206MOL    H7629186   3.286   6.251   2.368  2.3739 -0.0474 -0.5596
  206MOL    H7729187   3.077   6.228   2.148 -0.0954 -1.2233  1.0837
  206MOL    H7829188   3.144   6.377   2.179 -3.1395  1.7511  0.8696
  206MOL    C7929189   2.916   6.377   2.316 -0.1788 -0.9573  0.4374
  206MOL    C8029190   2.831   6.365   2.441 -0.2058 -0.5213 -0.3348
  206MOL    O8129191   2.832   6.472   2.536 -0.5362 -0.1641 -0.3457
  206MOL    H8229192   2.942   6.481   2.297 -0.0927 -1.4645 -2.5044
  206MOL    H8329193   2.864   6.333   2.232  0.6558 -3.0608  0.9976
  206MOL    H8429194   2.867   6.278   2.496 -0.2415 -0.6468 -0.5097
  206MOL    H8529195   2.729   6.339   2.414 -0.6450  0.2996  0.5097
  206MOL    C8629196   2.785   6.427   2.661  0.0206 -0.3820 -0.0602
  206MOL    C8729197   2.777   6.551   2.751 -0.2713 -0.3930 -0.3526
  206MOL    O8829198   2.665   6.526   2.830 -0.0992 -0.3931  0.0730
  206MOL    H8929199   2.682   6.394   2.656  0.0376 -0.5362  0.5642
  206MOL    H9029200   2.844   6.356   2.719 -3.1177  0.5237  4.5692
  206MOL    H9129201   2.768   6.645   2.697  1.9256  0.0647  0.0121
  206MOL    H9229202   2.870   6.556   2.808 -0.3165  1.2839 -0.4043
  206MOL    C9329203   2.642   6.619   2.935 -0.3376  0.2592  0.2714
  206MOL    C9429204   2.547   6.566   3.048 -0.4509  0.0964  0.5805
  206MOL    O9529205   2.591   6.439   3.093 -0.2980  0.0463 -0.2103
  206MOL    H9629206   2.742   6.641   2.974 -0.3573  0.4016  0.2419
  206MOL    H9729207   2.602   6.708   2.886  0.6138 -0.1491 -1.2681
  206MOL    H9829208   2.444   6.576   3.015 -0.5475 -1.0473  0.5207
  206MOL    H9929209   2.548   6.631   3.135 -1.8837  0.8624  0.0431
  206MOL   C10029210   2.533   6.329   3.028  0.0001  0.3996  0.2978
  206MOL   C10129211   2.596   6.197   3.078  0.4819 -0.6596  0.0445
  206MOL   O10229212   2.725   6.177   3.021  0.0895 -0.1706  0.6338
  206MOL   H10329213   2.433   6.332   3.072  0.4675  2.0052  1.2990
  206MOL   H10429214   2.530   6.340   2.920  2.2640 -0.5445  0.1126
  206MOL   H10529215   2.533   6.116   3.042 -0.1864  0.7146 -1.9695
  206MOL   H10629216   2.599   6.183   3.186  2.5973 -0.7657  0.0020
  206MOL   C10729217   2.828   6.274   3.019  0.2100 -0.8829 -0.7087
  206MOL   C10829218   2.901   6.273   3.151 -0.1036  0.5991 -0.0798
  206MOL   O10929219   2.818   6.338   3.246  0.4485 -0.1897  0.7444
  206MOL   H11029220   2.908   6.252   2.949  1.0922  1.9497 -0.6391
  206MOL   H11129221   2.788   6.372   2.992 -1.4004 -1.2885  0.1586
  206MOL   H11229222   2.997   6.322   3.140  0.3371 -0.7042 -2.3747
  206MOL   H11329223   2.916   6.168   3.178 -0.0603  0.5149 -0.4357
  206MOL   C11429224   2.881   6.366   3.362  0.1824  0.1792 -0.0979
  206MOL   C11529225   2.781   6.434   3.455  0.0880  0.3563  0.3087
  206MOL   O11629226   2.710   6.333   3.527  0.7692  0.4553  0.1074
  206MOL   H11729227   2.924   6.277   3.408 -1.0636 -0.5062 -0.2443
  206MOL   H11829228   2.957   6.440   3.337  0.1508  0.2322 -0.0387
  206MOL   H11929229   2.720   6.505   3.399  0.6008  1.4098  1.0585
  206MOL   H12029230   2.848   6.487   3.523 -0.2579  0.4126  0.6071
  206MOL   C12129231   2.579   6.376   3.536 -0.3329 -0.4209 -0.1564
  206MOL   C12229232   2.516   6.281   3.638  0.1159  0.4986 -0.0165
  206MOL   O12329233   2.516   6.151   3.592 -0.2264 -0.2250  0.4863
  206MOL   H12429234   2.569   6.480   3.566 -1.2750  0.7703 -4.2880
  206MOL   H12529235   2.523   6.364   3.443 -1.0648 -1.3596  0.3897
  206MOL   H12629236   2.412   6.310   3.653 -0.0024  0.8843 -1.5243
  206MOL   H12729237   2.566   6.298   3.734 -1.8562  0.2729  1.0654
  206MOL   C12829238   2.487   6.061   3.702  0.3895 -0.0769 -0.1914
  206MOL   C12929239   2.493   5.917   3.654 -0.0766  0.3838  0.5855
  206MOL   O13029240   2.380   5.879   3.577 -0.4766 -0.1967  0.3048
  206MOL   H13129241   2.556   6.072   3.786 -0.8317  1.6379  0.6153
  206MOL   H13229242   2.388   6.076   3.745 -0.0531 -0.9704 -0.8728
  206MOL   H13329243   2.485   5.847   3.738 -1.3755  0.0183  0.1717
  206MOL   H13429244   2.590   5.899   3.610 -1.4644 -1.4926 -1.8144
  206MOL   C13529245   2.394   5.749   3.517 -0.0623  0.2694  0.5167
  206MOL   C13629246   2.286   5.724   3.411  0.6546  0.3095 -0.1172
  206MOL   O13729247   2.312   5.806   3.297 -0.0978  0.3212 -0.0797
  206MOL   H13829248   2.488   5.736   3.464 -0.1874 -2.3785  0.9018
  206MOL   H13929249   2.369   5.682   3.599  0.1072  0.2536  0.5534
  206MOL   H14029250   2.189   5.757   3.446 -0.2849 -2.0029 -0.4342
  206MOL   H14129251   2.275   5.616   3.398 -2.1806  0.3529  1.6045
  206MOL   H14229252   2.360   5.885   3.317 -0.9110  0.8550 -0.2341
  207MOL     C129253   7.709   6.891   3.286  0.1840 -0.1179  0.1278
  207MOL     C229254   7.578   6.945   3.228 -0.3597  0.0666  0.9153
  207MOL     O329255   7.526   7.048   3.317 -0.1139  0.2098  0.2153
  207MOL     H429256   7.730   6.803   3.226  0.9812 -0.4083  0.8355
  207MOL     H529257   7.688   6.870   3.391  1.2119 -0.8809  0.1908
  207MOL     H629258   7.504   6.866   3.237 -1.7423  1.1860 -0.4481
  207MOL     H729259   7.581   6.970   3.122  0.1505  1.4760  1.2475
  207MOL     H829260   0.024   6.957   3.272 -0.7531  1.2662  0.8191
  207MOL     C929261   7.492   7.173   3.256 -0.2691  0.2246  0.0522
  207MOL    C1029262   7.419   7.257   3.364  0.4318 -0.4668  0.1908
  207MOL    O1129263   7.454   7.391   3.352  0.0196  0.3722 -0.2669
  207MOL    H1229264   7.587   7.207   3.216  0.9888 -2.9469  0.1771
  207MOL    H1329265   7.425   7.172   3.170 -0.2283  0.8373  0.0094
  207MOL    H1429266   7.466   7.227   3.458  2.7652 -1.3903 -1.2005
  207MOL    H1529267   7.313   7.235   3.358  0.3633 -0.2721  0.6382
  207MOL    C1629268   7.374   7.472   3.440 -0.4971  0.3409 -0.9388
  207MOL    C1729269   7.409   7.621   3.426 -0.3156  0.1743  0.4897
  207MOL    O1829270   7.374   7.656   3.296 -0.4405 -0.0963 -0.0620
  207MOL    H1929271   7.267   7.455   3.447 -0.2889 -0.4661  0.4601
  207MOL    H2029272   7.416   7.456   3.540 -0.0398  2.8284 -0.6815
  207MOL    H2129273   7.515   7.637   3.445 -0.4446  0.3440  1.1055
  207MOL    H2229274   7.344   7.665   3.502  2.1151 -1.1176  3.4163
  207MOL    C2329275   7.427   0.017   3.270  0.0845 -0.5011  0.5612
  207MOL    C2429276   7.317   0.117   3.292  0.0742 -0.6767 -0.0674
  207MOL    O2529277   7.324   0.170   3.422 -0.1872 -0.3724  0.4988
  207MOL    H2629278   7.521   0.034   3.322 -0.8202  2.9194  1.2282
  207MOL    H2729279   7.450   0.027   3.164  0.7860 -1.4644  0.6115
  207MOL    H2829280   7.220   0.072   3.271 -0.5622  0.2620  0.7623
  207MOL    H2929281   7.338   0.191   3.215  1.0163 -0.9416 -0.0719
  207MOL    C3029282   7.271   0.303   3.435  0.7372 -0.0658 -0.1363
  207MOL    C3129283   7.370   0.412   3.402  0.0686 -0.4732  0.0993
  207MOL    O3229284   7.378   0.433   3.264 -0.4277  0.4435  0.1914
  207MOL    H3329285   7.180   0.304   3.375  0.4797  0.2692  0.2591
  207MOL    H3429286   7.250   0.323   3.540 -0.2206 -0.7166 -0.2009
  207MOL    H3529287   7.462   0.397   3.459 -1.0253 -1.5504  1.6350
  207MOL    H3629288   7.317   0.496   3.447 -0.9417  0.1770 -2.2468
  207MOL    C3729289   7.514   0.442   3.221  0.1651  0.2552  0.3026
  207MOL    C3829290   7.523   0.464   3.069 -0.8363 -0.6065 -0.3633
  207MOL    O3929291   7.663   0.451   3.023  0.2289 -0.7703  0.4815
  207MOL    H4029292   7.580   0.522   3.254 -0.4049  1.3943 -1.2310
  207MOL    H4129293   7.566   0.349   3.247 -0.4480  0.0406  0.7586
  207MOL    H4229294   7.486   0.562   3.040 -0.0673  0.2458  1.5205
  207MOL    H4329295   7.450   0.406   3.012 -0.1647 -1.2521 -0.5790
  207MOL    C4429296   7.659   0.478   2.887 -0.0549  0.1903  1.0933
  207MOL    C4529297   0.026   0.477   2.826  1.1127  0.2665 -0.1896
  207MOL    O4629298   0.113   0.568   2.875  0.2335  0.8217 -0.6259
  207MOL    H4729299   7.590   0.407   2.843 -0.3021  0.8082  0.4729
  207MOL    H4829300   7.618   0.577   2.869 -0.0562  0.1502  0.8715
  207MOL    H4929301   0.011   0.495   2.719 -1.5258 -0.6919 -0.0178
  207MOL    H5029302   0.066   0.376   2.838  0.6399  0.2322  1.1643
  207MOL    C5129303   0.256   0.548   2.853 -1.0048 -0.0580 -0.5458
  207MOL    C5229304   0.347   0.665   2.899 -0.1531 -0.3844 -0.1323
  207MOL    O5329305   0.345   0.777   2.813  0.0180  0.5454  0.5817
  207MOL    H5429306   0.281   0.457   2.907  2.3289 -0.4343 -2.6099
  207MOL    H5529307   0.272   0.532   2.746  2.2134 -1.6372  0.1184
  207MOL    H5629308   0.444   0.617   2.887 -0.4203 -1.0203  0.2561
  207MOL    H5729309   0.337   0.693   3.004 -2.5410 -0.9815 -0.1643
  207MOL    C5829310   0.438   0.875   2.851 -0.5135  0.7227 -0.1181
  207MOL    C5929311   0.422   1.010   2.767 -0.8697  0.1702 -0.2168
  207MOL    O6029312   0.303   1.081   2.788  0.2367 -0.4450 -0.1155
  207MOL    H6129313   0.423   0.907   2.954  1.4272  0.9689  0.1177
  207MOL    H6229314   0.542   0.844   2.840 -0.5845  0.5575 -0.3264
  207MOL    H6329315   0.433   0.977   2.664  0.3832  2.1394 -0.7408
  207MOL    H6429316   0.509   1.068   2.799 -0.5789 -0.3616 -0.0441
  207MOL    C6529317   0.292   1.208   2.718 -0.3086  0.0485 -0.5734
  207MOL    C6629318   0.197   1.300   2.788  0.2284 -0.5411  0.0150
  207MOL    O6729319   0.058   1.268   2.772 -0.1629 -0.1531 -0.0785
  207MOL    H6829320   0.388   1.260   2.720 -1.1457  1.5777  0.4700
  207MOL    H6929321   0.272   1.192   2.612  0.5203 -3.7218 -0.2530
  207MOL    H7029322   0.210   1.397   2.740  1.2092  0.0737  1.4941
  207MOL    H7129323   0.224   1.315   2.893 -1.8293 -0.8306  0.6031
  207MOL    C7229324   7.754   1.337   2.864  0.5833 -0.1545  0.2904
  207MOL    C7329325   7.618   1.279   2.872  0.1639  0.4479 -0.3074
  207MOL    O7429326   7.532   1.373   2.808  0.0464  0.0199  0.2862
  207MOL    H7529327   0.027   1.329   2.963  0.3556 -0.8817  0.3368
  207MOL    H7629328   7.751   1.441   2.830 -1.2253 -0.1250  0.5056
  207MOL    H7729329   7.575   1.279   2.972  3.1542 -0.5816  1.0243
  207MOL    H7829330   7.614   1.178   2.832  1.6511  0.4452 -0.4952
  207MOL    C7929331   7.497   1.339   2.672 -0.1717  0.1675 -0.5159
  207MOL    C8029332   7.460   1.469   2.591 -0.5907 -0.0145  0.0999
  207MOL    O8129333   7.432   1.433   2.455  0.8532 -0.7846  0.3110
  207MOL    H8229334   7.575   1.280   2.623 -0.8321  0.2503 -1.6700
  207MOL    H8329335   7.406   1.281   2.688 -0.9507  2.1216  2.4472
  207MOL    H8429336   7.528   1.554   2.597  2.1644 -1.8502 -3.1853
  207MOL    H8529337   7.365   1.505   2.631  0.2328  1.8008  0.4755
  207MOL    C8629338   7.358   1.540   2.391  0.2580  0.2106 -0.0578
  207MOL    C8729339   7.362   1.524   2.237 -0.3246 -0.0244  0.2172
  207MOL    O8829340   7.267   1.429   2.194 -0.4322  0.0893 -0.4831
  207MOL    H8929341   7.255   1.540   2.429 -0.6923 -1.8702 -2.5351
  207MOL    H9029342   7.404   1.635   2.419 -3.3109  2.0805 -0.2476
  207MOL    H9129343   7.461   1.493   2.205 -0.5979 -1.6313  0.8924
  207MOL    H9229344   7.330   1.618   2.192 -1.1682 -1.0252 -1.3690
  207MOL    C9329345   7.258   1.421   2.048  0.1180  0.6265  0.2543
  207MOL    C9429346   7.151   1.309   2.002 -0.4523 -0.6516  0.3589
  207MOL    O9529347   7.025   1.358   2.012 -0.2928  0.1943  0.1577
  207MOL    H9629348   7.231   1.515   1.999 -0.2864  0.2890 -0.1689
  207MOL    H9729349   7.348   1.387   1.997 -1.2733  0.3594 -2.0431
  207MOL    H9829350   7.154   1.214   2.055 -0.5227 -1.0325 -0.3124
  207MOL    H9929351   7.166   1.288   1.896 -1.4446  1.3272 -0.2038
  207MOL   C10029352   6.926   1.267   1.999 -0.0872  0.2157  0.1386
  207MOL   C10129353   6.803   1.343   2.043 -0.0064 -0.1388  0.3559
  207MOL   O10229354   6.791   1.343   2.188 -0.0148 -0.0229  0.6288
  207MOL   H10329355   6.923   1.232   1.896  0.8733  1.2925 -0.2632
  207MOL   H10429356   6.941   1.176   2.057 -1.4400  1.1333  1.9730
  207MOL   H10529357   6.721   1.291   1.993 -1.3737  3.4854 -1.3955
  207MOL   H10629358   6.787   1.441   1.998  0.4814  0.0471  0.5859
  207MOL   C10729359   6.687   1.415   2.242  0.4211  0.3015  0.4553
  207MOL   C10829360   6.578   1.320   2.289 -0.9555 -0.0608  0.1824
  207MOL   O10929361   6.592   1.289   2.425  0.4413  0.2154  0.8781
  207MOL   H11029362   6.719   1.474   2.328  3.7996  0.8969 -1.1495
  207MOL   H11129363   6.649   1.490   2.172 -1.8314 -0.0595  1.2347
  207MOL   H11229364   6.579   1.236   2.220 -0.6087 -0.1988  0.3559
  207MOL   H11329365   6.486   1.375   2.270 -1.1595 -1.1195 -2.0572
  207MOL   C11429366   6.691   1.192   2.440 -0.2298  0.4898  0.3001
  207MOL   C11529367   6.689   1.150   2.587 -0.9836  0.7267 -0.9848
  207MOL   O11629368   6.725   1.010   2.594  0.1654 -0.3549  0.5576
  207MOL   H11729369   6.675   1.112   2.368  2.8058 -0.4940  0.6455
  207MOL   H11829370   6.790   1.225   2.408 -1.0095  1.2155 -1.4031
  207MOL   H11929371   6.591   1.165   2.632 -1.7339 -0.3449 -2.2157
  207MOL   H12029372   6.764   1.207   2.641  0.1987 -0.6439 -1.1655
  207MOL   C12129373   6.764   0.964   2.722 -0.1832  0.2753  0.2279
  207MOL   C12229374   6.829   0.835   2.724 -0.9312  0.6582 -0.1184
  207MOL   O12329375   6.753   0.716   2.731 -0.0079 -0.2297 -0.2210
  207MOL   H12429376   6.841   1.034   2.757  1.0491 -0.9809  0.1066
  207MOL   H12529377   6.696   0.973   2.807 -1.1457 -0.2175 -0.4907
  207MOL   H12629378   6.896   0.841   2.810 -0.9940  2.2305 -0.1714
  207MOL   H12729379   6.896   0.828   2.638  1.3358  0.7888  1.5699
  207MOL   C12829380   6.837   0.606   2.735 -0.5129 -0.4179  0.4716
  207MOL   C12929381   6.830   0.534   2.867 -0.2724  0.4945 -0.3033
  207MOL   O13029382   6.918   0.591   2.959 -0.3657  0.1759 -0.4544
  207MOL   H13129383   6.795   0.542   2.657 -0.8471 -1.5569  1.5660
  207MOL   H13229384   6.943   0.621   2.717 -0.8728  2.4855  0.5767
  207MOL   H13329385   6.859   0.429   2.858 -3.9795 -0.6746  0.2285
  207MOL   H13429386   6.723   0.546   2.886  0.0378 -1.1648  3.0792
  207MOL   C13529387   6.912   0.524   3.089 -0.1796  0.0170 -0.4213
  207MOL   C13629388   7.040   0.549   3.176  0.0310 -0.1060  0.2397
  207MOL   O13729389   7.147   0.478   3.123  0.2975 -0.2028 -0.3709
  207MOL   H13829390   6.828   0.567   3.143  0.6825  0.2943  0.7195
  207MOL   H13929391   6.901   0.416   3.097 -0.4801  0.2070  2.1809
  207MOL   H14029392   7.015   0.524   3.279 -2.0221 -1.6962 -0.5998
  207MOL   H14129393   7.059   0.657   3.175 -0.8772  0.0584 -0.1081
  207MOL   H14229394   7.220   0.496   3.180 -0.3087 -0.0728  0.3795
  208MOL     C129395   7.456   4.852   4.887  0.7820 -0.5528 -0.3664
  208MOL     C229396   7.531   4.729   4.878 -0.2045 -0.1595 -0.7549
  208MOL     O329397   7.471   4.631   4.964 -0.5995 -0.1274  0.2264
  208MOL     H429398   7.357   4.853   4.843  0.0095 -1.4412  1.3058
  208MOL     H529399   7.513   4.921   4.823  0.3915 -0.5668 -0.7273
  208MOL     H629400   7.636   4.743   4.904  0.3341 -2.6894 -1.3940
  208MOL     H729401   7.532   4.683   4.779 -0.6326 -1.6325 -0.0887
  208MOL     H829402   7.456   4.892   4.989  0.1772 -1.7197  0.0879
  208MOL     C929403   7.556   4.518   4.966 -0.3438  0.2461  0.2503
  208MOL    C1029404   7.533   4.437   5.093 -0.5631  0.7647 -0.0476
  208MOL    O1129405   7.578   4.497   5.215 -0.1689  0.3678  0.1172
  208MOL    H1229406   7.528   4.449   4.887 -1.4498  1.2270 -0.2169
  208MOL    H1329407   7.664   4.535   4.961 -0.5438  1.4864  0.0067
  208MOL    H1429408   7.588   4.344   5.084 -1.7195  0.0278  0.4039
  208MOL    H1529409   7.429   4.406   5.098 -0.1516 -1.5839 -4.0664
  208MOL    C1629410   7.547   4.440   5.338 -0.4788 -0.5606 -0.3129
  208MOL    C1729411   7.608   4.296   5.366  0.8668  0.4126  0.6271
  208MOL    O1829412   7.755   4.283   5.378 -0.2911  0.2205 -0.1169
  208MOL    H1929413   7.584   4.511   5.412  0.9896 -0.7830 -0.8144
  208MOL    H2029414   7.438   4.442   5.341 -0.4703 -1.7905  2.2706
  208MOL    H2129415   7.577   4.213   5.303  2.3065  0.5925 -0.3524
  208MOL    H2229416   7.574   4.274   5.468  0.6865  0.0977  0.5003
  208MOL    C2329417   0.060   4.274   5.262  0.0936 -0.5543  0.1519
  208MOL    C2429418   0.065   4.132   5.214  0.0561  0.5519 -0.6632
  208MOL    O2529419   0.176   4.059   5.265  0.4439 -0.1580 -0.0723
  208MOL    H2629420   0.019   4.348   5.194  1.3651 -0.1374 -0.1758
  208MOL    H2729421   0.157   4.318   5.284 -0.3051 -0.1186  1.0688
  208MOL    H2829422   0.086   4.133   5.108  0.1348 -1.2367 -0.6854
  208MOL    H2929423   7.747   4.077   5.247  0.8775  0.1502  0.9311
  208MOL    C3029424   0.162   3.922   5.231  0.5768 -0.2749 -0.0624
  208MOL    C3129425   0.297   3.859   5.275 -0.2419 -0.3733  0.3734
  208MOL    O3229426   0.391   3.863   5.167 -0.3537 -0.6375  0.5058
  208MOL    H3329427   0.079   3.864   5.271  0.3935 -0.2562 -0.4154
  208MOL    H3429428   0.155   3.923   5.122 -0.4722 -1.7720 -0.0177
  208MOL    H3529429   0.286   3.751   5.286 -1.7063 -0.2111  0.5332
  208MOL    H3629430   0.339   3.899   5.367  0.4650 -1.6737  0.6357
  208MOL    C3729431   0.535   3.846   5.197 -0.6781  0.2245 -0.7857
  208MOL    C3829432   0.623   3.873   5.068 -0.1541 -0.4099 -0.7107
  208MOL    O3929433   0.649   3.755   4.998  0.6207 -0.1825 -0.7555
  208MOL    H4029434   0.560   3.930   5.262 -0.1588 -0.0517 -0.6313
  208MOL    H4129435   0.553   3.750   5.245 -1.6816  0.3800 -0.0896
  208MOL    H4229436   0.712   3.924   5.106 -0.1119 -1.5886  0.8145
  208MOL    H4329437   0.566   3.938   5.001  0.6738  0.5158 -0.5318
  208MOL    C4429438   0.723   3.773   4.881 -0.9973  1.0147 -0.0628
  208MOL    C4529439   0.803   3.644   4.854 -0.3267  0.1932 -0.2614
  208MOL    O4629440   0.739   3.550   4.775 -0.3306 -0.6776 -0.1094
  208MOL    H4729441   0.675   3.799   4.787 -0.9244  0.2929 -0.2963
  208MOL    H4829442   0.796   3.853   4.900 -0.5092  0.0616  2.2726
  208MOL    H4929443   0.864   3.617   4.940  1.6716  1.9025 -1.0961
  208MOL    H5029444   0.882   3.679   4.787 -1.0210  1.1759 -0.5880
  208MOL    C5129445   0.813   3.427   4.775  0.1094  0.4379 -0.3670
  208MOL    C5229446   0.744   3.314   4.697  0.4726  0.9764 -0.4205
  208MOL    O5329447   0.764   3.328   4.555  0.5075 -0.3749  0.5583
  208MOL    H5429448   0.904   3.451   4.721  1.1900  0.0959  1.2711
  208MOL    H5529449   0.842   3.398   4.875 -1.2637 -0.6147 -0.2493
  208MOL    H5629450   0.635   3.311   4.708  0.4513  1.8534 -0.3522
  208MOL    H5729451   0.786   3.218   4.726  0.6216  0.6695 -1.6313
  208MOL    C5829452   0.689   3.233   4.478 -0.4576  0.0140 -0.2248
  208MOL    C5929453   0.751   3.208   4.342  0.5192  0.0402  0.6084
  208MOL    O6029454   0.870   3.132   4.356  0.2213  0.3814  0.4740
  208MOL    H6129455   0.655   3.147   4.535 -0.3687 -0.2697 -0.5920
  208MOL    H6229456   0.595   3.284   4.457  0.1325  0.2161 -2.6059
  208MOL    H6329457   0.774   3.305   4.298  0.2262  0.3654  1.1580
  208MOL    H6429458   0.684   3.152   4.277  1.3636 -0.7576  0.4214
  208MOL    C6529459   0.934   3.095   4.233  0.2437 -0.3207 -0.0864
  208MOL    C6629460   0.995   2.952   4.249  0.8814  0.2999  0.1674
  208MOL    O6729461   0.895   2.863   4.208 -0.1392 -0.0187  0.0165
  208MOL    H6829462   0.864   3.101   4.149  0.8439  0.0049 -0.5647
  208MOL    H6929463   1.005   3.169   4.196 -1.1000  0.9407 -0.2088
  208MOL    H7029464   1.007   2.927   4.354 -0.0953 -0.1800  0.1716
  208MOL    H7129465   1.080   2.929   4.184  1.5165  2.4895  0.2042
  208MOL    C7229466   0.933   2.720   4.227 -0.2332  0.2104  0.2872
  208MOL    C7329467   0.848   2.650   4.126  0.2392 -0.3283  0.3628
  208MOL    O7429468   0.924   2.621   4.005 -0.0857 -0.1931 -0.0390
  208MOL    H7529469   1.041   2.712   4.219 -0.2243  0.5614  0.0505
  208MOL    H7629470   0.911   2.689   4.329  0.5778  0.7778  0.6343
  208MOL    H7729471   0.749   2.691   4.104 -0.5503 -2.7357 -0.7582
  208MOL    H7829472   0.826   2.553   4.170  3.5257 -2.1669 -1.8786
  208MOL    C7929473   0.844   2.645   3.887 -0.1403  0.3484  0.2291
  208MOL    C8029474   0.749   2.532   3.848  0.0275  0.4146  0.0495
  208MOL    O8129475   0.650   2.525   3.946 -0.2626  0.4435  0.2932
  208MOL    H8229476   0.790   2.739   3.899  1.3333  1.3405 -0.7920
  208MOL    H8329477   0.911   2.662   3.802  3.5873 -2.8575  2.3582
  208MOL    H8429478   0.800   2.436   3.848  0.2469  0.4609 -2.8465
  208MOL    H8529479   0.700   2.544   3.751 -0.8968  1.7927  0.6711
  208MOL    C8629480   0.551   2.427   3.918  0.0670  0.6312  0.4987
  208MOL    C8729481   0.451   2.405   4.028  0.5962  0.3102 -1.1788
  208MOL    O8829482   0.351   2.505   4.036  0.1748 -0.1383 -0.8358
  208MOL    H8929483   0.492   2.441   3.827  1.5334  0.0595 -0.5601
  208MOL    H9029484   0.591   2.327   3.904  0.5317  0.8711  0.1086
  208MOL    H9129485   0.506   2.403   4.122  0.6743  1.8276 -1.1844
  208MOL    H9229486   0.397   2.311   4.011 -0.4951  0.4640  1.2043
  208MOL    C9329487   0.393   2.643   4.052 -0.4555 -0.2301  0.0321
  208MOL    C9429488   0.473   2.677   4.173  0.3391 -0.0545 -0.0044
  208MOL    O9529489   0.393   2.742   4.268  0.4136  0.7663  0.4300
  208MOL    H9629490   0.442   2.680   3.962 -0.6504  1.5581  0.6414
  208MOL    H9729491   0.300   2.699   4.054 -0.3695 -0.1126  1.3066
  208MOL    H9829492   0.547   2.751   4.141  0.5259 -0.6532 -0.9736
  208MOL    H9929493   0.536   2.598   4.216  0.9411 -0.6580 -1.9615
  208MOL   C10029494   0.460   2.786   4.381  0.4926  0.8462  0.5568
  208MOL   C10129495   0.377   2.878   4.465 -0.5380  0.6161  1.1123
  208MOL   O10229496   0.344   2.994   4.391  0.9337  0.2102 -0.0869
  208MOL   H10329497   0.473   2.690   4.431  2.7793  1.5472  1.3556
  208MOL   H10429498   0.556   2.833   4.359  0.1907  1.3456  0.3132
  208MOL   H10529499   0.434   2.912   4.551  0.5490  0.3904  0.4939
  208MOL   H10629500   0.290   2.819   4.494 -0.9523  0.4321 -0.4536
  208MOL   C10729501   0.266   3.092   4.460  0.4028  0.5476 -0.1773
  208MOL   C10829502   0.254   3.216   4.375  0.4459  0.5635  1.0609
  208MOL   O10929503   0.382   3.275   4.354  0.8490 -0.2964  0.0054
  208MOL   H11029504   0.169   3.056   4.493  0.3832  1.3927  0.6941
  208MOL   H11129505   0.318   3.118   4.552 -1.3081  2.5386  0.2530
  208MOL   H11229506   0.186   3.292   4.414  0.5498  2.2925 -1.9538
  208MOL   H11329507   0.218   3.190   4.275  1.4351  0.1215  0.8114
  208MOL   C11429508   0.397   3.415   4.315  0.0256  0.0768  0.0596
  208MOL   C11529509   0.331   3.440   4.176 -0.0813  0.1928 -0.1292
  208MOL   O11629510   0.188   3.444   4.185 -0.0075 -0.5236 -0.0652
  208MOL   H11729511   0.341   3.473   4.389  0.7897 -0.1561  0.8287
  208MOL   H11829512   0.501   3.446   4.321  0.1587 -0.5908  1.3269
  208MOL   H11929513   0.355   3.362   4.103 -0.9966  0.4056 -0.6594
  208MOL   H12029514   0.366   3.532   4.131 -1.8301  0.1667 -1.6055
  208MOL   C12129515   0.127   3.457   4.060  0.4170 -0.1593  1.0757
  208MOL   C12229516   0.152   3.587   3.982  0.8008 -1.0267  0.3859
  208MOL   O12329517   0.273   3.592   3.909  0.4435 -0.1452  0.0091
  208MOL   H12429518   0.143   3.371   3.995  4.2627  0.8978  0.4744
  208MOL   H12529519   0.020   3.460   4.079 -0.2401  0.1856 -2.3104
  208MOL   H12629520   0.134   3.667   4.053  0.7448 -0.1175 -0.6482
  208MOL   H12729521   0.077   3.607   3.905  0.2254 -0.3157  1.1273
  208MOL   C12829522   0.284   3.722   3.853  0.1238  0.1198  0.3634
  208MOL   C12929523   0.420   3.744   3.795 -0.4419  0.1111  0.5795
  208MOL   O13029524   0.494   3.811   3.901  0.3787  0.2709 -0.1476
  208MOL   H13129525   0.208   3.726   3.774  0.1169  1.2038  0.4199
  208MOL   H13229526   0.261   3.792   3.933  0.3024 -1.7672  2.0878
  208MOL   H13329527   0.431   3.799   3.701  3.0935 -0.2525  0.7160
  208MOL   H13429528   0.456   3.645   3.768  0.8579  0.8467 -0.4411
  208MOL   C13529529   0.616   3.877   3.869  0.1485  0.4691 -0.4977
  208MOL   C13629530   0.672   3.952   3.987  1.0234  0.2411 -0.1610
  208MOL   O13729531   0.570   4.042   4.034  0.3026 -0.0158 -0.2901
  208MOL   H13829532   0.686   3.807   3.822  0.4075 -0.8932  1.8693
  208MOL   H13929533   0.604   3.949   3.787  0.7370  0.0373 -0.9748
  208MOL   H14029534   0.767   4.004   3.975  0.4809  1.1452 -0.6842
  208MOL   H14129535   0.701   3.880   4.063  2.0160  0.1914 -0.5784
  208MOL   H14229536   0.493   3.988   4.025  0.0833  0.1748  0.3812
  209MOL     C129537   0.555   5.443   7.266 -0.5447 -0.3671 -0.0277
  209MOL     C229538   0.456   5.562   7.243  0.3342  0.3393 -0.5735
  209MOL     O329539   0.511   5.653   7.154 -0.2986 -0.1686 -0.0801
  209MOL     H429540   0.565   5.373   7.183  0.1501 -1.5101  1.0082
  209MOL     H529541   0.519   5.386   7.351 -0.9027 -0.7284 -0.4185
  209MOL     H629542   0.436   5.619   7.333 -0.5782  1.6622 -1.5814
  209MOL     H729543   0.361   5.520   7.209  0.1587 -1.3215  1.8864
  209MOL     H829544   0.657   5.479   7.275 -0.7119  0.4892 -1.4172
  209MOL     C929545   0.423   5.736   7.075 -0.1653  0.0370  0.0730
  209MOL    C1029546   0.365   5.851   7.168 -0.0703  0.5563 -0.2688
  209MOL    O1129547   0.258   5.790   7.229  0.4222  0.5355 -0.1750
  209MOL    H1229548   0.472   5.773   6.985 -2.3574  2.2604 -0.2829
  209MOL    H1329549   0.341   5.687   7.022 -0.8759  1.9248 -0.6244
  209MOL    H1429550   0.324   5.935   7.113  0.6490  1.0154 -0.1133
  209MOL    H1529551   0.436   5.883   7.245  0.0106  0.1960 -0.1919
  209MOL    C1629552   0.186   5.883   7.312  0.0016 -0.2874  0.3357
  209MOL    C1729553   0.255   5.935   7.439 -0.5164 -0.4991  0.6022
  209MOL    O1829554   0.317   6.062   7.425 -0.2182  0.0124 -0.2762
  209MOL    H1929555   0.151   5.968   7.254 -0.7512  1.0557  2.7177
  209MOL    H2029556   0.093   5.832   7.334 -0.8970  1.9390  1.8014
  209MOL    H2129557   0.320   5.849   7.454  1.9403  1.3410  0.8340
  209MOL    H2229558   0.184   5.944   7.522 -0.2920 -1.2737  0.8843
  209MOL    C2329559   0.379   6.110   7.540  0.3996 -0.5623  0.0662
  209MOL    C2429560   0.394   6.261   7.523  0.1425  0.4548  0.1810
  209MOL    O2529561   0.482   6.305   7.418  0.3475 -0.1580  0.1337
  209MOL    H2629562   0.328   6.091   7.634  0.3127 -0.0810  0.1150
  209MOL    H2729563   0.475   6.059   7.547 -1.8395 -4.9256  0.7337
  209MOL    H2829564   0.437   6.298   7.616 -2.5192  1.6337  0.9913
  209MOL    H2929565   0.300   6.316   7.526 -1.0270 -1.5634  1.9916
  209MOL    C3029566   0.475   6.451   7.415  0.9128  0.1954 -0.9967
  209MOL    C3129567   0.580   6.490   7.313  0.5606 -0.1962 -0.1069
  209MOL    O3229568   0.713   6.489   7.362  0.4253 -0.4651 -0.2275
  209MOL    H3329569   0.377   6.480   7.377  0.5725  0.6379  0.1946
  209MOL    H3429570   0.497   6.494   7.513  0.3335 -2.4425  0.3137
  209MOL    H3529571   0.554   6.590   7.279 -0.7737 -0.4964 -0.0041
  209MOL    H3629572   0.569   6.431   7.221 -1.4448 -1.1281  0.6921
  209MOL    C3729573   0.810   6.526   7.256  0.1056 -0.2590 -0.3591
  209MOL    C3829574   0.944   6.548   7.316 -0.5162  0.0947 -0.5215
  209MOL    O3929575   0.976   6.682   7.324 -0.0258 -0.3644 -0.3129
  209MOL    H4029576   0.823   6.438   7.192 -1.3145 -0.1821 -0.7583
  209MOL    H4129577   0.767   6.605   7.194  1.9361  0.1717 -1.1162
  209MOL    H4229578   1.019   6.494   7.258 -2.1985  0.2090 -2.8785
  209MOL    H4329579   0.936   6.507   7.417 -0.0619 -1.7736 -1.2249
  209MOL    C4429580   1.111   6.704   7.354  0.1390 -0.3697  0.3066
  209MOL    C4529581   1.149   6.844   7.302 -0.6630 -0.5574 -0.0933
  209MOL    O4629582   1.121   6.935   7.407  0.0849 -0.1864  0.5298
  209MOL    H4729583   1.122   6.696   7.463  0.6927 -0.0905  0.2712
  209MOL    H4829584   1.183   6.631   7.316 -0.3386  0.0430 -1.3950
  209MOL    H4929585   1.094   6.870   7.212 -2.7978 -0.5008  1.2073
  209MOL    H5029586   1.254   6.849   7.271 -0.2965  2.1613  1.4341
  209MOL    C5129587   1.176   7.066   7.385  0.1203  0.0128  0.0924
  209MOL    C5229588   1.075   7.175   7.325  0.3117  0.8410  0.2979
  209MOL    O5329589   1.032   7.138   7.196 -0.1518 -0.2971 -0.6789
  209MOL    H5429590   1.228   7.102   7.474 -2.2678  0.4512  1.3485
  209MOL    H5529591   1.259   7.054   7.315 -1.1369 -0.6149 -1.3429
  209MOL    H5629592   1.101   7.280   7.329  2.1296  0.3818  0.9020
  209MOL    H5729593   0.994   7.168   7.398 -0.9193 -2.1568 -1.2096
  209MOL    C5829594   0.948   7.236   7.146  0.7916  0.1717  0.5942
  209MOL    C5929595   0.996   7.281   7.005  0.3472 -0.2619  0.9719
  209MOL    O6029596   1.106   7.369   7.009 -0.0711  0.2013  0.2946
  209MOL    H6129597   0.851   7.186   7.150  2.3099 -2.7065  2.4822
  209MOL    H6229598   0.927   7.319   7.214 -1.0255 -1.5618  2.1874
  209MOL    H6329599   0.910   7.325   6.955  0.6777  0.2557  0.8552
  209MOL    H6429600   1.029   7.198   6.943  1.6480 -0.6607  2.1768
  209MOL    C6529601   1.142   7.403   6.869 -0.6481 -0.5370 -0.3710
  209MOL    C6629602   1.263   7.499   6.861 -0.3604  0.2411 -0.1240
  209MOL    O6729603   1.230   7.629   6.885  0.0037  0.0680  0.0119
  209MOL    H6829604   1.162   7.314   6.809  1.2211  0.3774 -1.1293
  209MOL    H6929605   1.060   7.453   6.819 -1.4090  0.3236  1.6604
  209MOL    H7029606   1.294   7.500   6.756  2.5939 -0.7122  0.6786
  209MOL    H7129607   1.347   7.457   6.917 -1.0772 -0.3721  0.5120
  209MOL    C7229608   1.230   7.657   7.025 -0.5644  0.3785  0.6978
  209MOL    C7329609   1.163   0.020   7.053  0.0446  0.4540  0.1567
  209MOL    O7429610   1.244   0.127   7.018 -0.2112  0.1607  0.3140
  209MOL    H7529611   1.183   7.579   7.085  0.7260 -0.7613  0.2716
  209MOL    H7629612   1.334   7.667   7.057  0.3015  0.3736 -2.0247
  209MOL    H7729613   1.147   0.026   7.161 -1.6843  2.9739 -0.2085
  209MOL    H7829614   1.067   0.015   7.002 -0.2600 -1.6114  0.8784
  209MOL    C7929615   1.188   0.260   7.037 -0.7002  0.7164  0.5038
  209MOL    C8029616   1.129   0.305   6.906 -0.2654  0.0096  0.1472
  209MOL    O8129617   1.012   0.233   6.880 -0.2216 -0.0543 -0.1615
  209MOL    H8229618   1.115   0.255   7.118 -0.5267  1.3073  0.7015
  209MOL    H8329619   1.269   0.327   7.066  0.7099  0.9813 -3.7063
  209MOL    H8429620   1.193   0.295   6.818 -0.1889 -1.0392  0.3048
  209MOL    H8529621   1.109   0.412   6.910  0.4534  0.1876 -0.8840
  209MOL    C8629622   0.955   0.271   6.756  0.3236 -0.3678  0.1990
  209MOL    C8729623   0.810   0.244   6.753  0.7262 -0.6555 -0.2994
  209MOL    O8829624   0.758   0.275   6.621 -0.4955 -0.1712  0.4317
  209MOL    H8929625   0.976   0.375   6.728 -1.4532  0.1147  0.5278
  209MOL    H9029626   1.002   0.206   6.683  1.5017 -0.7814  1.3216
  209MOL    H9129627   0.756   0.311   6.821 -1.7801 -1.0242 -1.8651
  209MOL    H9229628   0.783   0.140   6.773 -2.3032 -0.3508 -2.4431
  209MOL    C9329629   0.640   0.345   6.621  0.5093  0.2191 -0.4172
  209MOL    C9429630   0.581   0.349   6.483 -0.2297 -0.3989  0.5311
  209MOL    O9529631   0.546   0.214   6.442 -0.3364 -0.6496 -0.9041
  209MOL    H9629632   0.557   0.309   6.681  1.4188 -1.8433 -0.3657
  209MOL    H9729633   0.651   0.450   6.649 -1.5094  0.2677  0.2014
  209MOL    H9829634   0.643   0.397   6.406 -3.1926  3.3797  0.3453
  209MOL    H9929635   0.495   0.416   6.482  0.5218  0.5745  0.2216
  209MOL   C10029636   0.480   0.199   6.313 -0.4646  0.9788  0.1617
  209MOL   C10129637   0.444   0.048   6.282 -0.2146 -0.1962  0.5866
  209MOL   O10229638   0.568   7.749   6.271 -0.2473 -0.2990 -0.2271
  209MOL   H10329639   0.390   0.260   6.308  0.0566  1.6040 -1.9831
  209MOL   H10429640   0.552   0.227   6.236  1.0442  1.2129  1.6232
  209MOL   H10529641   0.402   0.014   6.188  1.0183 -2.1698  0.7168
  209MOL   H10629642   0.376   0.009   6.358 -3.0729 -0.3413 -1.9879
  209MOL   C10729643   0.530   7.612   6.268 -0.1532  0.3888 -0.1906
  209MOL   C10829644   0.662   7.532   6.231 -0.1168  0.2222  0.0369
  209MOL   O10929645   0.666   7.506   6.096  0.2417  0.4513  0.1834
  209MOL   H11029646   0.497   7.581   6.367  0.0752 -1.6445 -0.7271
  209MOL   H11129647   0.447   7.586   6.201  0.5410 -3.4205  0.2886
  209MOL   H11229648   0.663   7.446   6.297  1.5000  0.7654  0.7677
  209MOL   H11329649   0.752   7.590   6.255 -1.6872  3.5706 -1.7376
  209MOL   C11429650   0.752   7.397   6.067  0.2462 -0.0628  0.5453
  209MOL   C11529651   0.783   7.396   5.918 -0.0203  0.1218 -0.1668
  209MOL   O11629652   0.675   7.331   5.854 -0.5851 -0.1822 -0.6728
  209MOL   H11729653   0.845   7.405   6.123  0.9318  1.1696 -0.7429
  209MOL   H11829654   0.713   7.297   6.087 -0.9721  0.4596  0.8338
  209MOL   H11929655   0.875   7.347   5.889  0.5789  1.1706 -0.0581
  209MOL   H12029656   0.800   7.502   5.897 -0.1255  0.0726 -0.5006
  209MOL   C12129657   0.685   7.328   5.710 -0.1712  0.2279 -0.7742
  209MOL   C12229658   0.774   7.207   5.656 -0.2954  0.6502 -0.5588
  209MOL   O12329659   0.705   7.080   5.648  0.7412 -0.3494 -0.3745
  209MOL   H12429660   0.583   7.317   5.672  0.0143  1.1217 -1.5513
  209MOL   H12529661   0.736   7.416   5.672  0.2386  0.9180  1.3406
  209MOL   H12629662   0.870   7.194   5.705 -1.6824 -3.0541  1.3092
  209MOL   H12729663   0.798   7.228   5.552  1.0369  2.6061  0.1211
  209MOL   C12829664   0.711   7.012   5.769  0.2022 -0.4748  0.4362
  209MOL   C12929665   0.606   6.906   5.789  0.2647 -0.5553  0.1999
  209MOL   O13029666   0.480   6.969   5.815  0.6440  0.4362 -0.6924
  209MOL   H13129667   0.804   6.959   5.789 -0.2625 -1.5014 -0.0836
  209MOL   H13229668   0.687   7.080   5.852  0.9981 -0.0409  0.3132
  209MOL   H13329669   0.627   6.848   5.878  0.0490 -0.7841  0.1020
  209MOL   H13429670   0.600   6.839   5.703 -0.5587  1.4026 -1.3380
  209MOL   C13529671   0.377   6.862   5.840 -0.0138 -0.1455  0.9775
  209MOL   C13629672   0.273   6.879   5.735  0.0434  0.0225  1.1778
  209MOL   O13729673   0.319   6.830   5.615  0.3991 -0.3038  0.5604
  209MOL   H13829674   0.408   6.758   5.832  2.9697  0.7764 -0.0701
  209MOL   H13929675   0.327   6.876   5.936  0.2978 -1.2723  1.3121
  209MOL   H14029676   0.242   6.983   5.727  1.9283  0.4833 -0.5158
  209MOL   H14129677   0.189   6.817   5.766  0.6784 -1.2714  0.3775
  209MOL   H14229678   0.366   6.901   5.573 -1.1374  1.3659  1.5418
  210MOL     C129679   3.309   3.866   0.185 -0.2186  0.1148 -0.6378
  210MOL     C229680   3.198   3.891   0.082  0.1593  0.3543 -0.5628
  210MOL     O329681   3.237   4.011   0.006 -0.2029 -0.6675  0.3225
  210MOL     H429682   3.302   3.773   0.240 -0.7627 -0.3342 -1.4589
  210MOL     H529683   3.303   3.948   0.257 -1.0194 -0.3985 -0.1235
  210MOL     H629684   3.108   3.920   0.137  1.0938  2.6263 -0.1376
  210MOL     H729685   3.175   3.805   0.021 -0.2650 -0.7790  1.1537
  210MOL     H829686   3.406   3.866   0.134 -0.2696  2.0336 -0.7923
  210MOL     C929687   3.176   4.018   7.642  0.1191 -0.4941  0.3939
  210MOL    C1029688   3.211   4.136   7.561 -0.1814 -0.1642 -0.1176
  210MOL    O1129689   3.328   4.108   7.487 -0.2758 -0.9386  0.1203
  210MOL    H1229690   3.184   3.923   7.589 -0.6358  0.9359 -2.3842
  210MOL    H1329691   3.070   4.028   7.665  0.5913  2.0675  1.6762
  210MOL    H1429692   3.233   4.216   7.631  1.0197  0.2083 -0.9143
  210MOL    H1529693   3.130   4.179   7.501 -0.1086 -0.7326 -0.6350
  210MOL    C1629694   3.391   4.218   7.426  0.2780 -0.0322  0.6765
  210MOL    C1729695   3.534   4.205   7.371 -0.3320 -0.7839  0.6301
  210MOL    O1829696   3.529   4.175   7.233 -0.2220 -0.3629  0.3661
  210MOL    H1929697   3.322   4.245   7.346 -0.6901 -1.0733  1.1526
  210MOL    H2029698   3.396   4.295   7.504  0.8406 -0.5586  1.1598
  210MOL    H2129699   3.589   4.135   7.434 -2.3337  0.3279  3.7039
  210MOL    H2229700   3.572   4.304   7.394  0.2413 -0.9585  0.4323
  210MOL    C2329701   3.660   4.148   7.186 -0.2445 -0.8467 -0.6688
  210MOL    C2429702   3.671   4.193   7.047  0.4611  0.1736 -0.3754
  210MOL    O2529703   3.641   4.332   7.030  0.1268 -0.4635  0.5032
  210MOL    H2629704   3.732   4.202   7.246 -0.3867 -0.0278 -1.2290
  210MOL    H2729705   3.689   4.043   7.194  1.1443 -0.4595 -0.5220
  210MOL    H2829706   3.600   4.136   6.986 -0.4036  0.4435  0.3666
  210MOL    H2929707   3.772   4.166   7.016  0.7258 -0.9593  1.4077
  210MOL    C3029708   3.713   4.425   7.107 -0.1085  0.9648  0.1717
  210MOL    C3129709   3.708   4.561   7.043  0.1245  0.6537 -1.0143
  210MOL    O3229710   3.750   4.664   7.143  0.2960  0.6170  0.3920
  210MOL    H3329711   3.673   4.427   7.208 -3.1789 -0.4527 -0.9544
  210MOL    H3429712   3.810   4.375   7.114  0.0420  0.9796 -1.4272
  210MOL    H3529713   3.608   4.578   7.003 -1.2431 -0.4620  1.7306
  210MOL    H3629714   3.780   4.566   6.962  0.4295  0.1472 -0.7758
  210MOL    C3729715   3.775   4.789   7.086 -0.2701  0.5980 -0.2780
  210MOL    C3829716   3.826   4.900   7.179 -0.2227  0.2927 -0.1968
  210MOL    O3929717   3.721   4.915   7.278 -0.4604 -0.2397  0.2707
  210MOL    H4029718   3.846   4.774   7.005 -1.0430  0.5732 -0.9682
  210MOL    H4129719   3.681   4.821   7.039  1.4075  4.1936 -1.3427
  210MOL    H4229720   3.838   4.992   7.122  0.8050 -0.5194 -1.3066
  210MOL    H4329721   3.920   4.879   7.230 -0.4260 -0.2722 -0.0551
  210MOL    C4429722   3.725   5.040   7.352  0.7565  0.1341 -0.6159
  210MOL    C4529723   3.643   5.028   7.479  0.5134  0.2055 -0.2801
  210MOL    O4629724   3.715   4.940   7.564  0.5696 -0.2335  0.0934
  210MOL    H4729725   3.830   5.052   7.379  0.5477 -1.3099  0.8548
  210MOL    H4829726   3.690   5.127   7.295 -1.4059  0.0783  0.5986
  210MOL    H4929727   3.543   4.996   7.453  0.2051  1.0232 -0.1072
  210MOL    H5029728   3.642   5.127   7.525  0.4248 -0.0146  0.2024
  210MOL    C5129729   3.691   4.958   7.704 -0.0958  0.1418  0.2896
  210MOL    C5229730   3.809   4.921   0.022 -0.0584 -0.5110 -0.0243
  210MOL    O5329731   3.797   4.788   0.056  0.1946  0.1572 -0.0445
  210MOL    H5429732   3.674   5.064   7.721  3.7871  0.4286  2.9252
  210MOL    H5529733   3.606   4.894   7.728  0.0015 -0.0306  0.1696
  210MOL    H5629734   3.804   4.968   0.120 -0.7953 -0.9011  0.1230
  210MOL    H5729735   3.895   4.966   7.743  0.0994  1.2968  1.8367
  210MOL    C5829736   3.917   4.731   0.093  0.1822  0.7129 -0.3760
  210MOL    C5929737   3.892   4.582   0.128  0.4838 -0.6952 -0.2657
  210MOL    O6029738   3.816   4.566   0.244 -0.3319  0.2613  0.0415
  210MOL    H6129739   3.991   4.737   0.013  1.1306 -1.1526  0.3312
  210MOL    H6229740   3.970   4.780   0.175 -1.5582 -1.2390  1.9755
  210MOL    H6329741   3.975   4.511   0.122  0.6725 -0.4348 -0.7264
  210MOL    H6429742   3.821   4.538   0.058 -0.2955  0.0683  0.0374
  210MOL    C6529743   3.831   4.436   0.297  0.1198 -0.3360  0.2696
  210MOL    C6629744   3.763   4.444   0.437  0.6353  0.3346 -0.0561
  210MOL    O6729745   3.791   4.324   0.510  0.0873  0.9962  0.3378
  210MOL    H6829746   3.782   4.360   0.236  1.4905 -1.6406  0.7352
  210MOL    H6929747   3.936   4.409   0.309  1.0167  2.3670 -1.1349
  210MOL    H7029748   3.655   4.446   0.421  0.7613 -2.0296 -1.4478
  210MOL    H7129749   3.790   4.537   0.487 -0.3696  0.2138  0.7340
  210MOL    C7229750   3.904   4.334   0.596  0.0070  0.2951 -0.9368
  210MOL    C7329751   3.938   4.202   0.657  0.1943  0.1644  0.0524
  210MOL    O7429752   3.989   4.111   0.574  0.5523 -0.0899  0.0715
  210MOL    H7529753   3.989   4.363   0.533 -2.4844  0.4481 -4.3962
  210MOL    H7629754   3.889   4.410   0.673  0.0436  0.8713 -1.4932
  210MOL    H7729755   3.848   4.166   0.707  0.8988 -0.2479  1.0414
  210MOL    H7829756   4.022   4.213   0.726 -0.9052  1.8327  1.1714
  210MOL    C7929757   3.984   3.984   0.630 -0.0296  0.8015  0.0518
  210MOL    C8029758   4.117   3.957   0.711  0.0842 -0.2980  0.4063
  210MOL    O8129759   4.087   3.967   0.853 -0.1222 -0.3802  0.2710
  210MOL    H8229760   3.895   3.959   0.688  1.1141 -1.0283  1.0714
  210MOL    H8329761   3.985   3.912   0.548 -1.4860  2.0141 -1.0670
  210MOL    H8429762   4.196   4.029   0.691 -1.6252  1.9804  1.6373
  210MOL    H8529763   4.152   3.854   0.707 -0.6264 -0.5242 -0.1153
  210MOL    C8629764   4.202   3.930   0.929  0.7123 -0.2817  0.4841
  210MOL    C8729765   4.187   3.960   1.082 -0.5656  0.5049 -0.2496
  210MOL    O8829766   4.088   3.874   1.136 -0.2799  0.4179  0.0276
  210MOL    H8929767   4.229   3.825   0.916  0.1190 -0.2271 -1.3560
  210MOL    H9029768   4.283   3.995   0.897 -0.8377  0.7813 -1.4178
  210MOL    H9129769   4.157   4.062   1.106  1.8443  1.1986 -0.1153
  210MOL    H9229770   4.276   3.934   1.138 -0.0074  0.0357 -1.3459
  210MOL    C9329771   4.056   3.908   1.268  0.9201  0.0905  0.3041
  210MOL    C9429772   3.942   3.814   1.329  0.4642 -0.3611 -0.4108
  210MOL    O9529773   3.989   3.685   1.328  0.1325 -0.4594 -0.3219
  210MOL    H9629774   4.147   3.906   1.329  1.9497  2.5648 -1.0974
  210MOL    H9729775   4.019   4.010   1.269  0.1827 -0.1473 -1.1639
  210MOL    H9829776   3.856   3.818   1.262  0.7333  1.3833 -0.6799
  210MOL    H9929777   3.917   3.849   1.429  3.1567 -0.6509  0.4088
  210MOL   C10029778   3.930   3.593   1.415  0.0148  0.1926  0.4091
  210MOL   C10129779   4.029   3.494   1.476  1.2201  0.3873 -0.2295
  210MOL   O10229780   4.086   3.400   1.382  0.2203  0.1424  0.0632
  210MOL   H10329781   3.878   3.645   1.495 -0.0685 -0.0952  0.5449
  210MOL   H10429782   3.849   3.540   1.365 -0.0096  1.2403 -0.6786
  210MOL   H10529783   3.974   3.439   1.552 -2.9004  0.4888 -2.9520
  210MOL   H10629784   4.111   3.548   1.523  0.3155  1.7518 -0.1933
  210MOL   C10729785   4.164   3.291   1.436  0.9097 -0.1884  0.2083
  210MOL   C10829786   4.204   3.177   1.338 -0.4648 -0.4581  0.4665
  210MOL   O10929787   4.216   3.045   1.396  0.4105 -0.0377 -0.1383
  210MOL   H11029788   4.251   3.333   1.487  1.2878  2.3513 -2.4219
  210MOL   H11129789   4.101   3.252   1.516  1.1119 -0.6385  0.1503
  210MOL   H11229790   4.301   3.198   1.293 -0.6759  0.3820  0.3942
  210MOL   H11329791   4.141   3.173   1.249  0.0597 -2.1455  0.1557
  210MOL   C11429792   4.245   2.947   1.301  0.5407 -0.0406  0.0460
  210MOL   C11529793   4.255   2.801   1.350 -0.0886  0.3511 -0.7716
  210MOL   O11629794   4.389   2.765   1.389  1.0621  0.3353  0.0986
  210MOL   H11729795   4.163   2.948   1.229  0.9883 -2.0663 -0.5482
  210MOL   H11829796   4.333   2.967   1.239 -0.2685  1.2399 -0.7113
  210MOL   H11929797   4.225   2.730   1.272 -0.4912  0.6649 -0.9038
  210MOL   H12029798   4.194   2.787   1.440  0.2342  0.4903 -0.5333
  210MOL   C12129799   4.391   2.648   1.467 -0.6682  0.1819  0.1756
  210MOL   C12229800   4.542   2.617   1.478  0.1100  0.1563 -0.3992
  210MOL   O12329801   4.577   2.539   1.362 -0.0145  0.0763  0.3512
  210MOL   H12429802   4.359   2.681   1.565  0.3917 -1.9626  1.2869
  210MOL   H12529803   4.338   2.556   1.440 -0.3473  0.5678 -1.8917
  210MOL   H12629804   4.552   2.574   1.577  0.1153  1.6976  0.2807
  210MOL   H12729805   4.591   2.715   1.478 -1.0445  0.7418 -0.3817
  210MOL   C12829806   4.718   2.526   1.353 -0.3143 -1.2614  0.0707
  210MOL   C12929807   4.753   2.432   1.234  0.2349 -0.4556 -0.6380
  210MOL   O13029808   4.752   2.501   1.111 -0.0210  0.5262  0.2848
  210MOL   H13129809   4.771   2.621   1.355 -1.2989 -0.6948  3.9998
  210MOL   H13229810   4.759   2.471   1.438  0.9205 -1.3045 -0.5362
  210MOL   H13329811   4.696   2.339   1.232  2.6533 -1.9862 -0.7020
  210MOL   H13429812   4.852   2.390   1.252  0.8902  1.3230  0.1024
  210MOL   C13529813   4.775   2.410   1.001 -0.4030 -0.2412 -0.0235
  210MOL   C13629814   4.796   2.488   0.868  0.8340  0.2307 -0.1773
  210MOL   O13729815   4.811   2.401   0.765  0.1843 -0.0617  0.1428
  210MOL   H13829816   4.859   2.346   1.030 -0.5778  0.4346  2.0380
  210MOL   H13929817   4.690   2.342   0.988  0.4828 -1.0443 -1.7264
  210MOL   H14029818   4.874   2.563   0.882  0.6662 -0.0927  2.8069
  210MOL   H14129819   4.710   2.549   0.843  2.2281  1.6107 -1.7434
  210MOL   H14229820   4.901   2.371   0.766 -0.2555 -1.4329  0.4750
  211MOL     C129821   2.911   5.701   5.098  0.1525 -0.5969  0.3525
  211MOL     C229822   2.869   5.816   5.182 -0.8079 -0.0489 -0.1961
  211MOL     O329823   2.799   5.751   5.288  0.4142 -0.9145  0.1090
  211MOL     H429824   2.993   5.727   5.032 -0.2013 -0.9891 -0.2449
  211MOL     H529825   2.834   5.661   5.032  2.0374  0.1701 -2.4036
  211MOL     H629826   2.798   5.877   5.127  0.0098  0.3189 -0.8483
  211MOL     H729827   2.948   5.883   5.218 -0.6279 -0.3270 -0.0761
  211MOL     H829828   2.950   5.625   5.166  3.7238  0.4741 -0.4208
  211MOL     C929829   2.767   5.848   5.391  0.7734 -0.1148 -0.3025
  211MOL    C1029830   2.693   5.787   5.517  0.1892 -0.7840  0.2647
  211MOL    O1129831   2.556   5.783   5.495 -0.3205  0.1851 -0.4116
  211MOL    H1229832   2.854   5.902   5.428 -0.3825  2.3829 -1.1309
  211MOL    H1329833   2.703   5.921   5.343 -1.4635 -1.8412 -0.0446
  211MOL    H1429834   2.713   5.840   5.610 -0.6521 -0.8904  0.5112
  211MOL    H1529835   2.725   5.685   5.534  1.9315  0.0557  2.1085
  211MOL    C1629836   2.482   5.749   5.609  0.5751 -0.5110  0.5279
  211MOL    C1729837   2.331   5.756   5.565 -0.9070  0.1895  0.2385
  211MOL    O1829838   2.261   5.750   5.687 -0.1148  0.1220  0.0267
  211MOL    H1929839   2.508   5.648   5.641  1.3807 -1.3820 -2.6522
  211MOL    H2029840   2.503   5.810   5.696  2.7444  0.5392 -0.6728
  211MOL    H2129841   2.327   5.667   5.502  1.4232  0.4901 -0.3895
  211MOL    H2229842   2.323   5.842   5.499  3.9467  0.1042 -0.6282
  211MOL    C2329843   2.127   5.706   5.675  0.3076 -0.5475 -0.3797
  211MOL    C2429844   2.105   5.549   5.682 -0.9824 -0.0947  0.1180
  211MOL    O2529845   2.131   5.487   5.555  0.1067  0.0540  0.0336
  211MOL    H2629846   2.077   5.755   5.759  1.5186 -1.8439  1.1289
  211MOL    H2729847   2.092   5.734   5.576 -1.2399 -0.7278  0.1021
  211MOL    H2829848   2.004   5.527   5.718 -1.2823  0.1600 -0.5440
  211MOL    H2929849   2.169   5.506   5.758 -1.1744  1.9687  1.4782
  211MOL    C3029850   2.136   5.344   5.563  0.0918 -0.1792  0.7834
  211MOL    C3129851   2.182   5.282   5.433 -0.1802  0.8864  0.3684
  211MOL    O3229852   2.308   5.336   5.388 -0.7049 -0.0720  0.0054
  211MOL    H3329853   2.190   5.317   5.653  0.4964  1.1132  0.9330
  211MOL    H3429854   2.031   5.322   5.580 -0.2386 -0.1715 -1.0675
  211MOL    H3529855   2.097   5.313   5.372  0.3649 -0.3411 -1.0729
  211MOL    H3629856   2.187   5.173   5.428  0.9076  0.8951  1.0846
  211MOL    C3729857   2.325   5.334   5.245 -0.7150 -0.1752  0.4945
  211MOL    C3829858   2.459   5.417   5.227 -0.3354  0.7342  0.4985
  211MOL    O3929859   2.579   5.349   5.261  0.0372  0.2464  0.5316
  211MOL    H4029860   2.339   5.228   5.222 -0.4199 -0.0704  0.1838
  211MOL    H4129861   2.238   5.362   5.186 -1.5585 -2.1440  0.7345
  211MOL    H4229862   2.444   5.511   5.279 -1.7828  1.2228 -0.7916
  211MOL    H4329863   2.470   5.438   5.120  0.8164 -1.4175  0.1506
  211MOL    C4429864   2.697   5.421   5.268  0.0773 -0.0767  0.1684
  211MOL    C4529865   2.815   5.343   5.334  0.3548 -0.2714  0.5431
  211MOL    O4629866   2.798   5.333   5.477  0.2125  0.6166 -0.1048
  211MOL    H4729867   2.727   5.447   5.166 -1.6672  0.3718 -0.2574
  211MOL    H4829868   2.691   5.517   5.320  0.1420 -0.2757  0.5425
  211MOL    H4929869   2.908   5.390   5.301  0.4657 -0.5564  0.4488
  211MOL    H5029870   2.830   5.240   5.303  2.1439  0.4079 -0.9348
  211MOL    C5129871   2.910   5.389   5.541  0.4193  0.2213 -0.5624
  211MOL    C5229872   2.860   5.410   5.685  0.4495  0.2095  0.4822
  211MOL    O5329873   2.969   5.481   5.741  0.1921 -0.1907  0.0539
  211MOL    H5429874   3.003   5.332   5.538  0.9906  1.1566 -0.8114
  211MOL    H5529875   2.929   5.490   5.503 -2.6335  0.5577 -1.3242
  211MOL    H5629876   2.841   5.324   5.749  0.0167  0.7518  1.0984
  211MOL    H5729877   2.769   5.471   5.687 -0.9070 -1.7024 -0.9269
  211MOL    C5829878   2.944   5.519   5.878 -0.5057  0.3747 -0.1983
  211MOL    C5929879   3.023   5.635   5.928 -0.3529 -0.5723  0.8139
  211MOL    O6029880   2.976   5.763   5.869  0.3341  0.2367 -0.3286
  211MOL    H6129881   2.840   5.553   5.885  0.3977  3.3904 -0.6234
  211MOL    H6229882   2.959   5.429   5.938 -1.5005  1.9007  2.4379
  211MOL    H6329883   3.129   5.633   5.901 -0.9207  2.1232 -1.8407
  211MOL    H6429884   3.025   5.632   6.037 -2.5528 -1.2507  0.8550
  211MOL    C6529885   3.053   5.875   5.918 -0.4455 -0.6632 -0.1744
  211MOL    C6629886   2.986   6.009   5.875 -0.6545 -0.4433 -0.1227
  211MOL    O6729887   2.875   6.046   5.949  0.4457  0.2064  0.7145
  211MOL    H6829888   3.071   5.877   6.025 -1.5081  1.6070 -0.0183
  211MOL    H6929889   3.144   5.864   5.859 -1.7426 -0.0127 -2.3849
  211MOL    H7029890   2.960   6.009   5.769 -0.8044  0.3783 -0.0937
  211MOL    H7129891   3.060   6.089   5.885  0.6495 -1.7948  1.3458
  211MOL    C7229892   2.759   5.970   5.922 -0.0738 -0.5984 -0.3145
  211MOL    C7329893   2.663   6.025   6.022  0.7961 -0.3258 -0.1694
  211MOL    O7429894   2.625   6.160   6.005 -0.2884 -0.2877 -0.4371
  211MOL    H7529895   2.723   5.981   5.820  0.4816  0.9511 -0.3576
  211MOL    H7629896   2.774   5.865   5.950 -1.4010 -0.5913  0.4403
  211MOL    H7729897   2.696   6.002   6.124  1.4122 -4.0276 -1.1260
  211MOL    H7829898   2.568   5.974   6.007 -0.5589  2.2970 -0.7855
  211MOL    C7929899   2.545   6.210   6.104 -0.1983 -0.2964 -0.9124
  211MOL    C8029900   2.623   6.271   6.222  0.6774  0.0984  0.1806
  211MOL    O8129901   2.661   6.165   6.318 -0.1178 -0.1754 -0.0453
  211MOL    H8229902   2.499   6.300   6.065 -1.2480 -0.3225  0.2228
  211MOL    H8329903   2.470   6.132   6.121  1.6777 -1.2572  3.7323
  211MOL    H8429904   2.550   6.331   6.275 -1.1270  1.0676 -3.2975
  211MOL    H8529905   2.707   6.338   6.203 -1.0881  2.1698 -0.4407
  211MOL    C8629906   2.638   6.205   6.450 -0.4645  0.0111  0.7587
  211MOL    C8729907   2.665   6.066   6.519  0.0729 -0.3226  0.3528
  211MOL    O8829908   2.805   6.030   6.530 -0.2726 -0.0720  0.3128
  211MOL    H8929909   2.705   6.281   6.489  0.0415  0.2278 -0.5264
  211MOL    H9029910   2.532   6.226   6.465 -0.9181  0.0709 -2.2559
  211MOL    H9129911   2.610   5.990   6.464 -1.1529 -0.2018  1.3954
  211MOL    H9229912   2.635   6.067   6.624 -0.0757  2.3243  0.2982
  211MOL    C9329913   2.832   5.896   6.563  0.5390  1.2367  0.3328
  211MOL    C9429914   2.984   5.870   6.590 -0.1616 -0.1093 -0.2825
  211MOL    O9529915   3.018   5.890   6.729  0.8304  0.3130  0.1039
  211MOL    H9629916   2.767   5.866   6.644  0.6570 -1.2412 -0.4636
  211MOL    H9729917   2.816   5.846   6.467 -0.0340  1.1251  0.4853
  211MOL    H9829918   3.048   5.918   6.517  1.3372 -0.6823  0.6369
  211MOL    H9929919   2.995   5.763   6.574  0.6018 -0.0779  0.0126
  211MOL   C10029920   3.016   6.028   6.765  0.6120  0.0205 -0.1139
  211MOL   C10129921   3.104   6.052   6.887  0.1538  0.4881 -0.3151
  211MOL   O10229922   3.240   6.047   6.841 -0.2742  0.4372 -0.1075
  211MOL   H10329923   3.052   6.092   6.686  0.3749  1.3148  0.8140
  211MOL   H10429924   2.913   6.061   6.779 -0.1665 -1.2530 -2.5311
  211MOL   H10529925   3.088   5.982   6.969 -0.4305 -0.6466 -1.3807
  211MOL   H10629926   3.091   6.156   6.918  0.8826  1.1506 -2.1896
  211MOL   C10729927   3.293   6.167   6.786  0.1262 -0.1927 -0.3812
  211MOL   C10829928   3.430   6.127   6.726  0.0024  0.2541 -0.1295
  211MOL   O10929929   3.514   6.057   6.826  0.3463 -0.7912  0.0189
  211MOL   H11029930   3.232   6.211   6.706  0.3074 -0.5634 -0.7232
  211MOL   H11129931   3.315   6.239   6.865  1.1976 -0.8641 -0.0675
  211MOL   H11229932   3.483   6.221   6.711 -1.7089  1.3172  0.2741
  211MOL   H11329933   3.419   6.058   6.643  0.7011 -0.2794  0.2188
  211MOL   C11429934   3.619   5.991   6.774 -0.4663 -0.2056 -0.0146
  211MOL   C11529935   3.685   5.907   6.892 -0.5301 -0.3142  0.1809
  211MOL   O11629936   3.770   5.807   6.834  0.1828  0.1008  0.7614
  211MOL   H11729937   3.575   5.923   6.701 -4.1830  1.0762  0.9081
  211MOL   H11829938   3.691   6.056   6.725 -0.2453 -0.1784  0.3469
  211MOL   H11929939   3.611   5.862   6.960 -3.0011  0.5317 -1.8578
  211MOL   H12029940   3.736   5.972   6.963  0.1975 -1.4394  0.6970
  211MOL   C12129941   3.697   5.701   6.768 -0.1594  0.9583  0.0687
  211MOL   C12229942   3.795   5.595   6.725  0.7514 -0.0912 -0.2670
  211MOL   O12329943   3.855   5.644   6.605 -0.3697  0.5131  0.2542
  211MOL   H12429944   3.615   5.661   6.828  0.5275 -3.2009 -1.5801
  211MOL   H12529945   3.650   5.733   6.675 -2.5432  0.2155  0.9881
  211MOL   H12629946   3.741   5.504   6.700  1.3101 -0.0709 -1.5377
  211MOL   H12729947   3.866   5.576   6.806  1.3817  3.9660  0.2891
  211MOL   C12829948   3.943   5.551   6.549 -0.1550  0.0452  0.5355
  211MOL   C12929949   4.054   5.489   6.644  0.6905  0.0774  0.0261
  211MOL   O13029950   4.143   5.595   6.667 -0.0771  0.2209 -0.1520
  211MOL   H13129951   3.872   5.476   6.514  0.1337  0.3487 -0.7426
  211MOL   H13229952   3.992   5.589   6.459 -1.3412 -0.0474 -0.1594
  211MOL   H13329953   4.106   5.409   6.592  2.5132  1.7636 -0.8080
  211MOL   H13429954   4.013   5.453   6.738  2.1666 -1.2292  0.1692
  211MOL   C13529955   4.262   5.545   6.739 -0.0989  0.4482  0.5034
  211MOL   C13629956   4.376   5.650   6.741  0.3924 -0.1672 -0.6364
  211MOL   O13729957   4.393   5.685   6.605 -0.5696  0.6885 -0.1403
  211MOL   H13829958   4.243   5.502   6.837 -3.1249  0.2606 -0.1085
  211MOL   H13929959   4.302   5.456   6.691 -2.1664 -1.6518  2.5436
  211MOL   H14029960   4.463   5.593   6.774  2.1234  3.1947  0.7646
  211MOL   H14129961   4.362   5.737   6.805  0.3742 -1.2135  0.8117
  211MOL   H14229962   4.311   5.712   6.566  0.1018 -1.2892 -3.1068
  212MOL     C129963   3.015   6.146   6.290 -0.3447 -0.0328 -0.1243
  212MOL     C229964   3.146   6.170   6.213 -0.2836  0.2964  0.4112
  212MOL     O329965   3.247   6.179   6.308 -0.2055 -0.1581  0.3301
  212MOL     H429966   3.020   6.193   6.388  0.6230 -1.3136  0.4536
  212MOL     H529967   3.006   6.039   6.308 -0.8268  0.3205  1.8052
  212MOL     H629968   3.130   6.264   6.158  2.1252  0.6572  0.2783
  212MOL     H729969   3.164   6.092   6.139 -4.2568 -0.2979 -0.0392
  212MOL     H829970   2.919   6.163   6.241 -0.1647 -0.6094 -0.6906
  212MOL     C929971   3.373   6.236   6.264 -0.7570  0.7770 -0.1862
  212MOL    C1029972   3.473   6.129   6.219  0.0410 -0.5740 -0.2776
  212MOL    O1129973   3.433   6.050   6.110 -0.0554  0.0491  0.0565
  212MOL    H1229974   3.361   6.302   6.178 -1.0351 -0.1188 -0.8495
  212MOL    H1329975   3.406   6.309   6.337 -2.5421  0.7092  0.7275
  212MOL    H1429976   3.485   6.052   6.295 -0.3351 -0.1295  0.2347
  212MOL    H1529977   3.564   6.183   6.193  0.3135 -0.2383  1.3328
  212MOL    C1629978   3.531   5.951   6.083  0.6670  0.0196 -0.1025
  212MOL    C1729979   3.650   6.001   6.000  0.3901  0.3961 -0.2390
  212MOL    O1829980   3.740   6.073   6.085 -0.4989  0.1553  0.4768
  212MOL    H1929981   3.563   5.900   6.174  0.5484  1.2493  0.6367
  212MOL    H2029982   3.478   5.884   6.016  1.5669  0.3663 -1.1563
  212MOL    H2129983   3.619   6.063   5.916  1.5803  0.3653 -0.7183
  212MOL    H2229984   3.707   5.919   5.955 -2.2260 -0.3445 -2.2959
  212MOL    C2329985   3.866   6.107   6.038 -0.1760  0.6461  0.2069
  212MOL    C2429986   3.967   5.982   6.022 -0.0561  0.0259 -0.4157
  212MOL    O2529987   3.937   5.899   5.906 -0.0086 -0.0722 -0.3028
  212MOL    H2629988   3.865   6.176   5.954 -0.3627 -0.0356 -0.3607
  212MOL    H2729989   3.907   6.167   6.118  0.1980  2.0686 -1.0259
  212MOL    H2829990   3.961   5.935   6.120 -0.2519 -1.1546 -0.9896
  212MOL    H2929991   4.067   6.024   6.011  0.8601 -2.0525 -0.1925
  212MOL    C3029992   4.026   5.789   5.909  0.9956 -0.8774  0.2715
  212MOL    C3129993   4.030   5.718   5.779 -0.1561 -0.5335  0.3438
  212MOL    O3229994   4.104   5.783   5.677  0.2372  0.0594  0.1144
  212MOL    H3329995   4.130   5.811   5.931  0.7182 -0.5010  1.2242
  212MOL    H3429996   4.008   5.723   5.994 -1.0200 -0.9458 -0.1869
  212MOL    H3529997   3.930   5.699   5.740 -1.0797 -1.4869  3.0041
  212MOL    H3629998   4.093   5.629   5.781 -0.8748 -1.0373  3.5750
  212MOL    C3729999   4.030   5.884   5.599 -0.4512  0.0479  0.2114
  212MOL    C3830000   4.133   5.962   5.516 -0.4696  0.4839  0.0130
  212MOL    O3930001   4.204   6.066   5.585 -0.2625 -0.0640  0.1187
  212MOL    H4030002   3.960   5.834   5.533 -0.9047  0.8655  0.0656
  212MOL    H4130003   3.979   5.952   5.667 -0.9292 -1.8211  1.7859
  212MOL    H4230004   4.077   6.021   5.443  1.7038  1.6842 -0.7154
  212MOL    H4330005   4.205   5.901   5.461 -1.4834 -1.0391  0.3462
  212MOL    C4430006   4.266   6.167   5.511  0.5640  0.5721  0.1352
  212MOL    C4530007   4.396   6.226   5.560  0.3390  0.9497  0.0505
  212MOL    O4630008   4.463   6.294   5.452 -0.0110  0.2069  0.6160
  212MOL    H4730009   4.283   6.131   5.409  0.2093  1.3082 -0.1846
  212MOL    H4830010   4.194   6.249   5.509 -0.2798 -0.1839 -2.0985
  212MOL    H4930011   4.460   6.140   5.579 -1.5612 -0.6730 -0.7905
  212MOL    H5030012   4.384   6.289   5.648 -1.1486 -1.0433  1.3264
  212MOL    C5130013   4.595   6.341   5.466  0.3503  0.4573 -0.6326
  212MOL    C5230014   4.598   6.454   5.576  0.0481  0.1887  0.2758
  212MOL    O5330015   4.728   6.506   5.590  0.5011  0.6432  0.5716
  212MOL    H5430016   4.670   6.268   5.498  0.3769 -0.2277 -2.1940
  212MOL    H5530017   4.641   6.376   5.374  2.3035 -2.8527 -0.9828
  212MOL    H5630018   4.573   6.417   5.676  1.4542 -0.5513  0.3686
  212MOL    H5730019   4.530   6.533   5.542 -0.5754 -0.7815 -0.7472
  212MOL    C5830020   4.741   6.615   5.680  0.4452  0.4877  0.4806
  212MOL    C5930021   4.861   6.702   5.635 -0.3875  0.1126 -0.2859
  212MOL    O6030022   4.981   6.637   5.685  0.2762 -0.4965 -0.6475
  212MOL    H6130023   4.656   6.684   5.677  0.0237 -0.0103  0.9701
  212MOL    H6230024   4.757   6.588   5.784 -1.1392  0.3372  0.6924
  212MOL    H6330025   4.857   6.801   5.680  2.1724  0.0785  0.0810
  212MOL    H6430026   4.856   6.730   5.530  1.2376 -1.9424 -0.9553
  212MOL    C6530027   5.031   6.522   5.611  0.0119  0.1035 -0.2763
  212MOL    C6630028   4.993   6.391   5.687  0.0750 -0.1265  0.8515
  212MOL    O6730029   5.052   6.391   5.818 -0.1030  0.1199 -0.2055
  212MOL    H6830030   4.996   6.530   5.508  0.0277  0.7899 -0.2313
  212MOL    H6930031   5.139   6.530   5.607  0.1104 -0.3409  1.2480
  212MOL    H7030032   5.032   6.317   5.616 -0.6395 -0.6505  0.9976
  212MOL    H7130033   4.886   6.375   5.699  0.7340 -3.2367  3.2830
  212MOL    C7230034   5.038   6.265   5.881 -0.3350  0.5381 -0.7716
  212MOL    C7330035   5.124   6.259   6.010  0.3863 -0.3602  0.1441
  212MOL    O7430036   5.040   6.212   6.114 -0.9387 -0.5857  0.1699
  212MOL    H7530037   4.931   6.248   5.893 -0.2631  0.6285 -0.0124
  212MOL    H7630038   5.077   6.195   5.807  0.8675 -2.3782  2.5174
  212MOL    H7730039   5.155   6.356   6.049 -1.0459  0.3188 -0.3285
  212MOL    H7830040   5.214   6.200   6.001 -0.4179 -1.7320  0.9177
  212MOL    C7930041   5.115   6.159   6.221 -0.4217 -0.0390  0.4233
  212MOL    C8030042   5.012   6.115   6.322 -0.2202  0.7421 -0.5619
  212MOL    O8130043   4.936   5.992   6.299  0.2171 -0.2661 -0.1117
  212MOL    H8230044   5.165   6.070   6.181 -0.3841 -0.1857  0.7979
  212MOL    H8330045   5.188   6.219   6.275  0.3370 -2.1393  1.8020
  212MOL    H8430046   4.945   6.195   6.355  0.5309  1.2838 -0.3509
  212MOL    H8530047   5.069   6.093   6.412  0.6142  0.3650 -1.1747
  212MOL    C8630048   4.834   6.003   6.196 -0.4971  0.1107  0.0431
  212MOL    C8730049   4.761   5.867   6.189  0.0360 -0.0733 -0.4262
  212MOL    O8830050   4.838   5.782   6.110 -0.1139  0.3158 -0.0365
  212MOL    H8930051   4.780   6.097   6.210  1.6715  1.2182  1.1769
  212MOL    H9030052   4.878   6.030   6.100 -0.2040  0.5130  0.2881
  212MOL    H9130053   4.662   5.887   6.149  0.2916 -0.4528 -1.2665
  212MOL    H9230054   4.743   5.817   6.284  0.8865  1.8777  0.7835
  212MOL    C9330055   4.781   5.666   6.057  0.2880  0.1891 -0.1052
  212MOL    C9430056   4.765   5.553   6.154 -0.1824 -0.0191 -0.3332
  212MOL    O9530057   4.642   5.564   6.232  0.2563 -0.9597 -0.1651
  212MOL    H9630058   4.684   5.680   6.009  0.2391  0.3232  0.0326
  212MOL    H9730059   4.848   5.637   5.977  0.6573 -0.2393  0.3547
  212MOL    H9830060   4.854   5.544   6.216 -0.4106  1.3214  0.1857
  212MOL    H9930061   4.758   5.460   6.097  0.6554 -1.1076  1.2917
  212MOL   C10030062   4.621   5.459   6.320 -0.0364 -0.2471 -0.6630
  212MOL   C10130063   4.672   5.495   6.453 -0.1689  0.3649 -0.4918
  212MOL   O10230064   4.683   5.374   6.534  0.0183 -0.1036 -0.5975
  212MOL   H10330065   4.514   5.443   6.329  0.2599 -1.1663  1.4980
  212MOL   H10430066   4.667   5.368   6.280  0.6796 -0.3310  0.3200
  212MOL   H10530067   4.624   5.582   6.497  1.6423  1.4479 -0.6247
  212MOL   H10630068   4.773   5.529   6.430  0.2352 -1.5654 -1.6613
  212MOL   C10730069   4.738   5.413   6.661  0.0310  0.4553 -0.3573
  212MOL   C10830070   4.748   5.295   6.754  0.2437  0.3157  0.2258
  212MOL   O10930071   4.840   5.205   6.697  0.2996 -0.6645 -0.5965
  212MOL   H11030072   4.834   5.465   6.652  1.2131 -1.5911  0.0061
  212MOL   H11130073   4.667   5.481   6.709 -1.9054 -1.1127 -0.9734
  212MOL   H11230074   4.648   5.253   6.753  0.4109 -0.0925  0.4747
  212MOL   H11330075   4.774   5.324   6.856  1.7416  0.0030 -0.0500
  212MOL   C11430076   4.816   5.080   6.746  0.1811  0.3984 -0.2121
  212MOL   C11530077   4.929   4.989   6.711  0.5804  0.2405  0.2202
  212MOL   O11630078   5.046   5.050   6.760 -0.5020 -0.6150 -0.0564
  212MOL   H11730079   4.799   5.082   6.854  1.4776  0.6368 -0.0087
  212MOL   H11830080   4.728   5.036   6.699  0.3291 -0.1577  0.0299
  212MOL   H11930081   4.920   4.966   6.605 -2.1661  1.8329  0.0779
  212MOL   H12030082   4.912   4.894   6.761  1.2768 -0.3245 -0.5986
  212MOL   C12130083   5.165   4.979   6.724  0.2210 -0.0677 -0.0136
  212MOL   C12230084   5.167   4.833   6.774 -0.0554  0.4563  0.1930
  212MOL   O12330085   5.302   4.787   6.741  0.9973 -0.3279  0.4304
  212MOL   H12430086   5.169   4.986   6.615 -0.5039  0.7783  0.0120
  212MOL   H12530087   5.243   5.042   6.766  0.2949  0.2726 -0.6614
  212MOL   H12630088   5.087   4.772   6.732 -0.8514  2.4062 -1.2068
  212MOL   H12730089   5.159   4.833   6.883 -0.8929 -0.1561  0.1355
  212MOL   C12830090   5.330   4.650   6.761 -0.4884  0.0047 -0.0384
  212MOL   C12930091   5.469   4.630   6.700 -0.2073 -0.1422 -0.6670
  212MOL   O13030092   5.565   4.716   6.760  0.7259 -0.1965  0.0170
  212MOL   H13130093   5.326   4.626   6.867  1.6191 -0.2545  0.0013
  212MOL   H13230094   5.250   4.600   6.706  0.1833 -1.9435  0.7140
  212MOL   H13330095   5.473   4.633   6.591 -0.4628  2.4480 -0.6305
  212MOL   H13430096   5.493   4.526   6.723  0.0215  0.1362  0.3572
  212MOL   C13530097   5.696   4.691   6.719  0.5107 -0.0621 -0.3674
  212MOL   C13630098   5.774   4.808   6.783  0.5628 -0.4742  0.3937
  212MOL   O13730099   5.913   4.808   6.746  0.3849 -0.5425  0.7855
  212MOL   H13830100   5.736   4.599   6.761 -1.6922  0.2758  2.6153
  212MOL   H13930101   5.709   4.702   6.611 -1.4790  0.4048 -0.5811
  212MOL   H14030102   5.764   4.795   6.891 -1.9768  0.2583  0.2771
  212MOL   H14130103   5.730   4.901   6.748 -1.4221 -1.1835  0.9867
  212MOL   H14230104   5.955   4.723   6.741  1.7455  0.1430  0.1687
  213MOL     C130105   3.651   1.412   2.453  0.4403  0.0391 -0.1893
  213MOL     C230106   3.610   1.443   2.598  0.0928 -0.0752  0.6963
  213MOL     O330107   3.469   1.436   2.596  0.0160  0.0068  0.4885
  213MOL     H430108   3.612   1.497   2.396 -0.4868  0.0364  0.4335
  213MOL     H530109   3.624   1.312   2.421 -0.2799 -0.0394  0.6291
  213MOL     H630110   3.644   1.539   2.636 -0.9699  0.0526  1.3730
  213MOL     H730111   3.638   1.364   2.668 -0.2914  0.8701  1.9306
  213MOL     H830112   3.759   1.419   2.446  0.2560  2.3725 -1.2524
  213MOL     C930113   3.406   1.428   2.724  0.1639  0.6015 -0.3065
  213MOL    C1030114   3.255   1.402   2.700 -0.1435  0.3623  0.4981
  213MOL    O1130115   3.194   1.531   2.699  0.1419  0.2719  0.2530
  213MOL    H1230116   3.441   1.348   2.788  1.4909  2.7820  1.7849
  213MOL    H1330117   3.426   1.521   2.778  2.1807  0.3102 -0.5232
  213MOL    H1430118   3.226   1.344   2.787 -1.4529 -0.0590 -0.1981
  213MOL    H1530119   3.231   1.349   2.607 -0.0131 -1.6701  1.5843
  213MOL    C1630120   3.201   1.587   2.570  0.1771 -0.4613  0.3408
  213MOL    C1730121   3.095   1.535   2.466 -0.2557  0.5500 -0.4740
  213MOL    O1830122   3.157   1.420   2.390  0.0011 -0.2208  0.1829
  213MOL    H1930123   3.194   1.693   2.595  1.7915 -0.5505  1.2273
  213MOL    H2030124   3.300   1.596   2.525  0.6604  0.5374  1.5815
  213MOL    H2130125   3.073   1.611   2.391  2.0218  1.1387 -0.5746
  213MOL    H2230126   3.001   1.510   2.516 -0.8976  1.1533 -1.3570
  213MOL    C2330127   3.062   1.328   2.333 -0.1803 -0.2243 -0.5102
  213MOL    C2430128   2.960   1.392   2.239 -0.2200  0.8074 -0.0016
  213MOL    O2530129   2.861   1.463   2.312  0.1716  0.2389 -0.2359
  213MOL    H2630130   3.111   1.239   2.294 -1.5829 -1.8911  1.3949
  213MOL    H2730131   3.014   1.285   2.421 -2.3739  1.6544 -0.7317
  213MOL    H2830132   2.913   1.310   2.184  0.5074  0.6416 -0.3831
  213MOL    H2930133   3.014   1.459   2.172  1.9295  0.0986  0.9767
  213MOL    C3030134   2.786   1.543   2.223 -0.8562  0.1422  0.0848
  213MOL    C3130135   2.673   1.596   2.308  0.3619  0.3941 -0.2300
  213MOL    O3230136   2.722   1.676   2.416  0.6637 -0.5107 -0.1324
  213MOL    H3330137   2.847   1.620   2.176 -0.5763  1.3666  2.4330
  213MOL    H3430138   2.745   1.483   2.141 -2.3952  1.9184 -0.4791
  213MOL    H3530139   2.624   1.506   2.346 -1.0658  0.9601 -0.7001
  213MOL    H3630140   2.615   1.656   2.238  0.5383  1.6765  0.7067
  213MOL    C3730141   2.758   1.815   2.374 -0.1688 -0.2835 -0.4673
  213MOL    C3830142   2.852   1.881   2.472 -0.7072 -0.1996  0.5458
  213MOL    O3930143   2.976   1.904   2.399 -0.2174 -0.6148 -0.1250
  213MOL    H4030144   2.804   1.799   2.277  2.3773 -0.6118  0.7428
  213MOL    H4130145   2.673   1.882   2.363  1.1796  1.5874  0.2115
  213MOL    H4230146   2.861   1.818   2.561  2.6943 -1.6126 -0.7362
  213MOL    H4330147   2.819   1.981   2.500 -0.2783 -0.2360  1.1910
  213MOL    C4430148   3.073   1.976   2.475  0.6936  0.3570 -0.4353
  213MOL    C4530149   3.201   1.994   2.395 -0.5768 -0.3881 -0.0583
  213MOL    O4630150   3.178   2.085   2.285 -0.8957  0.0242  0.2355
  213MOL    H4730151   3.042   2.076   2.507 -0.6408 -0.8110  1.9860
  213MOL    H4830152   3.092   1.917   2.564  2.3625  1.7267  0.1373
  213MOL    H4930153   3.230   1.897   2.355  1.5279 -0.3932  1.3974
  213MOL    H5030154   3.274   2.041   2.461 -2.0370 -1.0087  2.0281
  213MOL    C5130155   3.297   2.156   2.240  0.6772 -0.3404 -0.5635
  213MOL    C5230156   3.258   2.237   2.114  0.3570  0.3049  0.4512
  213MOL    O5330157   3.241   2.371   2.155  0.7025 -0.0489 -0.4733
  213MOL    H5430158   3.346   2.216   2.317 -0.4581  1.0731 -0.9174
  213MOL    H5530159   3.364   2.070   2.230 -0.3807 -1.4722  1.6921
  213MOL    H5630160   3.174   2.188   2.064  0.5270 -0.5912  1.0233
  213MOL    H5730161   3.340   2.226   2.044  0.1502  2.0535 -0.0788
  213MOL    C5830162   3.206   2.451   2.046  0.4172  0.0723 -0.1910
  213MOL    C5930163   3.308   2.558   2.020 -0.5296  0.0866 -0.0318
  213MOL    O6030164   3.420   2.506   1.958 -0.3760 -0.2576  0.0292
  213MOL    H6130165   3.182   2.393   1.957  0.8282 -0.9157  0.3325
  213MOL    H6230166   3.108   2.490   2.074 -0.0083 -0.5147 -0.8597
  213MOL    H6330167   3.344   2.602   2.113  0.2632 -0.1021 -0.2423
  213MOL    H6430168   3.252   2.628   1.958 -0.6589 -0.0267 -0.0420
  213MOL    C6530169   3.502   2.616   1.902 -0.4333 -0.0581 -0.0966
  213MOL    C6630170   3.591   2.538   1.801 -0.2122 -0.6453 -0.6283
  213MOL    O6730171   3.686   2.462   1.873 -0.0373  0.3415 -0.4401
  213MOL    H6830172   3.443   2.689   1.847  0.3071 -0.6161 -1.6542
  213MOL    H6930173   3.557   2.659   1.985 -0.1057 -3.2541  1.4387
  213MOL    H7030174   3.653   2.612   1.750  1.0563  1.0047  3.1188
  213MOL    H7130175   3.537   2.483   1.723  1.1014 -2.3256 -0.3762
  213MOL    C7230176   3.752   2.381   1.787 -0.6777 -0.1695  0.3014
  213MOL    C7330177   3.844   2.277   1.853  0.0703  0.9870 -0.7380
  213MOL    O7430178   3.770   2.170   1.916 -0.5118  0.4509 -0.2254
  213MOL    H7530179   3.692   2.327   1.714  1.8127 -3.2773  0.4047
  213MOL    H7630180   3.814   2.447   1.726 -1.4117  0.5707  0.3649
  213MOL    H7730181   3.919   2.304   1.928 -0.6198 -0.4706  0.5187
  213MOL    H7830182   3.905   2.225   1.779 -0.4306 -2.6636  1.2702
  213MOL    C7930183   3.678   2.210   2.016 -0.2416 -0.6371 -0.0448
  213MOL    C8030184   3.633   2.096   2.106  0.5864 -0.5444 -0.1604
  213MOL    O8130185   3.557   2.005   2.034 -0.3443  0.1081 -0.3785
  213MOL    H8230186   3.714   2.286   2.085 -0.6416 -0.9233  0.4802
  213MOL    H8330187   3.589   2.246   1.965  2.2191  2.9963 -1.9714
  213MOL    H8430188   3.580   2.128   2.196  1.5354 -0.1346  0.2495
  213MOL    H8530189   3.726   2.063   2.152  0.0831 -0.8449  0.6666
  213MOL    C8630190   3.602   1.875   2.061  0.1414  0.4165  0.6139
  213MOL    C8730191   3.502   1.775   2.003  1.1775 -0.0446 -0.2036
  213MOL    O8830192   3.515   1.653   2.071 -0.2444 -0.6547  0.0647
  213MOL    H8930193   3.704   1.877   2.021 -0.2317 -0.0866 -0.4034
  213MOL    H9030194   3.609   1.854   2.167 -0.4669 -2.2490  0.1625
  213MOL    H9130195   3.522   1.753   1.898  2.2396  1.8339 -0.4230
  213MOL    H9230196   3.401   1.817   2.001  0.9458 -0.5933 -0.0821
  213MOL    C9330197   3.403   1.611   2.146  0.3852  0.1790  0.1613
  213MOL    C9430198   3.286   1.560   2.058  0.4753 -0.1845  1.1893
  213MOL    O9530199   3.205   1.664   2.003 -0.3331 -0.3179 -0.0853
  213MOL    H9630200   3.445   1.520   2.188  1.4932 -0.2429 -1.7604
  213MOL    H9730201   3.367   1.681   2.221  2.5356  2.9183 -1.2882
  213MOL    H9830202   3.217   1.491   2.106  0.0981 -1.1286 -0.6718
  213MOL    H9930203   3.322   1.503   1.972 -1.2214  2.0867 -1.0908
  213MOL   C10030204   3.130   1.737   2.093 -0.2201  0.0845  0.3332
  213MOL   C10130205   3.031   1.832   2.025  0.1748 -0.2371  0.0806
  213MOL   O10230206   2.909   1.774   1.970  0.5579  0.2541 -0.2138
  213MOL   H10330207   3.072   1.684   2.168 -1.9639  0.5101 -0.6797
  213MOL   H10430208   3.202   1.809   2.134 -1.0514  0.3645  1.3220
  213MOL   H10530209   3.084   1.882   1.943  0.7668 -0.9968 -0.0014
  213MOL   H10630210   3.004   1.919   2.085 -3.4980 -0.4935 -1.1009
  213MOL   C10730211   2.796   1.860   1.945 -0.2193 -1.1537 -0.0206
  213MOL   C10830212   2.680   1.792   1.888 -0.1160 -0.7355 -1.0573
  213MOL   O10930213   2.601   1.710   1.973  0.2186  0.1757  0.3042
  213MOL   H11030214   2.777   1.917   2.036  0.2021 -3.0120  1.2631
  213MOL   H11130215   2.825   1.946   1.884 -0.7893 -1.2790 -0.4776
  213MOL   H11230216   2.711   1.721   1.812  0.6059  0.8407 -2.2797
  213MOL   H11330217   2.624   1.864   1.828  1.8943  0.0972 -1.9734
  213MOL   C11430218   2.492   1.643   1.913 -0.1034 -0.0598 -0.2391
  213MOL   C11530219   2.402   1.585   2.025  0.0731 -0.3765 -0.8032
  213MOL   O11630220   2.337   1.697   2.084 -0.2751  0.2829 -0.4009
  213MOL   H11730221   2.438   1.707   1.844 -1.7522 -0.5798  0.5519
  213MOL   H11830222   2.525   1.559   1.851 -0.8557 -0.4297 -0.1449
  213MOL   H11930223   2.476   1.535   2.088  2.3484  1.8382 -1.6206
  213MOL   H12030224   2.339   1.506   1.985 -1.8679  0.6402  0.1771
  213MOL   C12130225   2.254   1.654   2.184 -0.7646  1.3529 -0.8193
  213MOL   C12230226   2.214   1.773   2.259  0.6393  0.7115 -0.1553
  213MOL   O12330227   2.146   1.738   2.380 -0.3114 -0.9291 -0.6258
  213MOL   H12430228   2.170   1.595   2.147  1.5404 -1.0365 -2.4611
  213MOL   H12530229   2.315   1.591   2.250 -2.1305  0.9734  0.1027
  213MOL   H12630230   2.146   1.844   2.211  0.5729 -0.7684 -2.3049
  213MOL   H12730231   2.301   1.825   2.298  1.1987 -1.3349  1.4024
  213MOL   C12830232   2.113   1.853   2.457 -0.0476  0.1790 -0.0631
  213MOL   C12930233   2.085   1.789   2.594 -0.1109 -0.7325 -0.2943
  213MOL   O13030234   1.986   1.697   2.572 -0.7615  0.6211  0.2919
  213MOL   H13130235   2.202   1.916   2.456  0.1319 -0.0271  1.4653
  213MOL   H13230236   2.023   1.899   2.415 -1.2268 -2.4087 -0.4899
  213MOL   H13330237   2.052   1.858   2.672 -1.3586  0.3120 -1.7033
  213MOL   H13430238   2.173   1.741   2.635  0.0223 -2.3474 -2.3971
  213MOL   C13530239   1.976   1.596   2.674  0.1814 -0.3919 -0.5525
  213MOL   C13630240   1.876   1.481   2.647 -0.1474 -0.6141 -0.3013
  213MOL   O13730241   1.742   1.532   2.647  0.5833 -0.1333 -0.2273
  213MOL   H13830242   2.069   1.546   2.701  0.1956 -0.0685  0.0063
  213MOL   H13930243   1.957   1.643   2.770 -0.8583  0.1737 -1.0234
  213MOL   H14030244   1.881   1.391   2.708 -0.0243  0.5733  1.4562
  213MOL   H14130245   1.899   1.439   2.549 -0.3786 -1.1433 -0.1329
  213MOL   H14230246   1.750   1.615   2.602  3.0485 -1.4707 -2.3919
  214MOL     C130247   5.269   1.015   4.800  0.6536 -0.4855 -0.6838
  214MOL     C230248   5.395   1.040   4.716  0.2158  0.6517 -0.6747
  214MOL     O330249   5.355   1.037   4.577  0.6436 -0.1577  0.4128
  214MOL     H430250   5.230   0.913   4.799 -2.1310  0.5398 -0.5737
  214MOL     H530251   5.189   1.081   4.767  0.3188  0.3230  1.6419
  214MOL     H630252   5.459   0.958   4.750 -0.3418  1.2020  1.8318
  214MOL     H730253   5.440   1.138   4.728 -0.0581  0.4193  2.6979
  214MOL     H830254   5.270   1.048   4.904 -0.2567 -2.8619  0.1275
  214MOL     C930255   5.458   1.015   4.486 -0.4073  0.1389  0.0839
  214MOL    C1030256   5.417   1.018   4.343  0.1559  0.5672 -0.0203
  214MOL    O1130257   5.356   0.893   4.315 -0.1195  0.1987 -0.3213
  214MOL    H1230258   5.541   1.084   4.502 -1.6776  1.8398 -0.4585
  214MOL    H1330259   5.502   0.917   4.504 -0.9149  0.3379  2.6365
  214MOL    H1430260   5.509   1.034   4.286  1.2185 -2.7956  0.6399
  214MOL    H1530261   5.351   1.104   4.333  0.4326  0.6169 -1.4941
  214MOL    C1630262   5.287   0.897   4.192  0.5203 -0.5103 -0.0494
  214MOL    C1730263   5.203   0.776   4.191  0.2756  0.1444 -0.3285
  214MOL    O1830264   5.108   0.778   4.082 -0.1532 -0.6282 -0.2515
  214MOL    H1930265   5.237   0.991   4.172  0.4373 -0.5551 -0.0516
  214MOL    H2030266   5.359   0.880   4.112  1.2315 -2.7586  1.0102
  214MOL    H2130267   5.154   0.769   4.288 -1.1495  0.0382 -1.0298
  214MOL    H2230268   5.266   0.688   4.179 -1.8566 -1.3911 -0.6516
  214MOL    C2330269   5.032   0.659   4.070 -0.9874 -0.4053  0.1827
  214MOL    C2430270   4.954   0.625   4.199 -0.2415  0.6092  0.2593
  214MOL    O2530271   4.856   0.716   4.241 -0.4479 -0.1000  0.2987
  214MOL    H2630272   4.973   0.662   3.978  0.1017 -0.4310 -0.5347
  214MOL    H2730273   5.109   0.583   4.053 -0.1923  0.1431  1.2612
  214MOL    H2830274   5.021   0.595   4.280  1.1875 -0.3743 -1.2257
  214MOL    H2930275   4.903   0.531   4.178 -0.8423  1.0951 -0.4761
  214MOL    C3030276   4.785   0.699   4.355 -0.3855 -0.2856  0.1732
  214MOL    C3130277   4.725   0.839   4.395 -0.1379 -0.0718 -0.1162
  214MOL    O3230278   4.833   0.914   4.455 -0.2208  0.3533  0.0810
  214MOL    H3330279   4.701   0.630   4.344  0.5701 -1.3696 -0.3088
  214MOL    H3430280   4.847   0.666   4.438  1.6489  1.2393 -0.6895
  214MOL    H3530281   4.650   0.815   4.471  0.0429 -1.7474 -0.4505
  214MOL    H3630282   4.681   0.883   4.305 -1.3236  1.2103  1.0549
  214MOL    C3730283   4.916   0.986   4.356  1.1718  0.5035  0.4466
  214MOL    C3830284   4.992   1.092   4.437 -0.7833  1.0799 -0.1877
  214MOL    O3930285   4.909   1.200   4.473 -0.6027 -0.3939 -0.0791
  214MOL    H4030286   4.983   0.915   4.306  0.3451  0.0635 -0.0374
  214MOL    H4130287   4.849   1.035   4.286  2.6178  0.6991 -0.8369
  214MOL    H4230288   5.072   1.131   4.375 -0.3085  2.4458  1.2370
  214MOL    H4330289   5.034   1.055   4.530  1.5537 -1.9475 -2.3783
  214MOL    C4430290   4.847   1.193   4.605 -0.9350  0.1186  0.2000
  214MOL    C4530291   4.773   1.325   4.622 -0.0254  0.3729  0.4504
  214MOL    O4630292   4.864   1.415   4.673 -0.1430 -0.2955  0.4673
  214MOL    H4730293   4.774   1.114   4.587  2.1734 -2.4250 -1.7186
  214MOL    H4830294   4.916   1.166   4.685  0.7030  1.2690 -0.8061
  214MOL    H4930295   4.690   1.313   4.692 -0.8103  0.5525 -0.4335
  214MOL    H5030296   4.730   1.362   4.529  1.4255  1.6414  0.2712
  214MOL    C5130297   4.799   1.532   4.705  0.5066 -0.1390  0.4758
  214MOL    C5230298   4.901   1.625   4.762 -0.2551 -0.3949 -0.4985
  214MOL    O5330299   4.920   1.732   4.668  0.3407  0.3463 -0.5960
  214MOL    H5430300   4.754   1.582   4.619  2.0060 -0.6080 -0.6144
  214MOL    H5530301   4.720   1.512   4.777  0.3369 -1.3358 -0.0268
  214MOL    H5630302   4.994   1.577   4.793 -1.5274 -2.1029  0.7521
  214MOL    H5730303   4.844   1.661   4.847 -0.8770  0.0825 -1.1100
  214MOL    C5830304   5.037   1.808   4.699  0.1361  1.0346 -0.0669
  214MOL    C5930305   5.051   1.859   4.843 -0.3807  0.1621 -0.3520
  214MOL    O6030306   5.181   1.902   4.850  0.0303  0.0331  0.2449
  214MOL    H6130307   5.121   1.743   4.674 -1.0268 -0.0300 -1.2799
  214MOL    H6230308   5.046   1.896   4.635  0.3443 -0.6318 -2.3741
  214MOL    H6330309   5.035   1.780   4.916 -0.9552 -1.0074 -1.7347
  214MOL    H6430310   4.976   1.931   4.877  0.5348  0.6418  0.6833
  214MOL    C6530311   5.198   1.967   4.974  0.3177  0.5089 -0.1539
  214MOL    C6630312   5.346   1.993   4.989  0.2891 -0.1329  0.0271
  214MOL    O6730313   5.384   2.109   4.911 -0.1701 -0.4371 -0.4865
  214MOL    H6830314   5.139   2.057   4.990 -0.4975 -0.0396 -0.0363
  214MOL    H6930315   5.175   1.893   5.051  0.7323  0.9417  0.3927
  214MOL    H7030316   5.410   1.906   4.971  0.8029  0.2178  0.1473
  214MOL    H7130317   5.355   2.012   5.096 -1.3697 -1.4871  0.4245
  214MOL    C7230318   5.519   2.148   4.919  0.0798 -0.2326 -0.2196
  214MOL    C7330319   5.547   2.224   4.782  0.5482 -0.6048 -0.1265
  214MOL    O7430320   5.508   2.360   4.808 -0.3140  0.0502 -0.0988
  214MOL    H7530321   5.550   2.206   5.006 -0.6691 -1.2620  0.7453
  214MOL    H7630322   5.585   2.061   4.923  2.5320  1.6190  0.5610
  214MOL    H7730323   5.501   2.183   4.692 -3.3253  2.2907  0.4262
  214MOL    H7830324   5.654   2.222   4.765  0.4215 -1.6115 -0.8628
  214MOL    C7930325   5.560   2.448   4.710  0.5909 -0.7694 -0.4921
  214MOL    C8030326   5.505   2.591   4.719  0.3778 -0.1398 -0.2799
  214MOL    O8130327   5.575   2.661   4.830  0.2199  0.1342 -0.0903
  214MOL    H8230328   5.668   2.452   4.712  0.5709  0.3226 -1.0955
  214MOL    H8330329   5.541   2.413   4.608 -0.7398 -0.7938 -0.2467
  214MOL    H8430330   5.396   2.586   4.727  0.5630 -0.4555  2.7055
  214MOL    H8530331   5.525   2.644   4.626  0.6856 -2.2221 -1.4053
  214MOL    C8630332   5.524   2.782   4.868 -0.1551 -0.7494  0.7224
  214MOL    C8730333   5.595   2.863   4.974 -0.9629  0.6124 -0.6281
  214MOL    O8830334   5.736   2.875   4.944  0.4699 -0.0121 -0.1015
  214MOL    H8930335   5.505   2.851   4.786  0.8189 -1.0394  0.2532
  214MOL    H9030336   5.421   2.774   4.904 -0.5914 -0.0525 -0.3396
  214MOL    H9130337   5.582   2.807   5.067  1.2934  0.2774 -0.4742
  214MOL    H9230338   5.541   2.954   5.001 -0.5108  0.2116  1.7535
  214MOL    C9330339   5.814   2.914   5.049  0.0637 -0.1188 -0.8933
  214MOL    C9430340   5.968   2.903   5.018  0.2775  0.5882 -0.0533
  214MOL    O9530341   5.995   3.028   4.948  0.4704 -0.4177  0.3631
  214MOL    H9630342   5.785   3.012   5.088  3.0782  0.2110  0.6673
  214MOL    H9730343   5.803   2.862   5.144  0.1141  1.9642  0.2874
  214MOL    H9830344   5.983   2.809   4.965  0.6277 -0.1789  1.4096
  214MOL    H9930345   6.030   2.901   5.107 -0.3165 -0.9554  0.3429
  214MOL   C10030346   6.127   3.061   4.916  0.0137  0.0386  0.2232
  214MOL   C10130347   6.177   2.975   4.793 -0.3792  0.1592  0.3311
  214MOL   O10230348   6.235   2.851   4.833  0.0069 -0.4496 -0.4608
  214MOL   H10330349   6.134   3.165   4.885  0.8908 -0.4261 -1.2058
  214MOL   H10430350   6.193   3.061   5.003  1.2314 -1.5265 -0.6622
  214MOL   H10530351   6.254   3.030   4.739  0.8248  0.9251  2.7417
  214MOL   H10630352   6.097   2.953   4.722  0.2015  0.4904 -0.4343
  214MOL   C10730353   6.358   2.850   4.906  0.2507 -0.1105 -0.3945
  214MOL   C10830354   6.442   2.735   4.854 -0.5354 -0.2824  0.2226
  214MOL   O10930355   6.542   2.755   4.754 -0.3807  0.1486 -0.6059
  214MOL   H11030356   6.403   2.949   4.898  2.4958 -1.1853 -1.5516
  214MOL   H11130357   6.339   2.838   5.012 -1.0665  1.3734 -0.4467
  214MOL   H11230358   6.374   2.652   4.833 -1.0621 -0.3752  2.1843
  214MOL   H11330359   6.496   2.686   4.935 -0.3364 -0.1602  0.1632
  214MOL   C11430360   6.489   2.820   4.641 -0.5176  0.1356 -0.1022
  214MOL   C11530361   6.599   2.816   4.530  0.0314 -0.2257  0.1792
  214MOL   O11630362   6.695   2.918   4.559 -0.7069  0.4240 -0.8637
  214MOL   H11730363   6.400   2.770   4.602 -1.2685  1.0626  0.4142
  214MOL   H11830364   6.466   2.926   4.649  0.4961  0.2530  1.4992
  214MOL   H11930365   6.560   2.842   4.432  1.1020  2.6089  0.4367
  214MOL   H12030366   6.649   2.719   4.523  0.5734  0.1013 -0.5603
  214MOL   C12130367   6.796   2.924   4.460  0.1099  0.3292 -0.3682
  214MOL   C12230368   6.917   2.835   4.490 -0.4817  0.1965 -0.0562
  214MOL   O12330369   6.889   2.698   4.459 -0.2553 -0.0708  0.3437
  214MOL   H12430370   6.761   2.891   4.362  0.6192 -3.3627  0.6458
  214MOL   H12530371   6.839   3.024   4.454  0.6353  0.0908 -0.5611
  214MOL   H12630372   6.980   2.851   4.578  0.2877  2.2351 -0.9433
  214MOL   H12730373   6.988   2.875   4.417 -0.3417  0.0756  0.0117
  214MOL   C12830374   6.988   2.606   4.491 -0.0288 -0.5159  0.0149
  214MOL   C12930375   6.969   2.468   4.421 -0.2116  0.0194 -0.4718
  214MOL   O13030376   6.987   2.447   4.282  0.4503  0.0681 -0.6853
  214MOL   H13130377   7.092   2.637   4.483 -0.8148  1.4878 -3.2293
  214MOL   H13230378   6.969   2.571   4.593 -0.0972 -0.3247  0.0657
  214MOL   H13330379   6.865   2.438   4.436 -0.8938  2.2611 -0.5731
  214MOL   H13430380   7.030   2.392   4.469 -2.9243 -1.0335  1.4622
  214MOL   C13530381   7.113   2.480   4.233  0.2761  0.7225 -0.2798
  214MOL   C13630382   7.108   2.454   4.081 -0.0146  0.3269 -0.6229
  214MOL   O13730383   7.215   2.510   4.013  0.2424 -0.4720 -0.2723
  214MOL   H13830384   7.132   2.587   4.244  1.5041  0.4532  0.3881
  214MOL   H13930385   7.196   2.434   4.288 -0.3991  1.7834  1.6558
  214MOL   H14030386   7.017   2.495   4.037 -1.5339 -0.5353  1.6266
  214MOL   H14130387   7.117   2.346   4.066 -0.7258  0.1600  0.0926
  214MOL   H14230388   7.195   2.597   3.983  1.0829  0.0554  0.6706
  215MOL     C130389   5.240   1.894   7.647  0.0950 -0.7278 -0.0215
  215MOL     C230390   5.150   1.778   7.709  0.0893  0.4780 -0.0819
  215MOL     O330391   5.237   1.673   7.689  0.3706 -0.2564  0.1326
  215MOL     H430392   5.238   1.905   7.539 -0.7260 -0.6002  0.0027
  215MOL     H530393   5.346   1.892   7.672 -0.0657  1.1421  0.9398
  215MOL     H630394   5.058   1.781   7.652  0.5523 -0.2237 -0.8812
  215MOL     H730395   5.126   1.803   0.041  2.9477 -1.3410  1.0897
  215MOL     H830396   5.214   1.994   7.682  3.3392  0.0537  0.2846
  215MOL     C930397   5.218   1.565   7.770 -0.0379  0.7972 -0.3389
  215MOL    C1030398   5.081   1.486   7.766 -0.0118 -0.0719 -0.2596
  215MOL    O1130399   5.090   1.388   7.660  0.4836 -0.3791  0.0147
  215MOL    H1230400   5.296   1.495   7.739  1.5500  2.1992  0.4287
  215MOL    H1330401   5.242   1.590   0.102  1.0484 -0.1667 -0.3397
  215MOL    H1430402   4.989   1.541   7.754 -0.4347 -0.0456  2.6076
  215MOL    H1530403   5.084   1.419   0.081  1.1974 -2.4593 -2.0964
  215MOL    C1630404   5.066   1.451   7.530 -0.6698  0.0842 -0.7192
  215MOL    C1730405   5.083   1.353   7.413 -0.1520  0.8531 -0.5794
  215MOL    O1830406   4.986   1.250   7.389  0.4713  0.5028 -0.5617
  215MOL    H1930407   4.961   1.481   7.521 -1.0622 -1.0275 -0.0234
  215MOL    H2030408   5.126   1.541   7.520 -0.9677  0.4365  0.5888
  215MOL    H2130409   5.173   1.293   7.420 -0.1106  1.0359  0.6229
  215MOL    H2230410   5.104   1.410   7.322  2.1568 -0.5988 -1.0027
  215MOL    C2330411   4.915   1.277   7.269  0.2784  0.5408  0.2061
  215MOL    C2430412   4.821   1.163   7.247  0.6255  0.3876 -0.8775
  215MOL    O2530413   4.711   1.183   7.338  0.5377  0.4434  0.0137
  215MOL    H2630414   4.864   1.373   7.279  0.2274  0.7029 -1.4228
  215MOL    H2730415   4.985   1.277   7.186 -0.0637 -0.0266 -0.0825
  215MOL    H2830416   4.863   1.065   7.270  1.3431  0.6143 -1.2153
  215MOL    H2930417   4.791   1.162   7.142 -0.4141  4.0881 -0.6847
  215MOL    C3030418   4.602   1.108   7.299 -0.2584 -0.2145  0.0207
  215MOL    C3130419   4.499   1.102   7.413 -0.6779 -0.1291 -0.2626
  215MOL    O3230420   4.399   1.203   7.395  0.6309  0.9112  0.5654
  215MOL    H3330421   4.557   1.145   7.206 -0.0658 -0.8090 -0.3128
  215MOL    H3430422   4.623   1.003   7.279  0.2061  0.1659 -1.6112
  215MOL    H3530423   4.547   1.113   7.510  0.6661  0.7062 -1.0133
  215MOL    H3630424   4.456   1.002   7.405 -0.1676 -0.1977 -2.5939
  215MOL    C3730425   4.432   1.330   7.445 -0.1197 -0.4538  0.4070
  215MOL    C3830426   4.325   1.435   7.404 -0.1437 -0.2622 -0.8008
  215MOL    O3930427   4.212   1.405   7.482  0.1116 -0.4447  0.6129
  215MOL    H4030428   4.446   1.328   7.553  0.7878  1.7016  0.3751
  215MOL    H4130429   4.524   1.366   7.397 -1.2241  0.7018 -0.8796
  215MOL    H4230430   4.307   1.435   7.297 -1.3178 -1.4670 -0.6157
  215MOL    H4330431   4.341   1.538   7.436  2.1829 -0.3073 -1.7892
  215MOL    C4430432   4.104   1.497   7.460  0.9620 -0.1335 -0.3062
  215MOL    C4530433   3.975   1.443   7.523 -0.4558 -0.5784  0.1601
  215MOL    O4630434   3.970   1.444   7.663  0.6488  0.1142 -0.3849
  215MOL    H4730435   4.121   1.596   7.502 -1.7080  1.4405 -2.7358
  215MOL    H4830436   4.084   1.509   7.353 -1.2283  1.3186  0.2144
  215MOL    H4930437   3.955   1.345   7.481  0.4092 -1.3096  1.4097
  215MOL    H5030438   3.895   1.509   7.490  0.2391  0.0497 -0.2944
  215MOL    C5130439   3.841   1.407   7.697 -0.6408  0.0904 -0.4997
  215MOL    C5230440   3.828   1.438   0.070  0.6079  0.4050 -0.0818
  215MOL    O5330441   3.800   1.578   0.111  0.0592 -0.5463  0.0666
  215MOL    H5430442   3.772   1.475   7.647 -0.7402 -3.1239 -5.0361
  215MOL    H5530443   3.834   1.301   7.673 -1.0755 -0.7177  2.8992
  215MOL    H5630444   3.911   1.399   0.129 -0.5160  0.8169  1.8057
  215MOL    H5730445   3.739   1.390   0.112  1.0397  0.6839  1.1854
  215MOL    C5830446   3.901   1.671   0.094  0.0158 -0.9794  0.5737
  215MOL    C5930447   3.859   1.809   0.137  0.1628 -0.2670  0.1552
  215MOL    O6030448   3.821   1.803   0.275  0.3868 -0.1191 -0.6285
  215MOL    H6130449   3.985   1.643   0.158  2.1785  2.2880 -0.7355
  215MOL    H6230450   3.928   1.688   7.761 -1.7156  0.5741  0.3544
  215MOL    H6330451   3.774   1.850   0.083 -0.4249 -0.2891  1.0693
  215MOL    H6430452   3.955   1.860   0.123 -0.2188 -0.1765 -2.3777
  215MOL    C6530453   3.799   1.933   0.332 -0.7631 -0.7998 -0.9491
  215MOL    C6630454   3.772   1.931   0.480 -0.3505 -0.1964  0.5342
  215MOL    O6730455   3.781   2.067   0.518  0.1098  0.0917  0.6614
  215MOL    H6830456   3.891   1.990   0.323 -1.8254  1.0314 -0.4345
  215MOL    H6930457   3.714   1.974   0.279 -1.6938 -0.5367  0.7210
  215MOL    H7030458   3.850   1.872   0.528  1.3274  1.4254 -0.1853
  215MOL    H7130459   3.678   1.881   0.505 -0.1264 -0.9138 -0.0300
  215MOL    C7230460   3.733   2.084   0.649 -0.3832 -0.1952  0.2404
  215MOL    C7330461   3.722   2.238   0.683  0.9722  1.5719  0.1960
  215MOL    O7430462   3.852   2.281   0.721  0.1151  0.2358 -0.3193
  215MOL    H7530463   3.632   2.046   0.666 -0.3865 -0.1851  0.2449
  215MOL    H7630464   3.780   2.021   0.725  0.0206 -0.3861 -0.1675
  215MOL    H7730465   3.657   2.260   0.768  2.1630 -0.7476  1.7606
  215MOL    H7830466   3.689   2.299   0.599  0.6025 -0.7440 -1.3716
  215MOL    C7930467   3.897   2.252   0.853  0.6470  0.2122  0.3846
  215MOL    C8030468   3.988   2.358   0.898  0.3451  0.3199 -0.2062
  215MOL    O8130469   3.930   2.473   0.953  0.1293 -0.4071 -0.0875
  215MOL    H8230470   3.815   2.238   0.924  1.8588  2.5554  2.2801
  215MOL    H8330471   3.940   2.152   0.857 -0.6616 -0.3907 -0.0419
  215MOL    H8430472   4.038   2.397   0.809  0.8690 -1.6366 -0.8091
  215MOL    H8530473   4.072   2.323   0.958 -0.0849 -1.1388 -0.4376
  215MOL    C8630474   4.022   2.565   1.011  0.6995 -0.3856  0.0583
  215MOL    C8730475   3.962   2.695   1.055 -0.6515  0.4875 -0.1075
  215MOL    O8830476   3.931   2.691   1.193 -0.1198  0.3147  0.1181
  215MOL    H8930477   4.071   2.522   1.098 -2.0782 -0.0705  1.8495
  215MOL    H9030478   4.107   2.575   0.942  1.1326 -2.2097  0.3189
  215MOL    H9130479   3.877   2.719   0.992 -1.7892 -0.5490  1.0060
  215MOL    H9230480   4.035   2.774   1.040 -0.6081  0.3145 -0.8254
  215MOL    C9330481   3.881   2.814   1.242 -0.6377  0.1545  0.0683
  215MOL    C9430482   3.842   2.792   1.391 -0.2426 -0.2098  0.5046
  215MOL    O9530483   3.702   2.765   1.404  0.5212  0.4277  0.1340
  215MOL    H9630484   3.965   2.885   1.241 -0.1831 -0.3339  1.5144
  215MOL    H9730485   3.795   2.855   1.189 -1.1007  1.6704  1.9525
  215MOL    H9830486   3.857   2.889   1.438  1.9575 -1.4563  2.4467
  215MOL    H9930487   3.908   2.723   1.444  0.3268 -1.0444 -1.2580
  215MOL   C10030488   3.670   2.638   1.444 -0.0833  0.0294 -0.0953
  215MOL   C10130489   3.512   2.621   1.432  0.1916 -0.1091 -0.2269
  215MOL   O10230490   3.446   2.684   1.540  0.4187  0.2957 -0.2528
  215MOL   H10330491   3.702   2.566   1.369 -0.6276  0.8855 -1.1742
  215MOL   H10430492   3.705   2.605   1.542 -1.0434 -1.3441 -0.1899
  215MOL   H10530493   3.476   2.518   1.443 -0.1017  0.1056  0.8512
  215MOL   H10630494   3.466   2.655   1.339  2.3564  0.7877 -1.0055
  215MOL   C10730495   3.439   2.827   1.528 -0.4165  0.4644 -0.5991
  215MOL   C10830496   3.345   2.894   1.630 -1.0074  0.0200  0.3051
  215MOL   O10930497   3.410   2.984   1.716 -0.4311  0.1318 -0.3290
  215MOL   H11030498   3.537   2.871   1.550 -0.1566 -0.3297 -0.1585
  215MOL   H11130499   3.415   2.855   1.426  1.3929  0.2767 -1.0878
  215MOL   H11230500   3.285   2.822   1.686 -2.9436  0.3623 -1.2664
  215MOL   H11330501   3.267   2.950   1.578 -1.9262  0.4935  2.1417
  215MOL   C11430502   3.338   3.005   1.836 -0.6495 -0.0285 -0.1456
  215MOL   C11530503   3.407   3.105   1.928 -0.1652  0.1703  0.2828
  215MOL   O11630504   3.491   3.032   2.013  0.1171 -0.3684 -0.1915
  215MOL   H11730505   3.245   3.057   1.817 -0.7871 -0.4778 -0.7185
  215MOL   H11830506   3.315   2.909   1.883 -0.0385 -0.8107 -1.4292
  215MOL   H11930507   3.328   3.150   1.987  0.7243  0.0065  1.6287
  215MOL   H12030508   3.456   3.186   1.873 -0.9944  2.1979  2.4896
  215MOL   C12130509   3.559   3.109   2.110  0.4148  0.0919 -0.1559
  215MOL   C12230510   3.657   3.011   2.181 -0.0900 -0.6594 -0.2456
  215MOL   O12330511   3.601   2.941   2.290  0.3065  0.3758  0.5122
  215MOL   H12430512   3.607   3.193   2.059  1.3120  0.6109  1.4962
  215MOL   H12530513   3.487   3.158   2.175 -1.1339 -2.1905 -0.1183
  215MOL   H12630514   3.742   3.072   2.214  0.5892 -2.0209  0.6016
  215MOL   H12730515   3.710   2.933   2.125  0.8499 -2.0087  2.4234
  215MOL   C12830516   3.696   2.893   2.380  0.2707  0.1955  0.3547
  215MOL   C12930517   3.616   2.854   2.500 -0.1190 -0.9745  0.0479
  215MOL   O13030518   3.603   2.964   2.587 -0.0939  0.0796 -0.1692
  215MOL   H13130519   3.751   2.813   2.330  2.9155  0.9342  1.9696
  215MOL   H13230520   3.759   2.977   2.410  0.9027 -0.4996  0.9932
  215MOL   H13330521   3.681   2.779   2.544 -0.5204 -0.6692  1.1831
  215MOL   H13430522   3.524   2.799   2.483 -1.0025  0.4668  0.0512
  215MOL   C13530523   3.522   2.949   2.694 -0.6637 -0.6886  0.1834
  215MOL   C13630524   3.537   3.088   2.771 -0.2423 -0.3713 -0.3867
  215MOL   O13730525   3.659   3.104   2.837  0.0594  0.0470  0.3460
  215MOL   H13830526   3.419   2.932   2.662 -1.2470  1.1130  1.0198
  215MOL   H13930527   3.547   2.871   2.765 -1.1686 -1.1106 -0.0988
  215MOL   H14030528   3.460   3.080   2.848  0.7252  0.5019  0.6770
  215MOL   H14130529   3.510   3.171   2.706 -0.8538 -0.4160 -0.1889
  215MOL   H14230530   3.721   3.092   2.766 -1.2454 -1.3493 -0.6017
  216MOL     C130531   7.741   0.738   0.681  0.2469  0.5019  0.2250
  216MOL     C230532   7.627   0.642   0.710  0.8271  0.8038  0.2690
  216MOL     O330533   7.679   0.521   0.657 -0.0172  0.1413  0.2693
  216MOL     H430534   7.752   0.764   0.576 -0.9012  1.9271  0.4332
  216MOL     H530535   0.058   0.701   0.732 -0.2826 -0.7087  0.2672
  216MOL     H630536   7.539   0.671   0.652 -0.3966  1.1435  2.2497
  216MOL     H730537   7.608   0.638   0.817  0.2314 -1.3987  0.0987
  216MOL     H830538   7.720   0.831   0.734 -0.8302  0.8763 -0.8393
  216MOL     C930539   7.576   0.417   0.644 -0.2224 -0.6659  0.4783
  216MOL    C1030540   7.628   0.276   0.630 -0.2647  0.3679  0.0532
  216MOL    O1130541   7.527   0.200   0.569  0.0030  0.2999  0.6954
  216MOL    H1230542   7.517   0.405   0.734 -0.9263  0.4712  0.1640
  216MOL    H1330543   7.513   0.440   0.559  0.0512 -1.4800  0.0445
  216MOL    H1430544   7.661   0.240   0.727 -0.0281  1.3081  0.3246
  216MOL    H1530545   7.712   0.285   0.560 -0.8013  2.4307 -0.3653
  216MOL    C1630546   7.567   0.073   0.517 -0.2131  0.5239 -0.7142
  216MOL    C1730547   7.654   7.769   0.629 -0.5920  0.7224 -0.5539
  216MOL    O1830548   0.020   0.029   0.615 -0.0045 -0.0671  0.1756
  216MOL    H1930549   7.477   0.019   0.487  0.1425 -1.5154  1.6942
  216MOL    H2030550   7.631   0.085   0.429 -0.0401 -0.9638 -0.8096
  216MOL    H2130551   7.644   7.660   0.626 -0.6011  0.7487 -1.6682
  216MOL    H2230552   7.616   0.016   0.729 -1.7506 -0.1994 -0.8176
  216MOL    C2330553   0.121   7.722   0.688 -0.3666  0.1224  0.3910
  216MOL    C2430554   0.254   0.028   0.673 -0.3265 -0.0729 -0.2626
  216MOL    O2530555   0.337   7.735   0.573 -0.6248  0.8053 -0.2908
  216MOL    H2630556   0.085   7.721   0.791  3.1538  0.5664  1.6793
  216MOL    H2730557   0.118   7.621   0.646 -1.3793  1.3330 -2.6073
  216MOL    H2830558   0.300   0.041   0.771 -2.2995  2.1659  0.4142
  216MOL    H2930559   0.232   0.132   0.648 -0.3720  0.1343  0.6313
  216MOL    C3030560   0.459   0.034   0.555  0.0155  0.2328  1.0951
  216MOL    C3130561   0.544   7.759   0.430 -0.1769  0.7407  0.5102
  216MOL    O3230562   0.474   7.752   0.307  0.1217  0.2192 -0.5243
  216MOL    H3330563   0.448   0.141   0.536 -0.3368 -0.0408 -0.3187
  216MOL    H3430564   0.519   0.013   0.643  0.5088  1.0206  0.9488
  216MOL    H3530565   0.587   7.660   0.445  1.7688  0.6665 -4.4777
  216MOL    H3630566   0.626   0.059   0.422 -0.3074  0.8546  0.1730
  216MOL    C3730567   0.552   7.760   0.187 -0.2596  0.6132 -0.5728
  216MOL    C3830568   0.620   7.627   0.152 -0.1650 -0.5750  0.2739
  216MOL    O3930569   0.681   7.639   0.030 -0.2146  0.9912  0.3428
  216MOL    H4030570   0.494   0.037   0.108 -0.2751 -1.4698 -1.8702
  216MOL    H4130571   0.628   0.063   0.213  1.8088 -1.8121  0.4136
  216MOL    H4230572   0.544   7.548   0.151  1.7214 -2.4146 -1.1840
  216MOL    H4330573   0.700   7.596   0.219  2.4415  0.7189 -2.1380
  216MOL    C4430574   0.754   7.518   7.767  0.4774  0.0690  0.3538
  216MOL    C4530575   0.810   7.539   7.624  0.1497  0.3841 -0.3057
  216MOL    O4630576   0.784   7.421   7.546  0.4171 -0.3168 -0.2133
  216MOL    H4730577   0.835   7.504   0.067 -0.0722  1.5562  1.3056
  216MOL    H4830578   0.683   7.436   0.006  1.3742 -0.4959  2.2687
  216MOL    H4930579   0.918   7.548   7.613  0.3590  0.5750  1.6698
  216MOL    H5030580   0.779   7.636   7.583  2.1003  1.2245  0.1488
  216MOL    C5130581   0.658   7.364   7.521 -1.3870 -0.6082 -0.9030
  216MOL    C5230582   0.669   7.251   7.424  0.2704  0.1620  0.4338
  216MOL    O5330583   0.728   7.141   7.487  0.0637 -0.5464 -0.1501
  216MOL    H5430584   0.625   7.313   7.611  1.4078 -0.3513  0.3188
  216MOL    H5530585   0.586   7.442   7.493 -1.0657 -0.0472 -0.1733
  216MOL    H5630586   0.737   7.292   7.349 -0.5503 -1.5394 -1.2918
  216MOL    H5730587   0.565   7.250   7.390  0.7903 -2.1840 -1.2772
  216MOL    C5830588   0.735   7.026   7.407 -0.5739  0.3709  0.9303
  216MOL    C5930589   0.784   6.898   7.476 -1.1858  0.1012  0.5044
  216MOL    O6030590   0.678   6.824   7.559 -0.6380 -0.0834  0.3300
  216MOL    H6130591   0.645   7.004   7.349 -0.7815  0.4975  1.2056
  216MOL    H6230592   0.811   7.055   7.335 -0.9606 -1.9489 -0.4881
  216MOL    H6330593   0.885   6.909   7.514 -0.6940  2.1134 -1.2458
  216MOL    H6430594   0.784   6.825   7.395  0.5398  0.5542  0.0879
  216MOL    C6530595   0.747   6.725   7.636 -0.9767  0.0734 -0.9294
  216MOL    C6630596   0.668   6.651   7.740 -0.2183 -0.2394 -0.6396
  216MOL    O6730597   0.663   6.719   0.101  0.1143  0.2268  0.8361
  216MOL    H6830598   0.773   6.647   7.564 -2.1535  0.1954 -1.5059
  216MOL    H6930599   0.840   6.763   7.677 -1.1457 -1.3040  0.8129
  216MOL    H7030600   0.728   6.564   7.766  2.1137  1.8518  1.2547
  216MOL    H7130601   0.573   6.631   7.692  0.1635 -0.9308 -1.1132
  216MOL    C7230602   0.596   6.640   0.203 -0.0192 -0.1819 -0.1130
  216MOL    C7330603   0.592   6.727   0.326  0.8316  0.3392  0.8808
  216MOL    O7430604   0.724   6.729   0.384  0.0379  0.2546  0.3721
  216MOL    H7530605   0.499   6.617   0.159 -0.3941 -1.9097  1.5788
  216MOL    H7630606   0.651   6.547   0.216 -1.9117 -1.2753  0.1526
  216MOL    H7730607   0.521   6.684   0.397 -0.0171 -1.5900 -1.1090
  216MOL    H7830608   0.560   6.830   0.306  1.0816  0.3766  0.6741
  216MOL    C7930609   0.742   6.792   0.510 -0.1226 -0.6684  0.9680
  216MOL    C8030610   0.889   6.792   0.552 -0.0500  0.2651  0.3219
  216MOL    O8130611   0.895   6.819   0.697 -0.5842 -0.0457  0.1029
  216MOL    H8230612   0.704   6.894   0.513  0.2873 -0.4490 -0.6214
  216MOL    H8330613   0.686   6.742   0.589 -1.8557  1.8393  1.3866
  216MOL    H8430614   0.931   6.874   0.493 -3.1222  0.2913 -1.9562
  216MOL    H8530615   0.934   6.695   0.533  0.0164  0.5487 -0.9661
  216MOL    C8630616   1.023   6.826   0.753 -0.0948  0.0106  0.3746
  216MOL    C8730617   1.076   6.972   0.754  0.1165 -0.2455 -0.3035
  216MOL    O8830618   1.092   7.036   0.623  0.1745  0.7412 -0.2028
  216MOL    H8930619   1.011   6.785   0.853  0.3982  1.7915  1.1801
  216MOL    H9030620   1.081   6.753   0.696 -1.4735 -2.1268  1.6587
  216MOL    H9130621   1.171   6.959   0.806  1.2514 -1.6540 -2.6523
  216MOL    H9230622   1.012   7.032   0.819 -1.2595 -1.1810 -0.7675
  216MOL    C9330623   1.205   7.130   0.621  0.3895 -0.2582  0.3284
  216MOL    C9430624   1.197   7.194   0.488  0.4484 -0.3349 -0.1911
  216MOL    O9530625   1.079   7.272   0.483 -0.1412  0.1603  0.2643
  216MOL    H9630626   1.199   7.210   0.694  0.4827 -1.1052  1.2643
  216MOL    H9730627   1.290   7.065   0.640  0.8055  0.2867  0.3542
  216MOL    H9830628   1.188   7.126   0.403  2.4234 -1.5032  0.4782
  216MOL    H9930629   1.287   7.250   0.462  0.5554 -1.4522 -2.4274
  216MOL   C10030630   1.056   7.333   0.360  0.1251  0.3341 -0.6667
  216MOL   C10130631   0.946   7.430   0.379  0.4847  0.5912  0.1368
  216MOL   O10230632   0.983   7.539   0.457  0.0384 -0.1833 -0.2031
  216MOL   H10330633   1.143   7.387   0.321 -0.0371  0.9590 -0.1752
  216MOL   H10430634   1.030   7.252   0.291 -2.7034 -0.4015  1.1833
  216MOL   H10530635   0.851   7.392   0.416  0.5596  1.4207  1.1923
  216MOL   H10630636   0.917   7.459   0.278 -1.7331 -0.1963  0.5306
  216MOL   C10730637   0.968   7.531   0.601 -0.5232  0.1303  0.0288
  216MOL   C10830638   0.826   7.564   0.648 -0.2866 -0.0342  0.4823
  216MOL   O10930639   0.790   7.701   0.612 -0.4028  0.6631 -0.2882
  216MOL   H11030640   0.992   7.429   0.631  1.0708 -0.4358 -2.9500
  216MOL   H11130641   1.045   7.595   0.644 -0.5956  0.3409 -0.1538
  216MOL   H11230642   0.837   7.548   0.756  3.2426 -2.6154 -0.1608
  216MOL   H11330643   0.754   7.498   0.601  0.3033 -0.8771  0.7414
  216MOL   C11430644   0.842   0.042   0.690 -0.1742  0.4453 -0.3238
  216MOL   C11530645   0.792   0.178   0.639 -0.3507  0.4932 -0.6477
  216MOL   O11630646   0.664   0.202   0.680 -0.1962  0.1954  0.1356
  216MOL   H11730647   0.813   0.030   0.794 -0.3804  1.1302 -0.2988
  216MOL   H11830648   0.950   0.028   0.689 -0.1938  0.2010  0.7895
  216MOL   H11930649   0.801   0.170   0.531  0.8374 -2.7088 -0.3666
  216MOL   H12030650   0.867   0.249   0.675  0.3463 -1.4181  1.8788
  216MOL   C12130651   0.609   0.318   0.615 -0.3169  0.3071 -0.0614
  216MOL   C12230652   0.662   0.449   0.666  0.4377 -0.7189 -0.4034
  216MOL   O12330653   0.778   0.476   0.589 -0.5090 -0.8639  0.7055
  216MOL   H12430654   0.619   0.306   0.507  0.4686 -0.5223  0.0916
  216MOL   H12530655   0.502   0.316   0.632  0.3277  1.0325  4.7436
  216MOL   H12630656   0.685   0.439   0.772  3.4759  0.9157 -0.8557
  216MOL   H12730657   0.590   0.528   0.646  0.3051 -0.5014  0.8875
  216MOL   C12830658   0.875   0.548   0.653 -0.3355 -0.7836 -0.1589
  216MOL   C12930659   1.008   0.530   0.573 -0.4040 -0.2853 -0.2947
  216MOL   O13030660   1.064   0.405   0.605 -0.1047 -0.2553 -0.2496
  216MOL   H13130661   0.856   0.655   0.647 -2.0132 -0.9276  2.0968
  216MOL   H13230662   0.901   0.522   0.756 -0.3026  0.4968  0.1683
  216MOL   H13330663   1.080   0.601   0.615  0.6814 -0.9282 -1.0512
  216MOL   H13430664   1.002   0.539   0.465  0.2055  1.5015 -0.1933
  216MOL   C13530665   1.194   0.378   0.547  0.2440 -0.4437 -0.3156
  216MOL   C13630666   1.226   0.227   0.590  0.1124  0.6289  0.1613
  216MOL   O13730667   1.214   0.211   0.725 -0.2265 -0.7583 -0.7615
  216MOL   H13830668   1.183   0.369   0.439 -1.8466  0.4192 -0.1959
  216MOL   H13930669   1.265   0.457   0.572  0.1434 -0.0085 -1.3876
  216MOL   H14030670   1.331   0.215   0.564  1.2088  1.9025  3.7174
  216MOL   H14130671   1.168   0.146   0.545 -1.5093  1.5815  0.4873
  216MOL   H14230672   1.127   0.247   0.733 -0.5784 -2.1752  2.4324
  217MOL     C130673   6.370   1.837   0.999  0.1111  0.1430 -0.7409
  217MOL     C230674   6.395   1.917   1.125  0.7027 -0.1026 -0.0485
  217MOL     O330675   6.281   1.978   1.188  0.7017 -0.6783  0.0903
  217MOL     H430676   6.320   1.890   0.918 -0.7546 -0.2680 -0.4896
  217MOL     H530677   6.316   1.744   1.013  1.9466 -0.9192 -0.5948
  217MOL     H630678   6.459   2.000   1.096 -0.6495  0.7540 -0.5947
  217MOL     H730679   6.451   1.862   1.201  1.7743  0.8545 -0.1266
  217MOL     H830680   6.456   1.792   0.949 -0.3583 -1.6588  0.0543
  217MOL     C930681   6.197   1.873   1.215  0.5329  0.5278 -0.7691
  217MOL    C1030682   6.110   1.901   1.340  0.4790 -0.1425 -0.0420
  217MOL    O1130683   6.178   1.849   1.463  0.2230 -0.6147 -0.1592
  217MOL    H1230684   6.133   1.854   1.128  0.5214  0.7084 -0.8001
  217MOL    H1330685   6.250   1.780   1.233 -1.5934 -0.7758 -0.9500
  217MOL    H1430686   6.012   1.854   1.336  0.0751  0.5338  1.3241
  217MOL    H1530687   6.097   2.009   1.348  3.7144  0.4319 -1.7216
  217MOL    C1630688   6.112   1.897   1.573 -0.2584  0.0988 -0.0060
  217MOL    C1730689   6.151   1.820   1.697  0.1845 -0.5633 -0.4616
  217MOL    O1830690   6.115   1.685   1.686 -0.5983  0.0461 -0.1073
  217MOL    H1930691   6.132   2.003   1.590  2.6223 -0.2665 -0.7906
  217MOL    H2030692   6.005   1.880   1.563 -0.3673 -0.1753  1.5315
  217MOL    H2130693   6.106   1.877   1.778  0.2034 -1.0260 -0.1214
  217MOL    H2230694   6.259   1.826   1.711  0.0916  1.3819 -0.4487
  217MOL    C2330695   6.197   1.609   1.774  0.4754 -0.0679 -0.5061
  217MOL    C2430696   6.158   1.462   1.770  0.1334 -0.4730  0.0953
  217MOL    O2530697   6.056   1.426   1.865  0.0691 -0.2845  0.0229
  217MOL    H2630698   6.298   1.604   1.734  0.8220 -0.9235  0.4269
  217MOL    H2730699   6.198   1.659   1.871  0.7737 -0.5033 -0.2811
  217MOL    H2830700   6.249   1.406   1.793  0.3273 -1.5188 -3.0878
  217MOL    H2930701   6.128   1.428   1.672  0.3135  0.4543 -0.2896
  217MOL    C3030702   5.927   1.483   1.824  0.2426 -0.0687 -0.2779
  217MOL    C3130703   5.820   1.401   1.906  0.5691 -0.2865  0.1481
  217MOL    O3230704   5.812   1.460   2.040 -0.5429  0.7175  0.1945
  217MOL    H3330705   5.919   1.588   1.851 -1.2700 -0.4425  0.8042
  217MOL    H3430706   5.921   1.464   1.717  0.5415  0.2849 -0.3562
  217MOL    H3530707   5.829   1.292   1.908  0.0155 -0.3329  0.2686
  217MOL    H3630708   5.719   1.419   1.868  0.3763 -1.5707  0.0143
  217MOL    C3730709   5.767   1.376   2.145  0.5290 -0.4169  0.1945
  217MOL    C3830710   5.785   1.449   2.283  0.5930  0.4811 -0.1484
  217MOL    O3930711   5.694   1.557   2.302 -0.1398  0.0756  0.6783
  217MOL    H4030712   5.667   1.334   2.133 -0.2824  1.3832  0.5190
  217MOL    H4130713   5.836   1.293   2.131  0.3546 -0.3022 -1.5340
  217MOL    H4230714   5.891   1.472   2.289  0.3572  2.2277 -2.1005
  217MOL    H4330715   5.765   1.376   2.361 -0.4014  0.3401 -0.5197
  217MOL    C4430716   5.690   1.650   2.198  0.1536  0.0274 -0.3149
  217MOL    C4530717   5.592   1.759   2.241 -0.4431 -0.6333 -0.5298
  217MOL    O4630718   5.652   1.861   2.316  0.0742 -0.0673 -0.1556
  217MOL    H4730719   5.783   1.698   2.166 -0.0595  0.7595  0.1490
  217MOL    H4830720   5.640   1.607   2.111 -0.6809  0.0858  0.1286
  217MOL    H4930721   5.492   1.731   2.273  0.4155 -2.7145  0.4610
  217MOL    H5030722   5.587   1.807   2.143 -1.2209  0.3280 -0.0142
  217MOL    C5130723   5.673   1.825   2.450 -0.5638 -0.4184 -0.2778
  217MOL    C5230724   5.720   1.952   2.527  0.0203  0.2521  0.3139
  217MOL    O5330725   5.842   1.940   2.598 -0.2454  0.0660 -0.6109
  217MOL    H5430726   5.584   1.779   2.494 -0.2758 -0.8264 -0.1202
  217MOL    H5530727   5.761   1.760   2.452  0.5065  0.9714  3.3701
  217MOL    H5630728   5.646   1.980   2.602 -0.1564 -0.9833  0.6281
  217MOL    H5730729   5.725   2.037   2.460  0.0290 -0.9505 -1.2599
  217MOL    C5830730   5.899   2.062   2.650  0.4259  0.1275  0.3124
  217MOL    C5930731   5.800   2.110   2.761 -0.5291  0.5876  0.1651
  217MOL    O6030732   5.866   2.168   2.874 -0.0883 -0.3933 -0.4180
  217MOL    H6130733   5.996   2.038   2.694  0.2438 -0.0158  0.6303
  217MOL    H6230734   5.902   2.129   2.564 -0.0486 -1.0192 -0.6072
  217MOL    H6330735   5.736   2.027   2.790 -1.5977  1.5058  0.4966
  217MOL    H6430736   5.733   2.187   2.722 -0.4559 -0.0967 -1.3514
  217MOL    C6530737   5.860   2.075   2.980  0.7640 -0.2654  0.0706
  217MOL    C6630738   5.944   2.129   3.103  0.5894  0.4770 -0.2127
  217MOL    O6730739   5.849   2.201   3.188 -0.5412 -0.3018 -0.0726
  217MOL    H6830740   5.759   2.046   3.010  0.9998  0.2052  1.3768
  217MOL    H6930741   5.911   1.985   2.945 -0.8417 -2.2120  2.5243
  217MOL    H7030742   6.033   2.186   3.077  1.2067 -0.0592  0.7030
  217MOL    H7130743   5.985   2.042   3.154  0.8027  0.7611  0.1020
  217MOL    C7230744   5.906   2.249   3.314  0.1046 -0.1342  0.8296
  217MOL    C7330745   5.919   2.405   3.306 -0.4375 -0.1189 -0.5221
  217MOL    O7430746   6.026   2.447   3.223  0.6270  0.1623 -0.3458
  217MOL    H7530747   5.840   2.210   3.392 -0.5667 -0.1832  0.2281
  217MOL    H7630748   6.005   2.213   3.342 -0.0818 -1.4012 -0.0741
  217MOL    H7730749   5.935   2.451   3.404 -0.4476  1.7577 -1.3899
  217MOL    H7830750   5.829   2.450   3.265  0.2711  1.4109 -0.4227
  217MOL    C7930751   6.036   2.586   3.213 -0.1367 -0.6443 -0.3637
  217MOL    C8030752   6.123   2.642   3.329  0.3421  0.2250  0.1922
  217MOL    O8130753   6.169   2.774   3.299 -0.1841  0.7311  0.2009
  217MOL    H8230754   6.089   2.609   3.121 -0.0089  0.6948  0.0314
  217MOL    H8330755   5.939   2.634   3.223 -0.3038 -0.5991 -2.0995
  217MOL    H8430756   6.210   2.577   3.333 -0.2985 -0.5429  2.8898
  217MOL    H8530757   6.081   2.635   3.429  0.3582 -1.3662  0.1064
  217MOL    C8630758   6.069   2.876   3.318 -0.0700 -0.2955 -0.3469
  217MOL    C8730759   6.118   3.024   3.303 -0.2474 -0.5845 -0.2017
  217MOL    O8830760   6.124   3.052   3.165 -0.1279  0.5268 -0.1156
  217MOL    H8930761   5.989   2.857   3.247 -0.0689 -0.4305 -0.3119
  217MOL    H9030762   6.020   2.858   3.414  1.4956  0.8255  0.6847
  217MOL    H9130763   6.222   3.022   3.337 -0.6219 -1.6687  0.9204
  217MOL    H9230764   6.057   3.084   3.370 -1.6902 -1.1995 -0.9446
  217MOL    C9330765   6.133   3.189   3.136 -0.1700 -0.6656  0.0397
  217MOL    C9430766   6.258   3.252   3.195  0.2805  0.3035  0.2904
  217MOL    O9530767   6.236   3.267   3.333 -0.2809 -0.6712  0.3712
  217MOL    H9630768   6.126   3.192   3.027  0.7588  0.5248  0.0060
  217MOL    H9730769   6.049   3.251   3.168 -0.1946 -1.3450  1.3207
  217MOL    H9830770   6.274   3.342   3.136  0.1650  0.1523  0.0281
  217MOL    H9930771   6.352   3.200   3.181 -1.2425 -2.2929 -0.6249
  217MOL   C10030772   6.347   3.332   3.398  0.1263  0.3906  0.0918
  217MOL   C10130773   6.309   3.479   3.431 -0.0093 -0.6828  0.6040
  217MOL   O10230774   6.221   3.481   3.544  0.2677  0.4446 -0.2458
  217MOL   H10330775   6.371   3.277   3.489  0.6377 -0.4610 -0.5550
  217MOL   H10430776   6.438   3.321   3.340  0.1720 -0.1911  0.2692
  217MOL   H10530777   6.271   3.536   3.347 -2.4410  1.0854  2.8066
  217MOL   H10630778   6.404   3.524   3.462  0.1228 -0.4070 -0.1930
  217MOL   C10730779   6.083   3.515   3.514 -0.1689  0.2794 -0.5169
  217MOL   C10830780   5.975   3.474   3.615 -1.1076 -0.2182  0.2410
  217MOL   O10930781   5.958   3.338   3.648  0.0680 -0.0628  0.0754
  217MOL   H11030782   6.069   3.621   3.490  2.1554  1.5557  3.2352
  217MOL   H11130783   6.044   3.475   3.421 -0.0751  1.7838 -1.2167
  217MOL   H11230784   5.878   3.512   3.583 -0.1059  1.2220 -1.1859
  217MOL   H11330785   6.003   3.536   3.700  0.9737 -0.6526 -0.0993
  217MOL   C11430786   5.920   3.309   3.779  0.5170  0.3249 -0.2600
  217MOL   C11530787   5.781   3.245   3.789  0.4664  0.2188 -0.2685
  217MOL   O11630788   5.679   3.343   3.777  0.2047  0.0536  0.7597
  217MOL   H11730789   5.990   3.231   3.810 -1.1866 -1.8524 -1.7790
  217MOL   H11830790   5.930   3.400   3.839 -2.2053  1.6671 -1.7554
  217MOL   H11930791   5.783   3.215   3.894 -3.6900  1.2502  0.2156
  217MOL   H12030792   5.774   3.159   3.722  3.1104 -0.4119  0.2145
  217MOL   C12130793   5.554   3.269   3.785  0.1482  0.6541 -0.2023
  217MOL   C12230794   5.432   3.361   3.788 -0.0699  0.2923  0.1452
  217MOL   O12330795   5.408   3.426   3.662  0.5466 -0.0737 -0.0608
  217MOL   H12430796   5.546   3.200   3.702  3.2250 -1.3092  1.0493
  217MOL   H12530797   5.550   3.211   3.877 -0.6388  0.3079 -0.4494
  217MOL   H12630798   5.438   3.437   3.865 -0.5652 -0.6844  1.1521
  217MOL   H12730799   5.345   3.307   3.825  1.0194 -0.7729  1.1999
  217MOL   C12830800   5.508   3.523   3.629 -0.9544  0.0317  1.0379
  217MOL   C12930801   5.459   3.630   3.530 -0.3559  0.6095 -0.0256
  217MOL   O13030802   5.561   3.722   3.500  0.5576  0.3104 -0.4876
  217MOL   H13130803   5.540   3.577   3.718  1.8037 -0.7282  0.5804
  217MOL   H13230804   5.591   3.474   3.578 -1.1216  0.4342  0.3781
  217MOL   H13330805   5.379   3.684   3.580 -0.6417 -0.3950  0.6276
  217MOL   H13430806   5.416   3.579   3.444 -0.3177 -1.1498  0.9666
  217MOL   C13530807   5.523   3.830   3.406 -0.5980  0.1878 -0.3563
  217MOL   C13630808   5.654   3.909   3.377  0.4901  0.5053 -0.2401
  217MOL   O13730809   5.622   4.028   3.305  0.1005 -0.0954 -0.1453
  217MOL   H13830810   5.479   3.791   3.314 -0.6921 -0.0687 -0.2036
  217MOL   H13930811   5.450   3.898   3.449 -3.2193 -1.9599 -1.2468
  217MOL   H14030812   5.717   3.841   3.320  1.1738  0.6943  0.2826
  217MOL   H14130813   5.701   3.932   3.473 -0.4339 -0.3239  0.4295
  217MOL   H14230814   5.704   4.066   3.278  0.5505  0.3072  1.7606
  218MOL     C130815   2.000   4.889   7.517  0.5759  0.0658  0.0888
  218MOL     C230816   2.146   4.913   7.544 -0.2868 -0.0064  0.4386
  218MOL     O330817   2.158   4.959   7.684  0.6026  0.0962 -1.2177
  218MOL     H430818   1.994   4.841   7.419  2.0675  2.9294 -1.4452
  218MOL     H530819   1.939   4.978   7.504 -1.1039 -1.1379 -0.4828
  218MOL     H630820   2.184   4.992   7.478  2.6242 -1.0199  0.8549
  218MOL     H730821   2.198   4.820   7.522  0.1305 -0.0183  1.4541
  218MOL     H830822   1.948   4.830   7.593 -1.7880  1.1700 -0.6427
  218MOL     C930823   2.290   4.974   7.714 -0.3648 -0.3590  0.5684
  218MOL    C1030824   2.324   5.014   0.090 -0.3492  0.6444 -0.2854
  218MOL    O1130825   2.293   4.905   0.183  0.0128 -0.2101 -0.1244
  218MOL    H1230826   2.350   4.889   7.680  0.9345 -0.3968  2.8763
  218MOL    H1330827   2.322   5.058   7.652 -1.7237 -0.7247 -0.6518
  218MOL    H1430828   2.278   5.111   0.108  2.2242  2.4129 -2.7567
  218MOL    H1530829   2.431   5.032   0.086  0.0005 -0.6809  2.1166
  218MOL    C1630830   2.354   4.926   0.312  0.1946 -0.5981  0.2659
  218MOL    C1730831   2.314   4.805   0.397  0.2641  0.2197 -0.3924
  218MOL    O1830832   2.396   4.692   0.352 -0.2597 -0.1969 -0.1533
  218MOL    H1930833   2.463   4.935   0.320  0.2376 -2.1349  1.5976
  218MOL    H2030834   2.320   5.021   0.355 -1.4704 -1.0632  0.0132
  218MOL    H2130835   2.210   4.777   0.381 -0.5033  0.0563  4.2722
  218MOL    H2230836   2.323   4.828   0.503  0.7992  1.6699 -0.7469
  218MOL    C2330837   2.368   4.581   0.438  0.0387 -0.1837 -0.9034
  218MOL    C2430838   2.450   4.454   0.406 -0.2365 -0.3087 -0.5854
  218MOL    O2530839   2.576   4.465   0.460 -0.2454  0.1509 -0.1213
  218MOL    H2630840   2.376   4.600   0.545 -1.2884 -0.1140 -0.8130
  218MOL    H2730841   2.264   4.556   0.419  0.7751 -1.9618 -2.7784
  218MOL    H2830842   2.447   4.435   0.298 -0.1229  0.5936 -0.7555
  218MOL    H2930843   2.404   4.369   0.455 -1.3819 -0.9075 -2.6277
  218MOL    C3030844   2.673   4.530   0.379  0.6858  0.3410 -0.0656
  218MOL    C3130845   2.808   4.502   0.442 -0.3109  0.0305 -0.2415
  218MOL    O3230846   2.840   4.610   0.528 -0.2812 -0.3038 -0.0306
  218MOL    H3330847   2.669   4.491   0.277 -0.7925 -0.4763  0.2882
  218MOL    H3430848   2.655   4.637   0.368  1.6936  0.5201 -0.0399
  218MOL    H3530849   2.885   4.490   0.365 -1.0165  2.8672 -1.4478
  218MOL    H3630850   2.811   4.405   0.491  1.7084 -0.3550 -1.0456
  218MOL    C3730851   2.950   4.579   0.608 -0.4901 -0.0041 -0.2447
  218MOL    C3830852   2.987   4.703   0.690  0.0940 -0.1377  0.3031
  218MOL    O3930853   3.051   4.803   0.608  0.0914 -0.6007 -0.3684
  218MOL    H4030854   2.915   4.497   0.670 -0.4214 -0.6429 -1.0344
  218MOL    H4130855   3.041   4.544   0.560 -0.0634 -2.1617  2.0150
  218MOL    H4230856   3.060   4.671   0.764  0.3696 -0.5785 -0.1486
  218MOL    H4330857   2.897   4.738   0.740  0.5260  1.5518 -0.0799
  218MOL    C4430858   3.094   4.910   0.684  0.5147 -0.5835 -1.0774
  218MOL    C4530859   3.230   4.891   0.747  0.7072 -0.5748  0.1706
  218MOL    O4630860   3.303   5.009   0.740  0.0807 -0.0103 -0.5889
  218MOL    H4730861   3.093   4.991   0.611  0.6672  0.6322  0.2393
  218MOL    H4830862   3.012   4.939   0.751  1.5133  1.1574 -0.5755
  218MOL    H4930863   3.281   4.798   0.719 -0.4510 -1.3594  0.6001
  218MOL    H5030864   3.214   4.881   0.854 -0.0231 -1.0578  0.0228
  218MOL    C5130865   3.386   5.017   0.627 -0.0470  0.5129  0.5801
  218MOL    C5230866   3.441   5.156   0.618  0.6176  0.3597 -0.6253
  218MOL    O5330867   3.358   5.252   0.545  0.4764 -0.4054 -0.1666
  218MOL    H5430868   3.467   4.945   0.641  1.0257  1.8058  1.0810
  218MOL    H5530869   3.332   4.990   0.536  0.8527 -0.2534  0.2695
  218MOL    H5630870   3.538   5.153   0.569  0.5438  1.5859 -0.8767
  218MOL    H5730871   3.456   5.182   0.722  1.0692 -0.4264 -0.5001
  218MOL    C5830872   3.227   5.275   0.608 -0.4072 -0.1039  0.4084
  218MOL    C5930873   3.143   5.372   0.530  0.6357  0.0531  0.6619
  218MOL    O6030874   3.055   5.316   0.437 -0.1898  0.6445  0.1752
  218MOL    H6130875   3.166   5.189   0.633  0.2162 -0.6101  0.2060
  218MOL    H6230876   3.248   5.331   0.699  0.0687  0.0161  0.2285
  218MOL    H6330877   3.201   5.455   0.488 -3.2594  2.4682 -0.2001
  218MOL    H6430878   3.074   5.416   0.602  0.7341  1.1765  0.0829
  218MOL    C6530879   3.116   5.272   0.309 -0.0969 -0.5790 -0.5341
  218MOL    C6630880   2.999   5.219   0.217  0.3414 -0.0336 -0.0270
  218MOL    O6730881   2.953   5.096   0.275 -0.6842  1.0494  0.2889
  218MOL    H6830882   3.160   5.359   0.259 -2.3383 -0.3659 -2.2004
  218MOL    H6930883   3.193   5.198   0.331 -3.1973 -2.6107  4.3322
  218MOL    H7030884   3.045   5.193   0.121 -1.5122 -3.3452 -0.1136
  218MOL    H7130885   2.914   5.285   0.199 -0.7639 -1.1390  0.9886
  218MOL    C7230886   2.828   5.049   0.215  0.6546  0.7950 -0.3176
  218MOL    C7330887   2.758   4.949   0.308  0.2317  0.0460  0.2559
  218MOL    O7430888   2.695   5.006   0.420  0.3400 -0.5407 -0.1893
  218MOL    H7530889   2.767   5.133   0.182 -1.2694 -0.7448 -0.8407
  218MOL    H7630890   2.855   4.998   0.122 -4.0847  0.7727 -1.8552
  218MOL    H7730891   2.834   4.878   0.341  1.0559  1.9484  2.5425
  218MOL    H7830892   2.685   4.885   0.257  1.8535 -0.9938 -0.7957
  218MOL    C7930893   2.703   4.920   0.530 -0.2048  0.3878  0.3467
  218MOL    C8030894   2.665   5.003   0.651 -0.5178 -0.0545  0.4133
  218MOL    O8130895   2.528   4.988   0.669  1.1238  0.2263 -0.0584
  218MOL    H8230896   2.638   4.835   0.510  0.1423  0.1665  0.1567
  218MOL    H8330897   2.798   4.872   0.552 -1.7333 -2.7152  0.5187
  218MOL    H8430898   2.689   5.109   0.646 -1.8950  0.3300  1.7858
  218MOL    H8530899   2.706   4.961   0.743  2.6577  0.9856 -0.4858
  218MOL    C8630900   2.463   4.972   0.797 -0.2934 -0.0790 -0.1682
  218MOL    C8730901   2.502   5.090   0.890 -0.3276  0.6295 -0.0997
  218MOL    O8830902   2.400   5.109   0.991  0.0454  0.2120  0.3564
  218MOL    H8930903   2.358   4.977   0.767  0.0066 -0.0673 -1.2479
  218MOL    H9030904   2.482   4.871   0.833  1.2307  0.4036  0.4270
  218MOL    H9130905   2.513   5.183   0.835 -2.9482 -0.2758 -2.2556
  218MOL    H9230906   2.602   5.062   0.924 -0.8124 -1.6129 -0.4326
  218MOL    C9330907   2.392   5.019   1.099  0.0102  0.4478 -0.4076
  218MOL    C9430908   2.270   5.044   1.177 -0.0138  0.4717  0.2135
  218MOL    O9530909   2.281   5.159   1.268  0.0386  0.3322 -0.1816
  218MOL    H9630910   2.392   4.919   1.056  3.2253  0.0949  0.2989
  218MOL    H9730911   2.485   5.031   1.155 -0.3483 -0.0183  0.2961
  218MOL    H9830912   2.243   4.952   1.229  0.1123  0.9779  1.1913
  218MOL    H9930913   2.188   5.067   1.110  0.2774 -0.0883 -0.3320
  218MOL   C10030914   2.153   5.193   1.325  0.9914 -0.5784  0.1132
  218MOL   C10130915   2.160   5.332   1.394  0.4796  0.6717  0.1926
  218MOL   O10230916   2.198   5.306   1.521  0.2183  0.1835  0.4499
  218MOL   H10330917   2.088   5.216   1.240  3.1727 -0.6893 -1.6432
  218MOL   H10430918   2.099   5.122   1.387  0.6108 -2.7513 -2.6061
  218MOL   H10530919   2.056   5.361   1.409  0.8936  3.0675 -1.3127
  218MOL   H10630920   2.206   5.414   1.339  1.5474 -0.4741 -0.6544
  218MOL   C10730921   2.209   5.425   1.605 -0.3141 -0.6461 -0.4045
  218MOL   C10830922   2.270   5.397   1.746 -0.4667  0.4378 -0.2351
  218MOL   O10930923   2.405   5.367   1.740 -0.2820  0.1703  0.0998
  218MOL   H11030924   2.268   5.498   1.550 -0.4699 -0.4116 -0.2595
  218MOL   H11130925   2.111   5.474   1.608  0.2962  0.8395 -3.1247
  218MOL   H11230926   2.221   5.312   1.793  0.5206  1.0096  1.8393
  218MOL   H11330927   2.256   5.483   1.810 -0.1038  1.0899 -1.0197
  218MOL   C11430928   2.457   5.328   1.871 -0.5836  0.5096  0.3234
  218MOL   C11530929   2.604   5.289   1.862 -0.1804  0.4270 -0.3928
  218MOL   O11630930   2.673   5.396   1.802  0.0583  0.1855 -0.0689
  218MOL   H11730931   2.448   5.415   1.936  2.5373  2.4132 -1.6335
  218MOL   H11830932   2.403   5.248   1.921  0.6033 -2.3462 -2.7440
  218MOL   H11930933   2.622   5.192   1.815  0.5214 -0.0281  0.7901
  218MOL   H12030934   2.654   5.278   1.958  2.9949 -0.9160 -2.1131
  218MOL   C12130935   2.814   5.377   1.788 -0.1637  0.2658 -0.1480
  218MOL   C12230936   2.888   5.461   1.890 -0.4593 -1.2910  0.2074
  218MOL   O12330937   3.031   5.477   1.866 -0.3364 -0.7523  0.0007
  218MOL   H12430938   2.847   5.274   1.801  1.9476  0.7326 -1.5354
  218MOL   H12530939   2.832   5.399   1.683 -0.5632 -1.4495 -0.5923
  218MOL   H12630940   2.877   5.426   1.993 -0.1001  0.1532  0.7532
  218MOL   H12730941   2.845   5.561   1.888  0.1747 -1.0188 -0.2687
  218MOL   C12830942   3.108   5.570   1.938 -0.3612  0.5148  0.0370
  218MOL   C12930943   3.231   5.607   1.855  0.5041  0.8497  0.1235
  218MOL   O13030944   3.201   5.719   1.776  0.5926  0.6076 -0.0994
  218MOL   H13130945   3.060   5.658   1.980 -0.1668  0.0065  1.3472
  218MOL   H13230946   3.152   5.508   2.016 -1.0999  1.2710  1.0609
  218MOL   H13330947   3.253   5.516   1.800 -0.2913 -0.9603  2.7279
  218MOL   H13430948   3.311   5.629   1.926  0.2622 -0.0120  0.6720
  218MOL   C13530949   3.310   5.802   1.752  0.0879 -0.3176  0.4673
  218MOL   C13630950   3.253   5.911   1.659  0.3920 -0.0200 -0.1656
  218MOL   O13730951   3.223   5.868   1.529 -0.7460 -0.2267  0.4814
  218MOL   H13830952   3.335   5.849   1.847 -0.0291 -0.4309  0.5534
  218MOL   H13930953   3.399   5.747   1.721 -0.4566 -0.9222 -0.0223
  218MOL   H14030954   3.323   5.994   1.661 -0.1497  0.4031  2.1162
  218MOL   H14130955   3.167   5.956   1.708 -1.3511 -2.9438 -0.3868
  218MOL   H14230956   3.220   5.773   1.522  0.2336 -0.2453  0.2439
  219MOL     C130957   2.292   3.836   5.021 -0.1084  0.0438  0.3183
  219MOL     C230958   2.348   3.717   4.947 -0.1008  0.7282  0.0141
  219MOL     O330959   2.368   3.609   5.039 -0.9340  0.4870  0.2694
  219MOL     H430960   2.226   3.809   5.104 -0.6226  1.4720  0.3949
  219MOL     H530961   2.241   3.902   4.952  1.8946  1.5815  0.2437
  219MOL     H630962   2.432   3.748   4.885  0.1786  0.2100  0.1367
  219MOL     H730963   2.263   3.685   4.887  2.0811 -2.2466 -1.5724
  219MOL     H830964   2.374   3.893   5.066  0.0367 -0.1411  0.2881
  219MOL     C930965   2.420   3.481   4.985  0.3411 -0.9791 -0.5477
  219MOL    C1030966   2.561   3.509   4.929  0.0663 -0.1037 -0.2370
  219MOL    O1130967   2.562   3.544   4.792  0.4537  0.2899  0.0603
  219MOL    H1230968   2.419   3.413   5.070 -0.0066 -0.1809  0.0848
  219MOL    H1330969   2.358   3.422   4.917  0.6415  0.6819 -2.2947
  219MOL    H1430970   2.592   3.406   4.949  2.0174  0.5376  0.1458
  219MOL    H1530971   2.604   3.582   4.997  0.0953 -0.2963 -0.0464
  219MOL    C1630972   2.673   3.502   4.722 -0.1299  0.2670 -0.2507
  219MOL    C1730973   2.660   3.547   4.578  0.1709 -0.1793 -0.7134
  219MOL    O1830974   2.719   3.670   4.558  0.2070 -0.3680  0.0639
  219MOL    H1930975   2.764   3.533   4.774 -0.2462 -0.4451  0.3935
  219MOL    H2030976   2.661   3.394   4.725  0.6125  0.1877  0.1668
  219MOL    H2130977   2.558   3.529   4.543 -0.4472  1.4892  0.1947
  219MOL    H2230978   2.725   3.481   4.521  2.7642  0.7776  1.0632
  219MOL    C2330979   2.651   3.740   4.461 -0.4598 -0.3507  0.0194
  219MOL    C2430980   2.719   3.880   4.445 -0.0378  0.3496 -0.2397
  219MOL    O2530981   2.825   3.875   4.357  0.0300 -0.1644  0.0135
  219MOL    H2630982   2.637   3.694   4.363  1.6083  0.1725 -0.5409
  219MOL    H2730983   2.548   3.758   4.492 -1.4564 -1.0184 -2.7541
  219MOL    H2830984   2.732   3.939   4.535 -0.1016 -0.1120  0.0760
  219MOL    H2930985   2.646   3.953   4.411 -0.9441  1.3096  3.4846
  219MOL    C3030986   2.870   4.003   4.314  0.3645  0.2571 -0.0536
  219MOL    C3130987   3.003   3.987   4.232  0.4451  1.0786 -0.2378
  219MOL    O3230988   2.976   3.925   4.105  0.1938  0.6389  0.0691
  219MOL    H3330989   2.793   4.050   4.253 -1.0455 -0.1097  1.4135
  219MOL    H3430990   2.879   4.065   4.404  0.1767  1.9713 -1.1811
  219MOL    H3530991   3.082   3.932   4.284 -0.1986  1.3473  1.0369
  219MOL    H3630992   3.052   4.082   4.211 -1.9316  2.5590  0.7391
  219MOL    C3730993   3.094   3.926   4.016 -0.3856 -0.0246 -0.1629
  219MOL    C3830994   3.051   3.896   3.864 -0.7905  0.3780 -0.4344
  219MOL    O3930995   3.041   3.758   3.839 -0.0581  0.8605  0.0515
  219MOL    H4030996   3.128   4.029   4.028  2.3646 -1.0488  1.4169
  219MOL    H4130997   3.170   3.858   4.057  1.1206  1.4692 -0.4325
  219MOL    H4230998   3.132   3.923   3.796  0.4201 -0.6959  0.5384
  219MOL    H4330999   2.973   3.967   3.836  0.8642  2.3323 -0.1871
  219MOL    C4431000   3.031   3.725   3.699 -0.4535  0.4966 -0.2031
  219MOL    C4531001   2.984   3.584   3.675 -0.5768 -0.7806  0.7618
  219MOL    O4631002   2.848   3.567   3.674 -0.0551 -0.7463  0.4864
  219MOL    H4731003   2.968   3.798   3.648 -2.0436 -1.5050 -1.1741
  219MOL    H4831004   3.134   3.731   3.665 -0.1004 -0.5947  0.6329
  219MOL    H4931005   3.037   3.516   3.741  0.7254  0.2526  0.8003
  219MOL    H5031006   3.012   3.571   3.571 -1.0953 -0.4283  0.5739
  219MOL    C5131007   2.794   3.437   3.686  0.0257  0.0835 -0.6972
  219MOL    C5231008   2.681   3.441   3.782 -0.3587  0.0316  0.3521
  219MOL    O5331009   2.553   3.454   3.723 -0.2898  0.0026 -0.1484
  219MOL    H5431010   2.754   3.403   3.590 -2.4227  1.4156 -0.1738
  219MOL    H5531011   2.867   3.363   3.720  0.5503  0.3983 -1.1249
  219MOL    H5631012   2.689   3.525   3.851 -2.5792  0.5041  0.0548
  219MOL    H5731013   2.682   3.353   3.846  0.6621  0.8274  1.4684
  219MOL    C5831014   2.456   3.444   3.828 -0.1924 -0.2617 -1.1784
  219MOL    C5931015   2.307   3.466   3.784  0.0767 -0.7419 -0.2320
  219MOL    O6031016   2.276   3.602   3.785 -0.3775  0.0472  0.3353
  219MOL    H6131017   2.454   3.354   3.890  0.2087  1.5685  1.5865
  219MOL    H6231018   2.490   3.509   3.909 -0.0132 -1.4580 -0.2785
  219MOL    H6331019   2.231   3.431   3.854  2.1112 -1.8504  1.4828
  219MOL    H6431020   2.291   3.409   3.693 -2.1907 -0.7440  0.1526
  219MOL    C6531021   2.308   3.665   3.660 -0.5181 -0.1108 -0.0818
  219MOL    C6631022   2.180   3.671   3.578  0.9833  0.1306 -0.6568
  219MOL    O6731023   2.162   3.541   3.510 -0.1556 -0.1095  0.0068
  219MOL    H6831024   2.344   3.762   3.693 -0.2625 -0.8388  1.8449
  219MOL    H6931025   2.372   3.606   3.594  0.2375 -0.7108  1.1754
  219MOL    H7031026   2.187   3.754   3.509  0.5716  0.6095 -0.1274
  219MOL    H7131027   2.102   3.697   3.649 -0.1733  0.6296 -2.0834
  219MOL    C7231028   2.039   3.524   3.438  0.0784  0.3912  0.3259
  219MOL    C7331029   2.048   3.384   3.381 -0.3160 -0.2860 -0.3356
  219MOL    O7431030   2.154   3.383   3.292  0.1137  0.0077 -0.0925
  219MOL    H7531031   1.961   3.531   3.514  0.3149 -0.6589  0.6715
  219MOL    H7631032   2.028   3.597   3.358  0.7626 -1.0830 -1.1537
  219MOL    H7731033   1.954   3.368   3.329 -0.9041 -1.0735  0.9481
  219MOL    H7831034   2.059   3.318   3.467  0.6102  1.2695  0.7741
  219MOL    C7931035   2.153   3.260   3.222 -0.8216 -0.0307 -0.1169
  219MOL    C8031036   2.285   3.216   3.161 -0.3146  0.0063 -0.3790
  219MOL    O8131037   2.375   3.160   3.258  0.3300  0.1062  0.1978
  219MOL    H8231038   2.119   3.179   3.286  1.0667 -0.3775  0.4757
  219MOL    H8331039   2.083   3.278   3.140 -0.2148 -1.7165 -1.0488
  219MOL    H8431040   2.335   3.298   3.110 -0.6395  1.1184  1.0542
  219MOL    H8531041   2.256   3.138   3.091 -2.5192  0.8759 -0.4939
  219MOL    C8631042   2.431   3.263   3.344  0.2355  0.6554 -0.2846
  219MOL    C8731043   2.536   3.207   3.430  0.6980  0.4616  0.3887
  219MOL    O8831044   2.616   3.113   3.365  0.0370 -0.6581 -0.0477
  219MOL    H8931045   2.489   3.317   3.268  1.7610 -1.3644 -0.6092
  219MOL    H9031046   2.360   3.325   3.398 -0.1781 -0.2218  0.1731
  219MOL    H9131047   2.500   3.151   3.516  0.3873 -1.6720 -1.0993
  219MOL    H9231048   2.603   3.288   3.460  0.6977  0.2512  0.9605
  219MOL    C9331049   2.723   3.060   3.437  0.3987 -0.7582  0.5029
  219MOL    C9431050   2.785   2.941   3.365  0.4147  0.0480 -0.1533
  219MOL    O9531051   2.718   2.824   3.406 -0.6523 -0.4162 -0.2163
  219MOL    H9631052   2.800   3.136   3.434  0.1791 -0.5460  0.0986
  219MOL    H9731053   2.700   3.039   3.541  0.8100  0.3130  0.8138
  219MOL    H9831054   2.892   2.934   3.382  0.0589 -0.3483  2.2273
  219MOL    H9931055   2.772   2.956   3.258 -1.3904 -1.1317 -0.1285
  219MOL   C10031056   2.775   2.696   3.366 -0.2695  0.1169  0.0570
  219MOL   C10131057   2.715   2.577   3.439 -0.0348  0.1453 -0.2664
  219MOL   O10231058   2.774   2.554   3.566 -0.0218 -0.2132 -0.6629
  219MOL   H10331059   2.790   2.681   3.259  3.6297  1.2992  0.3728
  219MOL   H10431060   2.879   2.695   3.397 -0.4296 -2.8791  0.6096
  219MOL   H10531061   2.712   2.486   3.379  0.1370 -1.2159  1.7485
  219MOL   H10631062   2.609   2.596   3.458 -0.3157 -0.4374 -1.2351
  219MOL   C10731063   2.718   2.438   3.633  0.1760  0.1261 -0.0797
  219MOL   C10831064   2.805   2.316   3.623  0.1221  0.3044  0.1766
  219MOL   O10931065   2.811   2.271   3.486  0.4571  0.8446 -0.3432
  219MOL   H11031066   2.712   2.452   3.741  0.0032 -0.0392 -0.0673
  219MOL   H11131067   2.620   2.410   3.593 -1.1272  1.0796  2.2998
  219MOL   H11231068   2.763   2.238   3.686  0.1027  0.0871 -0.1045
  219MOL   H11331069   2.903   2.332   3.669 -0.5466  0.1578  1.6895
  219MOL   C11431070   2.887   2.151   3.474  0.4482 -0.0363  0.5209
  219MOL   C11531071   2.869   2.099   3.327  0.6548 -0.4005 -0.1720
  219MOL   O11631072   2.730   2.066   3.288  0.4802  0.0685  0.1542
  219MOL   H11731073   2.990   2.177   3.499  0.7617 -1.6263  0.9450
  219MOL   H11831074   2.834   2.073   3.529 -2.7332  1.4738 -0.3185
  219MOL   H11931075   2.924   2.008   3.305 -1.0645 -1.6176  0.4592
  219MOL   H12031076   2.905   2.176   3.258  0.2311 -0.5918 -0.6157
  219MOL   C12131077   2.644   2.177   3.274 -0.2008 -0.6076  0.5866
  219MOL   C12231078   2.519   2.127   3.202  0.3768  0.3987  0.0897
  219MOL   O12331079   2.441   2.059   3.296  0.6128  0.0592  0.2985
  219MOL   H12431080   2.613   2.227   3.366 -0.8199 -1.9431  1.1100
  219MOL   H12531081   2.691   2.254   3.213 -0.0984 -2.4967 -1.7616
  219MOL   H12631082   2.546   2.068   3.115  1.9869 -0.7732  1.3513
  219MOL   H12731083   2.463   2.216   3.174 -0.2298 -0.1234 -0.3717
  219MOL   C12831084   2.321   2.012   3.240 -0.3256  0.2756  0.3816
  219MOL   C12931085   2.222   1.950   3.349  0.0444 -0.0664  0.7778
  219MOL   O13031086   2.161   2.058   3.422  0.7099  0.2021  0.1464
  219MOL   H13131087   2.266   2.077   3.173  1.3723  2.1521  0.7828
  219MOL   H13231088   2.351   1.937   3.167 -3.8776 -1.7637  0.9033
  219MOL   H13331089   2.272   1.886   3.421 -0.6729 -0.9810  0.4856
  219MOL   H13431090   2.149   1.885   3.299 -0.8136  0.6907  1.0328
  219MOL   C13531091   2.081   2.014   3.535  0.8464 -0.4822 -0.2155
  219MOL   C13631092   1.991   2.123   3.597  0.4151 -0.5088 -0.6174
  219MOL   O13731093   1.917   2.062   3.699  0.0567  0.3181  0.2975
  219MOL   H13831094   2.011   1.941   3.495  0.9514 -0.0836 -1.1468
  219MOL   H13931095   2.153   1.961   3.597 -1.2740 -3.4659 -0.2016
  219MOL   H14031096   1.917   2.163   3.528 -0.9544  0.4827  1.3792
  219MOL   H14131097   2.067   2.192   3.633  0.2288  0.3228 -1.7852
  219MOL   H14231098   1.872   1.989   3.661  0.0641  0.7373 -0.5223
  220MOL     C131099   6.814   6.996   0.872 -0.0782  0.2236  0.3046
  220MOL     C231100   6.873   6.949   0.744 -0.1992  0.3745  0.2147
  220MOL     O331101   6.791   6.846   0.687 -0.2008 -0.6604  0.3413
  220MOL     H431102   6.713   7.031   0.850 -0.3538 -1.6978 -1.6246
  220MOL     H531103   6.887   7.053   0.930  0.5461  2.2835 -2.4121
  220MOL     H631104   6.977   6.917   0.752 -0.7359 -1.4730 -0.0052
  220MOL     H731105   6.872   7.037   0.680  3.3030  0.8029  0.6352
  220MOL     H831106   6.787   6.907   0.929  1.6577  0.3121  1.3084
  220MOL     C931107   6.825   6.817   0.549 -0.0294  0.2344 -0.0699
  220MOL    C1031108   6.902   6.684   0.533 -0.4773  1.0294 -0.6044
  220MOL    O1131109   7.039   6.678   0.584 -0.4939  0.4657  0.6591
  220MOL    H1231110   6.730   6.808   0.495 -1.3505  1.5334  1.9838
  220MOL    H1331111   6.873   6.895   0.490  2.0449  0.5187  1.9576
  220MOL    H1431112   6.892   6.634   0.437  1.8260 -1.0330  0.1724
  220MOL    H1531113   6.852   6.615   0.602  0.8351  1.9827  1.3558
  220MOL    C1631114   7.131   6.700   0.483  0.0844  0.5595 -0.1514
  220MOL    C1731115   7.277   6.686   0.529 -0.1440 -0.2307 -0.0717
  220MOL    O1831116   7.313   6.550   0.532 -0.3651 -0.5632 -0.2972
  220MOL    H1931117   7.112   6.630   0.401  1.0482 -0.2222  0.2900
  220MOL    H2031118   7.129   6.800   0.438 -0.9466  0.7263  0.2660
  220MOL    H2131119   7.277   6.733   0.627  0.3855  1.3519 -0.8232
  220MOL    H2231120   7.341   6.745   0.464 -1.3173  0.5894 -0.4937
  220MOL    C2331121   7.458   6.529   0.540 -0.8447 -0.5369  0.4440
  220MOL    C2431122   7.526   6.608   0.656 -0.5805  0.4019  0.2981
  220MOL    O2531123   7.550   6.738   0.611 -0.0169  0.1578  0.7113
  220MOL    H2631124   7.485   6.426   0.564  0.1173 -0.0694  1.4250
  220MOL    H2731125   7.502   6.554   0.443  0.8655 -0.2123  1.2877
  220MOL    H2831126   7.624   6.562   0.671 -0.1921  1.5503  1.4010
  220MOL    H2931127   7.473   6.608   0.751 -1.4260  1.8991 -0.1462
  220MOL    C3031128   7.575   6.833   0.711 -0.2966 -0.6466 -0.3192
  220MOL    C3131129   7.641   6.961   0.661  0.1539  0.4699 -0.0795
  220MOL    O3231130   7.638   7.075   0.746  0.3286 -0.1472  0.6753
  220MOL    H3331131   7.481   6.855   0.761 -0.9839 -0.8776 -1.4930
  220MOL    H3431132   7.640   6.785   0.785  0.5083 -1.3824 -1.4830
  220MOL    H3531133   7.594   6.982   0.565 -0.0981 -0.6514 -0.2007
  220MOL    H3631134   7.744   6.942   0.632  0.3129  1.2318 -0.0396
  220MOL    C3731135   7.694   7.184   0.678  0.2770  0.9242  0.3574
  220MOL    C3831136   7.697   7.300   0.775 -0.2993  0.3243 -0.1902
  220MOL    O3931137   7.567   7.352   0.790 -0.1020 -0.1043 -0.0491
  220MOL    H4031138   0.019   7.166   0.630 -0.4140 -3.5591  0.4417
  220MOL    H4131139   7.626   7.225   0.603 -0.2770  0.8206  0.7936
  220MOL    H4231140   7.751   7.384   0.731  2.0253 -0.2298  1.5369
  220MOL    H4331141   7.741   7.273   0.871 -2.5981  1.8703  1.3740
  220MOL    C4431142   7.556   7.431   0.911  0.2243  0.1806 -0.0478
  220MOL    C4531143   7.423   7.496   0.915  0.0136  0.4559 -0.8784
  220MOL    O4631144   7.442   7.614   0.824 -0.0385  0.4260 -0.0276
  220MOL    H4731145   7.568   7.362   0.995 -1.5414  0.2550  0.2841
  220MOL    H4831146   7.638   7.503   0.918 -0.2511  0.6161  1.1968
  220MOL    H4931147   7.391   7.521   1.016  3.1173 -1.0231  0.5329
  220MOL    H5031148   7.343   7.428   0.883  0.2345 -1.0114  1.5644
  220MOL    C5131149   7.326   7.692   0.800  0.0099 -0.6397 -0.1558
  220MOL    C5231150   7.297   0.034   0.900 -1.1124  0.0967 -0.3638
  220MOL    O5331151   7.244   7.740   1.011 -0.3438 -0.1948 -0.1643
  220MOL    H5431152   7.353   7.740   0.707 -0.2054 -2.7333 -1.3403
  220MOL    H5531153   7.237   7.632   0.777 -0.3555 -0.7509  1.4910
  220MOL    H5631154   7.226   0.107   0.860  0.2345  0.7228 -1.6353
  220MOL    H5731155   7.385   0.094   0.924 -0.9750 -0.4387  0.4997
  220MOL    C5831156   7.213   0.057   1.123  0.8029 -0.0553 -0.1770
  220MOL    C5931157   7.336   0.067   1.213 -0.1762  0.1354 -0.3384
  220MOL    O6031158   7.335   7.731   1.312  0.3432 -0.7256  0.1102
  220MOL    H6131159   7.187   0.154   1.082 -1.5969  0.0332  1.4124
  220MOL    H6231160   7.127   0.012   1.174  1.3769 -0.3196  0.5666
  220MOL    H6331161   7.314   0.156   1.274  5.1316  1.9398 -0.7727
  220MOL    H6431162   7.429   0.083   1.158  1.6268 -1.0388  2.2572
  220MOL    C6531163   7.410   7.762   1.429 -0.4097  0.3758  0.8614
  220MOL    C6631164   7.399   7.646   1.524 -0.0969  0.3527 -0.3438
  220MOL    O6731165   7.432   7.680   1.657 -0.3145 -0.4877 -0.0394
  220MOL    H6831166   7.518   7.767   1.412 -0.7642  1.6470 -1.2447
  220MOL    H6931167   7.387   0.090   1.470  1.1610  1.6535 -1.2181
  220MOL    H7031168   7.466   7.568   1.487  0.2626 -0.1167  1.2819
  220MOL    H7131169   7.297   7.610   1.522  0.0488 -0.0262 -1.5289
  220MOL    C7231170   7.411   7.573   1.750  0.0007 -0.1653 -0.3940
  220MOL    C7331171   7.419   7.627   1.892  0.2402  0.4402  0.5361
  220MOL    O7431172   7.359   7.537   1.986  0.1700 -0.1306 -0.0128
  220MOL    H7531173   7.311   7.532   1.735  0.6145 -1.3143 -1.4453
  220MOL    H7631174   7.483   7.494   1.730  0.7273  0.2768  0.4212
  220MOL    H7731175   7.358   7.717   1.903 -1.5059 -0.6248 -0.1151
  220MOL    H7831176   7.521   7.655   1.918 -0.1992  0.3167  2.4921
  220MOL    C7931177   7.371   7.565   2.123  0.4827 -0.1867  0.0720
  220MOL    C8031178   7.302   7.448   2.206  0.3489 -0.6920 -0.4642
  220MOL    O8131179   7.398   7.341   2.213  0.0644  0.3102  0.5493
  220MOL    H8231180   7.477   7.571   2.149 -0.0440  0.6053  2.1299
  220MOL    H8331181   7.321   7.660   2.146  1.1650  0.1480  0.1781
  220MOL    H8431182   7.212   7.417   2.153 -1.2082  0.9862  1.1430
  220MOL    H8531183   7.275   7.479   2.307 -0.7739 -0.7710 -0.7361
  220MOL    C8631184   7.393   7.248   2.105  0.4720 -0.2017  0.2601
  220MOL    C8731185   7.302   7.121   2.132  0.0618  0.2460 -0.2813
  220MOL    O8831186   7.169   7.170   2.131  0.3238  0.5402  0.0335
  220MOL    H8931187   7.352   7.294   2.015 -0.9758  1.5894  1.8003
  220MOL    H9031188   7.494   7.212   2.085  0.7611  1.5856 -1.7363
  220MOL    H9131189   7.335   7.078   2.226 -0.7480 -1.2279 -0.6542
  220MOL    H9231190   7.312   7.058   2.044  2.1300 -0.1619  0.2111
  220MOL    C9331191   7.072   7.066   2.161 -0.0651 -0.0838 -0.3780
  220MOL    C9431192   7.041   6.965   2.051  0.0009  0.5640 -0.0892
  220MOL    O9531193   7.146   6.868   2.023 -0.4647  0.3513 -0.4928
  220MOL    H9631194   7.099   7.022   2.257 -0.8160  1.2542  0.4678
  220MOL    H9731195   6.992   7.130   2.198  1.1074  1.4249 -0.3892
  220MOL    H9831196   7.022   7.024   1.961 -2.2803  0.9976  0.6480
  220MOL    H9931197   6.949   6.909   2.069 -0.3591  1.0975 -0.2558
  220MOL   C10031198   7.129   6.771   1.919 -0.9936 -0.5863  0.3765
  220MOL   C10131199   7.263   6.711   1.874  0.8113 -0.4354 -0.0636
  220MOL   O10231200   7.310   6.610   1.960 -0.3536 -0.4434 -0.2565
  220MOL   H10331201   7.060   6.693   1.951 -1.3957  0.2656  1.6188
  220MOL   H10431202   7.084   6.830   1.840 -1.2327 -0.7735  0.3727
  220MOL   H10531203   7.345   6.782   1.866  2.8226 -2.5132  1.3751
  220MOL   H10631204   7.244   6.675   1.773 -2.8297 -0.8350  0.6992
  220MOL   C10731205   7.433   6.558   1.903  0.1135 -0.2630 -0.4047
  220MOL   C10831206   7.412   6.434   1.829 -0.3621  0.1060  0.5816
  220MOL   O10931207   7.369   6.453   1.691 -0.2552  0.0947 -0.0757
  220MOL   H11031208   7.487   6.634   1.845  0.8432 -0.7983 -0.4306
  220MOL   H11131209   7.487   6.527   1.992 -1.0119  2.6227  1.3539
  220MOL   H11231210   7.341   6.374   1.885 -2.2595  0.0097 -1.8370
  220MOL   H11331211   7.509   6.383   1.825  0.0386  0.8757  0.4542
  220MOL   C11431212   7.355   6.331   1.622 -0.6623 -0.4135 -0.0250
  220MOL   C11531213   7.273   6.347   1.500  0.0353 -0.6116 -0.7313
  220MOL   O11631214   7.334   6.441   1.410  0.1288  0.4090  0.1180
  220MOL   H11731215   7.455   6.309   1.585 -0.6637 -0.3182 -0.0885
  220MOL   H11831216   7.319   6.249   1.683  1.5938 -2.8774 -1.8880
  220MOL   H11931217   7.180   6.391   1.534  0.4990 -0.9652  1.0082
  220MOL   H12031218   7.237   6.251   1.461 -2.4473 -0.2441  0.5262
  220MOL   C12131219   7.266   6.457   1.279 -0.3065  0.0499 -0.5261
  220MOL   C12231220   7.340   6.550   1.176 -0.0417 -0.2417 -0.0211
  220MOL   O12331221   7.447   6.494   1.100 -0.2166 -0.0089 -0.1256
  220MOL   H12431222   7.246   6.365   1.224  1.5692  0.1380 -1.4146
  220MOL   H12531223   7.171   6.505   1.301  1.2577  2.1106  1.9531
  220MOL   H12631224   7.388   6.636   1.223  1.4428 -0.1960 -1.5727
  220MOL   H12731225   7.276   6.583   1.094  0.0288  0.2319  0.1146
  220MOL   C12831226   7.529   6.409   1.181  1.0859 -0.9886  0.4880
  220MOL   C12931227   7.657   6.371   1.097  0.0759  0.2227 -0.9901
  220MOL   O13031228   7.749   6.480   1.091  0.2910  0.3491 -0.3871
  220MOL   H13131229   7.563   6.464   1.269 -0.1438  3.1761 -1.5195
  220MOL   H13231230   7.467   6.329   1.221 -0.9387  0.3510  0.1099
  220MOL   H13331231   7.634   6.334   0.998 -1.5206  2.5861 -1.5363
  220MOL   H13431232   7.701   6.287   1.152  1.1292 -1.2758 -4.0383
  220MOL   C13531233   7.716   6.574   0.994 -0.7270  0.2045 -0.2558
  220MOL   C13631234   0.063   6.673   0.994  0.1456 -0.2130  0.0399
  220MOL   O13731235   0.166   6.603   0.945 -0.3416 -0.1480 -0.0555
  220MOL   H13831236   7.672   6.542   0.899 -1.8839 -1.4477  0.8140
  220MOL   H13931237   7.629   6.622   1.038 -0.6574 -1.3515  1.6858
  220MOL   H14031238   0.085   6.713   1.093  1.5430  0.2996 -0.4593
  220MOL   H14131239   0.057   6.757   0.925  2.4525 -0.2148 -0.2067
  220MOL   H14231240   0.155   6.519   0.987 -0.8118  0.0263  0.1691
  221MOL     C131241   2.499   5.677   6.551  0.4654  0.1955  0.2312
  221MOL     C231242   2.532   5.527   6.586  0.3514  0.7823 -0.1207
  221MOL     O331243   2.444   5.422   6.547 -0.8426 -0.3276 -0.2322
  221MOL     H431244   2.399   5.682   6.593  0.5792 -1.4722  0.7519
  221MOL     H531245   2.477   5.707   6.449 -0.6328  2.2807  1.0618
  221MOL     H631246   2.527   5.524   6.695  1.6524 -0.8731 -0.0955
  221MOL     H731247   2.633   5.493   6.559  0.5056  2.0902 -1.2620
  221MOL     H831248   2.563   5.750   6.601  0.1306  0.2671  0.5556
  221MOL     C931249   2.491   5.355   6.425  0.1344  0.3886 -0.8612
  221MOL    C1031250   2.369   5.300   6.358 -0.8829  0.1585  0.3481
  221MOL    O1131251   2.290   5.214   6.439  0.5596  0.5316 -0.5483
  221MOL    H1231252   2.551   5.419   6.361  1.6902 -0.5869 -0.3956
  221MOL    H1331253   2.564   5.288   6.468  0.4162  1.2796  0.0688
  221MOL    H1431254   2.399   5.261   6.261 -1.7075  2.7771 -1.0188
  221MOL    H1531255   2.313   5.386   6.321 -0.4084  0.5011  0.4147
  221MOL    C1631256   2.342   5.084   6.466 -0.2681 -0.5742 -0.2069
  221MOL    C1731257   2.257   5.001   6.548 -0.6593 -0.5183  0.3875
  221MOL    O1831258   2.150   4.945   6.478 -0.4140  0.0498  0.4125
  221MOL    H1931259   2.359   5.030   6.373 -1.9399 -3.1339  0.9203
  221MOL    H2031260   2.441   5.092   6.509  0.0750 -0.0945 -1.0692
  221MOL    H2131261   2.232   5.060   6.636  2.7835  1.3271  0.2286
  221MOL    H2231262   2.319   4.921   6.591 -1.4872 -0.1302  2.3658
  221MOL    C2331263   2.053   5.036   6.423 -0.3913 -0.6380  0.0944
  221MOL    C2431264   1.915   4.968   6.419 -0.6443 -0.0133  0.6463
  221MOL    O2531265   1.824   5.037   6.336 -0.5417  0.5887  1.0734
  221MOL    H2631266   2.046   5.128   6.481 -0.6883  0.3620 -1.5061
  221MOL    H2731267   2.098   5.066   6.329 -1.2512 -2.5040 -0.9397
  221MOL    H2831268   1.890   4.978   6.525 -1.4878  1.0143  0.3556
  221MOL    H2931269   1.928   4.864   6.387 -1.6718 -0.0731  0.4105
  221MOL    C3031270   1.700   4.969   6.340  0.8488 -0.5399 -0.5141
  221MOL    C3131271   1.628   5.034   6.218  0.4382  0.1997  0.0505
  221MOL    O3231272   1.695   4.990   6.098  0.5952  0.1789  0.3537
  221MOL    H3331273   1.710   4.861   6.335 -0.3813 -0.6772 -0.2860
  221MOL    H3431274   1.640   4.994   6.428  0.5533 -1.9006 -0.3220
  221MOL    H3531275   1.636   5.142   6.229 -0.8600  0.0957  2.3622
  221MOL    H3631276   1.525   5.000   6.215  0.8612 -0.9907 -1.9505
  221MOL    C3731277   1.662   5.061   5.977 -0.0880 -0.5206  0.4499
  221MOL    C3831278   1.703   4.986   5.846  0.2069 -0.1994 -0.0437
  221MOL    O3931279   1.597   4.928   5.773 -0.4197 -0.0715  0.2049
  221MOL    H4031280   1.557   5.084   5.961  0.3348  1.0028 -0.1660
  221MOL    H4131281   1.703   5.162   5.975 -2.7155  0.5470 -0.7198
  221MOL    H4231282   1.786   4.916   5.848 -0.9434 -1.8188 -4.0596
  221MOL    H4331283   1.737   5.057   5.770  2.4452  0.4076  1.4753
  221MOL    C4431284   1.564   4.799   5.827 -0.5283  0.1682  0.4019
  221MOL    C4531285   1.432   4.741   5.775 -0.1338 -0.2692 -0.4190
  221MOL    O4631286   1.394   4.625   5.843  0.0979  0.6132 -0.2750
  221MOL    H4731287   1.644   4.730   5.801  0.2355  0.7811  1.0962
  221MOL    H4831288   1.558   4.798   5.936 -3.2217 -0.0626  0.2819
  221MOL    H4931289   1.430   4.720   5.668 -0.9085 -0.5611 -0.3465
  221MOL    H5031290   1.358   4.818   5.798 -0.4412 -0.8739  0.6112
  221MOL    C5131291   1.265   4.572   5.809 -0.6617  0.1167 -0.8088
  221MOL    C5231292   1.258   4.443   5.897  0.0520  0.3707 -0.2457
  221MOL    O5331293   1.303   4.328   5.829  0.1039 -0.1764  0.0459
  221MOL    H5431294   1.199   4.649   5.849  0.5660 -0.3727  2.2749
  221MOL    H5531295   1.247   4.549   5.704 -2.5925 -0.3103 -0.4003
  221MOL    H5631296   1.153   4.418   5.912  0.5699 -2.1044 -0.5981
  221MOL    H5731297   1.306   4.446   5.995 -0.8357  0.8891  0.1835
  221MOL    C5831298   1.446   4.299   5.809 -0.4543 -0.2088 -0.1912
  221MOL    C5931299   1.469   4.156   5.754  0.1812  0.4122 -0.1996
  221MOL    O6031300   1.426   4.151   5.622  0.2666 -0.1208 -0.0703
  221MOL    H6131301   1.498   4.372   5.746  0.3650  0.9829  1.7907
  221MOL    H6231302   1.491   4.306   5.909 -0.3904  1.2178 -0.2987
  221MOL    H6331303   1.411   4.082   5.809 -0.5849  1.1429 -0.0193
  221MOL    H6431304   1.575   4.130   5.756  0.6612  2.1390 -1.5520
  221MOL    C6531305   1.355   4.038   5.574 -0.7314  0.5053  0.6119
  221MOL    C6631306   1.326   4.032   5.425 -1.1360 -0.2075 -0.5141
  221MOL    O6731307   1.210   4.101   5.392 -0.4568  0.7677 -0.1733
  221MOL    H6831308   1.425   3.956   5.589 -1.3814  0.0103  0.9743
  221MOL    H6931309   1.269   4.012   5.635  0.6588 -0.6882  2.0858
  221MOL    H7031310   1.323   3.935   5.376  0.7426 -0.9766  0.8412
  221MOL    H7131311   1.406   4.092   5.382 -2.3014  1.8188  0.0667
  221MOL    C7231312   1.180   4.132   5.246 -0.4325  0.2996  0.2721
  221MOL    C7331313   1.279   4.227   5.183  0.4943 -0.4226  0.1909
  221MOL    O7431314   1.396   4.153   5.149 -0.0291 -0.2831  0.2825
  221MOL    H7531315   1.160   4.041   5.190 -1.7519 -0.1153  1.4026
  221MOL    H7631316   1.086   4.185   5.233  0.9821  2.8273 -0.0736
  221MOL    H7731317   1.305   4.295   5.265  0.4679  1.0756 -1.0299
  221MOL    H7831318   1.234   4.292   5.109  1.2410  1.2995  1.2325
  221MOL    C7931319   1.501   4.232   5.092 -0.1054  0.1303 -0.3383
  221MOL    C8031320   1.520   4.198   4.949  0.5188 -0.2709  0.5121
  221MOL    O8131321   1.412   4.247   4.873 -0.2100  0.4312 -0.0632
  221MOL    H8231322   1.477   4.338   5.096  0.7526  0.3803 -1.4408
  221MOL    H8331323   1.588   4.224   5.158 -1.1010 -0.1485  0.9689
  221MOL    H8431324   1.531   4.090   4.942  0.0843 -0.3003  0.2868
  221MOL    H8531325   1.611   4.245   4.911  0.3247 -2.7040 -3.1601
  221MOL    C8631326   1.426   4.199   4.735 -0.2215 -0.3913 -0.6244
  221MOL    C8731327   1.294   4.197   4.654 -0.5317 -0.5818  0.2345
  221MOL    O8831328   1.180   4.120   4.709 -0.2601 -0.3948  0.5081
  221MOL    H8931329   1.505   4.260   4.693  0.1107  0.7966  1.6442
  221MOL    H9031330   1.447   4.092   4.730 -0.0300 -0.3139 -1.5149
  221MOL    H9131331   1.306   4.136   4.564 -0.6817 -0.1595 -0.0724
  221MOL    H9231332   1.254   4.296   4.631 -0.3734  0.3164  3.5523
  221MOL    C9331333   1.111   4.174   4.816 -0.5371  0.0046 -0.3595
  221MOL    C9431334   0.995   4.080   4.856  0.2922 -0.2974  0.8710
  221MOL    O9531335   1.056   3.965   4.925  0.3082 -0.7372  0.0323
  221MOL    H9631336   1.166   4.184   4.910  0.8488  0.5237 -1.2022
  221MOL    H9731337   1.072   4.274   4.799 -2.0275 -0.7938 -1.7129
  221MOL    H9831338   0.924   4.046   4.781  0.1058 -0.5058  1.1388
  221MOL    H9931339   0.932   4.125   4.932  0.1246 -0.1041  0.6167
  221MOL   C10031340   1.129   3.863   4.849 -0.3047  0.0267 -0.0995
  221MOL   C10131341   1.173   3.748   4.940 -0.9246 -0.0891  0.0568
  221MOL   O10231342   1.318   3.749   4.967 -0.2650  0.0796  0.2321
  221MOL   H10331343   1.077   3.819   4.764 -1.1951  0.8521  0.0051
  221MOL   H10431344   1.208   3.904   4.788 -0.4005 -1.2418 -1.0929
  221MOL   H10531345   1.152   3.652   4.894  0.8587 -0.9574  1.0095
  221MOL   H10631346   1.114   3.745   5.031 -3.2988  3.1661 -1.2780
  221MOL   C10731347   1.361   3.825   5.075  0.1547  0.8695  0.6193
  221MOL   C10831348   1.516   3.832   5.089 -0.1036 -0.2053  0.8704
  221MOL   O10931349   1.548   3.719   5.168  0.8113  0.1269 -0.4846
  221MOL   H11031350   1.351   3.931   5.048 -0.2394  1.3319  2.5409
  221MOL   H11131351   1.316   3.799   5.170  0.1703 -2.0075 -0.1332
  221MOL   H11231352   1.540   3.907   5.165  1.2031 -0.6899  0.9457
  221MOL   H11331353   1.576   3.845   4.999  0.0570  0.0830  1.0196
  221MOL   C11431354   1.564   3.601   5.101  0.1152 -0.3061 -0.5779
  221MOL   C11531355   1.664   3.516   5.178 -0.1034  0.0844  0.3721
  221MOL   O11631356   1.800   3.563   5.172  0.1838 -0.6580  0.1484
  221MOL   H11731357   1.462   3.562   5.096  0.8288 -2.5357  1.0950
  221MOL   H11831358   1.617   3.617   5.007  1.4031  0.5567  0.2999
  221MOL   H11931359   1.667   3.420   5.126 -0.0142 -0.2405  0.9770
  221MOL   H12031360   1.641   3.493   5.282  2.2961 -0.8683  0.7243
  221MOL   C12131361   1.828   3.670   5.263  0.7886 -0.3318  0.1010
  221MOL   C12231362   1.981   3.697   5.280  0.1721 -0.3990 -0.2312
  221MOL   O12331363   2.042   3.600   5.357 -0.2708 -0.4159 -0.2038
  221MOL   H12431364   1.784   3.759   5.218 -1.0031  0.0022  2.3879
  221MOL   H12531365   1.782   3.657   5.361  1.3142  1.9454  0.6989
  221MOL   H12631366   1.999   3.794   5.328 -0.0535 -0.5137  0.0832
  221MOL   H12731367   2.035   3.719   5.188 -0.4797  1.2134 -0.2567
  221MOL   C12831368   2.179   3.589   5.328 -0.2540 -0.1698  0.1645
  221MOL   C12931369   2.253   3.479   5.390 -0.0315 -0.5771 -0.1071
  221MOL   O13031370   2.266   3.505   5.523 -0.3447 -1.1358  0.1441
  221MOL   H13131371   2.182   3.571   5.220 -0.3221 -1.8505  0.4330
  221MOL   H13231372   2.233   3.683   5.345 -1.1758  0.4399 -0.2163
  221MOL   H13331373   2.349   3.488   5.340 -0.3198  2.4860 -0.1829
  221MOL   H13431374   2.202   3.385   5.365 -1.0866  0.2355 -1.0866
  221MOL   C13531375   2.353   3.420   5.585  0.3951 -0.2795  0.0521
  221MOL   C13631376   2.345   3.448   5.739 -0.1096  0.0838 -0.5846
  221MOL   O13731377   2.411   3.336   5.796 -0.4042  0.1900 -0.1433
  221MOL   H13831378   2.312   3.325   5.554  0.1009  0.0465 -0.5639
  221MOL   H13931379   2.452   3.420   5.540  1.2418 -0.7791  1.8517
  221MOL   H14031380   2.239   3.453   5.763  0.4766  0.1944  2.1617
  221MOL   H14131381   2.391   3.541   5.770  1.7368 -0.8534 -0.4503
  221MOL   H14231382   2.464   3.365   5.869 -0.5732  2.3584 -0.8390
  222MOL     C131383   1.741   4.270   6.609 -0.2927 -0.2493  0.0612
  222MOL     C231384   1.891   4.310   6.616 -0.1463 -0.0210 -1.0395
  222MOL     O331385   1.896   4.442   6.661  0.0820  0.4276 -0.8998
  222MOL     H431386   1.718   4.238   6.710  0.5086 -0.2070  0.2606
  222MOL     H531387   1.731   4.181   6.546 -0.3469 -0.7005  0.7091
  222MOL     H631388   1.951   4.314   6.526 -2.8730 -0.2810 -2.9217
  222MOL     H731389   1.957   4.242   6.670 -1.1750 -0.4011 -0.2172
  222MOL     H831390   1.673   4.349   6.577  0.5203  0.7933  0.8842
  222MOL     C931391   1.906   4.461   6.802 -0.4711  0.3831  0.1472
  222MOL    C1031392   1.928   4.617   6.837 -0.4923  0.3020 -0.5294
  222MOL    O1131393   1.985   4.625   6.965  0.0789 -0.0578  0.7747
  222MOL    H1231394   1.823   4.415   6.855 -1.0670  0.5212 -0.6455
  222MOL    H1331395   2.001   4.416   6.831 -0.6008  0.2846  0.4203
  222MOL    H1431396   1.832   4.666   6.855  0.5404  3.4542 -3.1038
  222MOL    H1531397   1.985   4.656   6.753 -0.6386 -0.3165 -0.9194
  222MOL    C1631398   1.998   4.762   7.011  0.0303  0.7442 -0.0123
  222MOL    C1731399   1.902   4.788   7.119  0.5994  0.6866 -0.1334
  222MOL    O1831400   1.785   4.850   7.058 -0.1386  0.3076 -0.8968
  222MOL    H1931401   2.099   4.766   7.052  0.0706 -0.4565  0.0269
  222MOL    H2031402   1.984   4.834   6.930 -3.5805  0.6753  0.4727
  222MOL    H2131403   1.942   4.849   7.200  1.5567 -1.7039  1.2419
  222MOL    H2231404   1.876   4.702   7.181  1.5148  0.9692  0.6549
  222MOL    C2331405   1.662   4.833   7.135  0.0969 -0.2684  0.4313
  222MOL    C2431406   1.590   4.702   7.100  0.3970  0.2316  0.2965
  222MOL    O2531407   1.493   4.737   6.998  0.0233 -0.3288  0.2613
  222MOL    H2631408   1.684   4.827   7.242 -0.5097 -0.7283  0.5295
  222MOL    H2731409   1.601   4.919   7.108  0.2546 -0.1918  0.3185
  222MOL    H2831410   1.542   4.669   7.192 -0.7583  2.7842  0.6680
  222MOL    H2931411   1.661   4.624   7.071 -1.1378 -0.6879 -1.0692
  222MOL    C3031412   1.396   4.636   6.955  0.2002 -0.0896  0.0599
  222MOL    C3131413   1.333   4.669   6.824  0.2933  0.4877  0.2668
  222MOL    O3231414   1.426   4.702   6.712  0.0682 -0.0043  0.1195
  222MOL    H3331415   1.445   4.539   6.946 -0.2628 -0.3050 -0.1145
  222MOL    H3431416   1.311   4.634   7.023  1.1518  1.3159  1.3341
  222MOL    H3531417   1.270   4.757   6.815  0.7812  0.7139 -1.2131
  222MOL    H3631418   1.272   4.582   6.801  1.6552 -1.0803  2.4237
  222MOL    C3731419   1.497   4.592   6.665  0.0424 -0.2125  1.0250
  222MOL    C3831420   1.560   4.626   6.533 -0.9065  0.1237  0.1982
  222MOL    O3931421   1.478   4.583   6.424  0.5888 -0.0180 -0.3808
  222MOL    H4031422   1.582   4.563   6.727 -1.6199 -1.5403  2.7535
  222MOL    H4131423   1.442   4.497   6.669  1.0882 -0.8840 -0.2233
  222MOL    H4231424   1.649   4.565   6.515 -0.4554  1.0843 -0.9007
  222MOL    H4331425   1.576   4.733   6.518  0.3621 -0.0858 -0.0551
  222MOL    C4431426   1.522   4.618   6.291  0.4447 -0.8259 -0.0144
  222MOL    C4531427   1.407   4.630   6.198  0.2766 -0.1851  0.4093
  222MOL    O4631428   1.345   4.753   6.217  0.8145  0.7560  0.5803
  222MOL    H4731429   1.579   4.711   6.288 -0.1397 -0.4625 -0.0198
  222MOL    H4831430   1.587   4.539   6.255  0.9763  0.8175 -2.8713
  222MOL    H4931431   1.344   4.542   6.198 -0.5663  0.3606 -1.9988
  222MOL    H5031432   1.453   4.637   6.099  1.0595  0.2934  0.7988
  222MOL    C5131433   1.245   4.795   6.123  0.1466 -0.3156  0.5408
  222MOL    C5231434   1.209   4.940   6.140  0.4447 -0.2770 -0.0605
  222MOL    O5331435   1.097   4.947   6.055  0.4549 -0.2315 -0.6320
  222MOL    H5431436   1.273   4.773   6.020 -1.3072 -0.0134  0.0779
  222MOL    H5531437   1.161   4.728   6.140  1.6571 -2.1600  0.8837
  222MOL    H5631438   1.300   4.990   6.105 -0.5825  1.4469 -0.3275
  222MOL    H5731439   1.184   4.980   6.238  2.1639 -0.0145  0.2925
  222MOL    C5831440   1.069   5.079   6.005  0.3055  0.1549  0.5662
  222MOL    C5931441   1.180   5.129   5.908 -0.0198  0.4920 -0.4115
  222MOL    O6031442   1.193   5.048   5.793 -0.5156  0.1073 -0.2731
  222MOL    H6131443   0.979   5.071   5.945 -0.1443 -0.3365  1.3039
  222MOL    H6231444   1.053   5.150   6.086  1.9102  1.7771 -0.4766
  222MOL    H6331445   1.272   5.140   5.966 -0.5690  1.5592  0.2776
  222MOL    H6431446   1.152   5.230   5.879  0.0317 -0.0842 -2.4999
  222MOL    C6531447   1.270   5.117   5.691  0.5280  0.1544 -0.3405
  222MOL    C6631448   1.294   5.030   5.562  0.1072 -0.2878  0.8861
  222MOL    O6731449   1.179   5.034   5.482  0.9132  0.8182  0.0802
  222MOL    H6831450   1.230   5.217   5.674 -0.7815 -0.1746  0.7225
  222MOL    H6931451   1.371   5.131   5.730 -0.1009  1.2824  0.9678
  222MOL    H7031452   1.327   4.927   5.579  1.2614 -0.2303 -0.8999
  222MOL    H7131453   1.377   5.070   5.503 -0.0593 -0.5534  0.4703
  222MOL    C7231454   1.077   4.945   5.525  0.6618 -0.8718 -0.0064
  222MOL    C7331455   0.992   4.892   5.410  0.2952  0.1596 -0.8195
  222MOL    O7431456   1.004   4.749   5.401  0.6675  0.4295  0.6334
  222MOL    H7531457   1.124   4.860   5.575  1.5304 -0.3439  0.0855
  222MOL    H7631458   1.022   4.988   5.609 -0.1184 -1.5334 -0.1759
  222MOL    H7731459   1.029   4.941   5.320  0.7610 -1.1295 -1.3336
  222MOL    H7831460   0.887   4.921   5.417  0.7449  1.4698  0.7965
  222MOL    C7931461   0.900   4.685   5.472 -0.4815 -0.3080  0.3892
  222MOL    C8031462   0.923   4.530   5.466 -0.2565  0.4897 -0.9351
  222MOL    O8131463   1.039   4.495   5.542 -0.0193 -0.7687  0.0281
  222MOL    H8231464   0.898   4.709   5.578  0.3621  1.4969  0.0124
  222MOL    H8331465   0.806   4.712   5.423 -0.4876  0.9911  1.1105
  222MOL    H8431466   0.926   4.509   5.359 -1.8057 -0.9504 -0.7245
  222MOL    H8531467   0.847   4.461   5.502  0.4941  0.4174  0.5753
  222MOL    C8631468   1.077   4.360   5.524 -0.3299  0.0450  0.3034
  222MOL    C8731469   1.031   4.280   5.648 -0.3860  0.0705 -0.3457
  222MOL    O8831470   0.912   4.212   5.637 -0.4417  0.3184  0.3705
  222MOL    H8931471   1.040   4.321   5.429  0.2249  2.7743 -1.1173
  222MOL    H9031472   1.185   4.361   5.509 -0.4685 -0.2078 -0.7753
  222MOL    H9131473   1.040   4.341   5.738  2.1943 -1.1082  0.2269
  222MOL    H9231474   1.104   4.201   5.664 -1.3073 -0.1995  2.8853
  222MOL    C9331475   0.888   4.133   5.750  0.0072  0.2039 -0.2553
  222MOL    C9431476   0.741   4.087   5.778 -0.0067 -0.4532  0.1245
  222MOL    O9531477   0.701   4.000   5.680  0.2196  0.2919  0.0101
  222MOL    H9631478   0.954   4.047   5.759 -0.5875 -0.4131 -1.7649
  222MOL    H9731479   0.908   4.201   5.833 -5.2061 -1.0226  2.2071
  222MOL    H9831480   0.672   4.171   5.784 -2.0337 -2.0190 -0.3719
  222MOL    H9931481   0.731   4.049   5.880 -0.8342  0.0731  0.2409
  222MOL   C10031482   0.586   3.929   5.721  0.4235  0.8067  0.4425
  222MOL   C10131483   0.540   3.844   5.612  0.7203  0.5186 -0.0233
  222MOL   O10231484   0.539   3.706   5.640  0.7371  0.2697  0.4643
  222MOL   H10331485   0.599   3.871   5.813  0.6907  0.3844  0.1403
  222MOL   H10431486   0.525   4.015   5.749  0.4095  0.6668  0.8387
  222MOL   H10531487   0.581   3.867   5.513 -0.5079 -0.1996 -0.7079
  222MOL   H10631488   0.432   3.853   5.599 -0.0150 -3.7188  2.4226
  222MOL   C10731489   0.639   3.629   5.570  0.2775  0.3643  0.1991
  222MOL   C10831490   0.649   3.487   5.627  0.0578  0.6528  0.5117
  222MOL   O10931491   0.717   3.478   5.747 -0.8674  1.0884 -0.0169
  222MOL   H11031492   0.610   3.625   5.465  3.7997 -0.2790 -0.8195
  222MOL   H11131493   0.735   3.678   5.585  0.7098 -0.2303 -0.6144
  222MOL   H11231494   0.697   3.424   5.552 -0.1881  1.2065 -0.1143
  222MOL   H11331495   0.548   3.450   5.642 -0.9129  3.4139  1.0825
  222MOL   C11431496   0.766   3.347   5.786  0.0634  0.4333  0.4204
  222MOL   C11531497   0.832   3.355   5.924  0.7484 -0.6872  0.2498
  222MOL   O11631498   0.730   3.322   6.025 -0.7642  0.0115 -0.0731
  222MOL   H11731499   0.689   3.269   5.782 -0.5474  0.9793  1.2692
  222MOL   H11831500   0.841   3.317   5.713  1.8354 -0.8071  2.6782
  222MOL   H11931501   0.881   3.451   5.940  1.4652 -1.3031  1.8521
  222MOL   H12031502   0.911   3.281   5.939  0.5567 -1.0444 -0.4466
  222MOL   C12131503   0.748   3.397   6.145  0.8144 -0.6534  0.8726
  222MOL   C12231504   0.641   3.347   6.246  0.0870 -0.2681  0.1235
  222MOL   O12331505   0.517   3.422   6.224  0.0882  1.1200 -0.1156
  222MOL   H12431506   0.852   3.386   6.175  1.1234 -0.6956 -0.2031
  222MOL   H12531507   0.733   3.504   6.136  0.3379 -0.8548 -0.9629
  222MOL   H12631508   0.684   3.367   6.344  0.3296  0.4299 -0.1260
  222MOL   H12731509   0.628   3.239   6.248  3.5353 -0.7386  0.6879
  222MOL   C12831510   0.422   3.416   6.325  0.5125 -0.3980  0.4016
  222MOL   C12931511   0.285   3.458   6.280  0.2142 -0.8131 -0.2586
  222MOL   O13031512   0.270   3.592   6.281  0.3703  0.1539 -0.5388
  222MOL   H13131513   0.414   3.314   6.363 -1.4783 -0.1345  0.7879
  222MOL   H13231514   0.461   3.482   6.403 -0.3285  1.0784 -0.4032
  222MOL   H13331515   0.215   3.407   6.346  0.5517 -0.2626  0.5335
  222MOL   H13431516   0.272   3.415   6.181  0.9775  1.6277 -1.4561
  222MOL   C13531517   0.158   3.630   6.209 -0.3735  0.1900 -0.0607
  222MOL   C13631518   0.149   3.781   6.237 -0.9207 -0.2559 -0.3555
  222MOL   O13731519   0.117   3.790   6.371 -0.1059  0.1624  0.0315
  222MOL   H13831520   0.184   3.615   6.105  0.3309  1.0137 -0.0094
  222MOL   H13931521   0.068   3.578   6.242 -0.7509  1.3128  0.7052
  222MOL   H14031522   0.059   3.813   6.184  0.5619  2.0795 -1.5481
  222MOL   H14131523   0.232   3.845   6.209 -1.4953  0.1206 -1.2368
  222MOL   H14231524   0.180   3.737   6.420 -2.1833 -0.2507  2.3581
  223MOL     C131525   7.188   3.678   0.192  0.7144 -0.5505 -0.6590
  223MOL     C231526   7.077   3.692   0.302  0.0830 -0.0902 -0.0541
  223MOL     O331527   7.004   3.812   0.297  0.7569  0.7668  0.6765
  223MOL     H431528   7.138   3.678   0.095 -1.4077  2.1639  0.3623
  223MOL     H531529   7.238   3.584   0.215 -0.1036 -1.3389 -2.0665
  223MOL     H631530   7.136   3.682   0.393 -0.2300  3.2897  0.5808
  223MOL     H731531   7.008   3.608   0.291 -1.4453  1.1401 -0.0841
  223MOL     H831532   7.265   3.754   0.191  0.5787 -0.3587  1.1893
  223MOL     C931533   6.914   3.818   0.411 -0.5227  0.0760  0.0076
  223MOL    C1031534   6.857   3.961   0.422 -0.5048  0.0526 -0.3365
  223MOL    O1131535   6.746   3.959   0.521  0.8324  0.1756  0.4274
  223MOL    H1231536   6.841   3.737   0.418  1.0741 -1.4785 -0.9809
  223MOL    H1331537   6.975   3.810   0.501 -0.5967 -1.9042 -0.0882
  223MOL    H1431538   6.825   3.996   0.324  0.1008  0.4179 -0.4063
  223MOL    H1531539   6.931   4.033   0.454 -0.1815 -1.1287  1.6178
  223MOL    C1631540   6.671   4.083   0.535 -0.0769 -0.4013  0.4068
  223MOL    C1731541   6.610   4.138   0.406  0.2063 -0.3558 -0.0142
  223MOL    O1831542   6.504   4.057   0.363  0.6568  0.4611  0.1990
  223MOL    H1931543   6.583   4.065   0.595  0.1187  0.5213  0.9800
  223MOL    H2031544   6.741   4.148   0.588 -0.0147 -0.1250 -0.0070
  223MOL    H2131545   6.674   4.166   0.323 -0.4616 -0.3786 -0.5480
  223MOL    H2231546   6.568   4.233   0.440  0.6450 -0.6184  1.2842
  223MOL    C2331547   6.530   3.982   0.245  0.0593  0.5202  1.4520
  223MOL    C2431548   6.430   3.866   0.243 -0.6054  0.4913 -0.6417
  223MOL    O2531549   6.305   3.881   0.178 -0.1571  0.5394  0.0649
  223MOL    H2631550   6.521   4.046   0.158  2.3059  0.9664  1.5324
  223MOL    H2731551   6.632   3.943   0.246  0.0411  0.3856 -0.4640
  223MOL    H2831552   6.419   3.830   0.346  1.3256  0.4001 -0.4433
  223MOL    H2931553   6.471   3.781   0.189 -1.6055  0.2081 -0.9647
  223MOL    C3031554   6.189   3.910   0.263 -0.1916  0.1423 -0.9659
  223MOL    C3131555   6.073   3.954   0.172 -0.0009 -0.5085 -0.2449
  223MOL    O3231556   5.968   4.019   0.230  0.4041 -0.6557  0.4420
  223MOL    H3331557   6.170   3.827   0.331 -1.4741  0.3171 -1.1005
  223MOL    H3431558   6.209   3.992   0.333 -1.2389  0.0274 -0.5169
  223MOL    H3531559   6.048   3.857   0.127 -0.4636 -0.0321 -1.0315
  223MOL    H3631560   6.133   4.015   0.105  1.2490  0.1926  1.4945
  223MOL    C3731561   5.990   4.160   0.244  0.0446  0.2002  0.1045
  223MOL    C3831562   5.888   4.207   0.349 -0.0747  0.3904  0.1245
  223MOL    O3931563   5.763   4.242   0.282 -0.2698 -0.2217  0.1724
  223MOL    H4031564   6.089   4.170   0.288  0.4917 -0.1048 -0.8330
  223MOL    H4131565   5.981   4.217   0.152 -0.3195  1.7447  1.0901
  223MOL    H4231566   5.929   4.298   0.392  0.8142  0.1079 -0.0994
  223MOL    H4331567   5.885   4.124   0.419 -1.7982 -0.4855 -0.9493
  223MOL    C4431568   5.665   4.297   0.374  0.1624 -0.1723 -0.1243
  223MOL    C4531569   5.659   4.449   0.374 -0.0110 -0.4797 -0.2707
  223MOL    O4631570   5.630   4.494   0.235  0.3166 -0.0044 -0.1482
  223MOL    H4731571   5.568   4.266   0.334 -0.3530 -0.8249  1.5788
  223MOL    H4831572   5.676   4.261   0.477  0.5347 -0.5630 -0.2983
  223MOL    H4931573   5.738   4.505   0.424 -1.6435  0.6711  1.0554
  223MOL    H5031574   5.578   4.469   0.444  0.8200  3.0093 -0.2509
  223MOL    C5131575   5.630   4.637   0.237  0.1310  0.4766 -0.2675
  223MOL    C5231576   5.599   4.697   0.093 -0.3258  0.5420  0.4816
  223MOL    O5331577   5.476   4.653   0.048  0.4127 -0.0651  0.3163
  223MOL    H5431578   5.546   4.664   0.301  0.6798 -0.5467  0.8951
  223MOL    H5531579   5.716   4.689   0.280 -1.9934  3.9525  0.0016
  223MOL    H5631580   5.686   4.664   0.036 -0.1302  1.1713  0.4101
  223MOL    H5731581   5.590   4.806   0.094  3.3048  0.9061  1.7596
  223MOL    C5831582   5.469   4.640   7.679 -0.1759 -0.3911 -0.2197
  223MOL    C5931583   5.421   4.774   7.621  0.4448  0.8389 -0.1698
  223MOL    O6031584   5.531   4.865   7.612  0.1169  1.2989 -0.4685
  223MOL    H6131585   5.558   4.600   7.632 -1.0718 -1.4436 -1.0696
  223MOL    H6231586   5.388   4.568   7.664 -1.1203  0.8042 -0.9842
  223MOL    H6331587   5.338   4.816   7.678 -0.3722  0.4575 -1.0681
  223MOL    H6431588   5.397   4.748   7.518  0.4846 -0.5445  0.1577
  223MOL    C6531589   5.517   4.965   7.506  0.2186  0.2148  0.3248
  223MOL    C6631590   5.646   5.052   7.523  0.1575  0.4087 -0.4130
  223MOL    O6731591   5.653   5.140   7.633  0.3955 -0.5051 -0.5038
  223MOL    H6831592   5.508   4.921   7.407 -1.6540 -0.6498  0.8548
  223MOL    H6931593   5.426   5.025   7.507  0.3825  0.4669 -0.0663
  223MOL    H7031594   5.658   5.105   7.429  1.3931  0.9622  0.0406
  223MOL    H7131595   5.737   4.992   7.528  0.2837  0.6053 -0.3349
  223MOL    C7231596   5.751   5.242   7.636  0.2904  0.2282  0.7390
  223MOL    C7331597   5.705   5.369   7.565 -0.2436 -0.2454  0.6184
  223MOL    O7431598   5.661   5.468   7.659  0.0552 -0.1174  0.7462
  223MOL    H7531599   5.775   5.253   7.742  0.4490 -1.4077  0.8820
  223MOL    H7631600   5.845   5.210   7.592 -0.6918  0.3180 -1.5012
  223MOL    H7731601   5.611   5.353   7.512 -0.5685  4.0800 -0.2861
  223MOL    H7831602   5.791   5.402   7.508  0.1965 -0.0256  1.4014
  223MOL    C7931603   5.761   5.531   7.739  0.7444  0.4836  0.2749
  223MOL    C8031604   5.693   5.631   0.051  0.1777 -0.0903 -0.2635
  223MOL    O8131605   5.776   5.682   0.152  0.8380  0.2216 -0.9645
  223MOL    H8231606   5.815   5.461   0.032 -2.5565 -1.1834  1.3599
  223MOL    H8331607   5.836   5.576   7.675  0.9507  3.6883  2.7025
  223MOL    H8431608   5.597   5.596   0.089 -0.5832  1.3959 -0.7452
  223MOL    H8531609   5.671   5.710   7.750 -2.6167  0.0177  0.6314
  223MOL    C8631610   5.699   5.774   0.232  0.2212  0.0927 -0.3050
  223MOL    C8731611   5.778   5.841   0.356  0.6784  0.6143  0.1884
  223MOL    O8831612   5.833   5.969   0.325  0.4799 -0.5868  0.0045
  223MOL    H8931613   5.665   5.855   0.167  0.0295  1.2021  1.1554
  223MOL    H9031614   5.612   5.726   0.277  0.4726  0.2402  0.3465
  223MOL    H9131615   5.848   5.761   0.379 -0.3980 -0.0104  1.4007
  223MOL    H9231616   5.722   5.846   0.450 -1.1400  1.6289 -0.9253
  223MOL    C9331617   5.896   6.033   0.435 -0.0167 -1.2445 -0.0958
  223MOL    C9431618   5.975   6.166   0.409  0.1107  0.1623 -0.3426
  223MOL    O9531619   5.893   6.282   0.396 -1.0851 -0.0673 -0.4157
  223MOL    H9631620   5.823   6.049   0.514  1.6705  2.5794  0.7804
  223MOL    H9731621   5.966   5.955   0.465  1.6387  0.0299 -0.5672
  223MOL    H9831622   6.025   6.146   0.314 -1.7362 -1.1135 -1.0608
  223MOL    H9931623   6.064   6.172   0.472 -0.2423 -3.2795  0.6012
  223MOL   C10031624   5.793   6.272   0.290 -0.7257 -0.1710 -0.1809
  223MOL   C10131625   5.711   6.397   0.280  0.0552 -0.7307  0.4485
  223MOL   O10231626   5.611   6.404   0.379  0.0206  0.1509  0.2138
  223MOL   H10331627   5.837   6.262   0.191 -0.8762 -0.5253 -0.2143
  223MOL   H10431628   5.734   6.180   0.301  2.2978 -2.5493 -2.9350
  223MOL   H10531629   5.657   6.400   0.185  0.5547 -3.1994  0.0487
  223MOL   H10631630   5.780   6.480   0.291 -1.1714  0.4690 -0.7525
  223MOL   C10731631   5.502   6.490   0.350 -0.3444  0.6910 -0.1688
  223MOL   C10831632   5.409   6.515   0.467  0.0072 -0.2256  0.1520
  223MOL   O10931633   5.308   6.611   0.434 -0.0336  0.2806  0.4922
  223MOL   H11031634   5.542   6.588   0.323 -0.0481  0.3751 -0.8916
  223MOL   H11131635   5.449   6.449   0.264 -1.4650 -0.1470  0.9106
  223MOL   H11231636   5.451   6.555   0.559 -1.6566 -2.2336  1.8395
  223MOL   H11331637   5.384   6.416   0.505  1.6295 -1.0866 -0.9859
  223MOL   C11431638   5.193   6.545   0.378 -0.5162 -0.4870  0.1754
  223MOL   C11531639   5.060   6.627   0.381  0.2787  0.1291  0.4922
  223MOL   O11631640   5.034   6.640   0.526  0.1435  0.0587 -0.5980
  223MOL   H11731641   5.211   6.523   0.273 -1.4054  0.7651 -0.2425
  223MOL   H11831642   5.167   6.455   0.435 -2.3381  1.3540  2.3553
  223MOL   H11931643   4.987   6.564   0.330 -0.5159 -0.6062  2.4821
  223MOL   H12031644   5.076   6.722   0.331 -2.7457  0.9775  1.0479
  223MOL   C12131645   4.911   6.688   0.570  0.1412  0.2262 -0.3280
  223MOL   C12231646   4.827   6.564   0.594  0.4187 -0.1362  0.7262
  223MOL   O12331647   4.781   6.499   0.473  0.1604  0.1327  0.8151
  223MOL   H12431648   4.944   6.733   0.663  1.1263 -1.7534  0.3184
  223MOL   H12531649   4.872   6.769   0.509  0.0576 -0.2886 -0.9660
  223MOL   H12631650   4.739   6.601   0.647 -0.5580 -0.9623 -0.3072
  223MOL   H12731651   4.875   6.494   0.662  1.5392  0.5342  0.6312
  223MOL   C12831652   4.679   6.577   0.400 -0.5805  0.5269  0.1511
  223MOL   C12931653   4.620   6.474   0.310 -0.2496 -0.4876 -0.2051
  223MOL   O13031654   4.539   6.379   0.373  0.4584 -0.1206 -0.1537
  223MOL   H13131655   4.596   6.598   0.467 -1.6252 -1.6553 -0.3975
  223MOL   H13231656   4.717   6.667   0.351  0.2917  0.0317 -0.1001
  223MOL   H13331657   4.706   6.434   0.257 -1.1490 -1.6856 -0.7856
  223MOL   H13431658   4.564   6.524   0.231 -1.5207 -2.1844 -0.4029
  223MOL   C13531659   4.496   6.269   0.289 -0.1667  0.5568 -0.1480
  223MOL   C13631660   4.449   6.156   0.378  0.7356 -0.1116 -0.8014
  223MOL   O13731661   4.480   6.029   0.312 -0.5505 -0.2239 -0.7120
  223MOL   H13831662   4.428   6.297   0.208  1.2102  1.2108 -1.0927
  223MOL   H13931663   4.589   6.246   0.237 -0.8660 -1.1243 -0.6878
  223MOL   H14031664   4.347   6.166   0.415  1.3613  0.8208  0.7185
  223MOL   H14131665   4.511   6.157   0.467 -0.1005  1.7512 -0.1988
  223MOL   H14231666   4.535   5.973   0.364 -1.4607 -1.3678 -0.9834
  224MOL     C131667   4.507   6.605   6.004 -0.5881  0.5557 -0.3869
  224MOL     C231668   4.381   6.609   5.929 -0.0191  0.4517  0.1380
  224MOL     O331669   4.297   6.525   6.003  0.0512 -0.3949  0.1474
  224MOL     H431670   4.491   6.660   6.097 -0.8475 -1.0992  0.5550
  224MOL     H531671   4.593   6.643   5.949 -0.6584 -1.5155 -1.9802
  224MOL     H631672   4.386   6.580   5.824  1.2232 -1.3619  0.6762
  224MOL     H731673   4.350   6.713   5.919  2.6706  1.2681 -0.3904
  224MOL     H831674   4.525   6.500   6.023  0.6580  0.3524 -2.5666
  224MOL     C931675   4.186   6.477   5.923  0.3832 -0.1549 -0.1142
  224MOL    C1031676   4.082   6.424   6.023  0.2663 -0.0405 -0.4926
  224MOL    O1131677   3.999   6.531   6.064 -0.0796  0.1805  0.0029
  224MOL    H1231678   4.154   6.549   5.848 -1.0356 -0.2807  0.3550
  224MOL    H1331679   4.216   6.394   5.859  0.8747  1.0039 -1.4052
  224MOL    H1431680   4.138   6.379   6.105  1.2211 -0.1987 -1.2274
  224MOL    H1531681   4.030   6.343   5.972 -0.0193 -0.7211  0.8395
  224MOL    C1631682   3.960   6.518   6.202 -0.3477  0.9467  0.0344
  224MOL    C1731683   3.870   6.638   6.245  0.2627 -0.3678 -0.0781
  224MOL    O1831684   3.741   6.600   6.236 -0.1946  0.6109  0.4683
  224MOL    H1931685   3.916   6.420   6.221 -0.8738  1.0443 -0.6944
  224MOL    H2031686   4.045   6.528   6.270 -0.4020  2.4903 -0.1186
  224MOL    H2131687   3.886   6.721   6.175 -0.9547  0.1773  0.2819
  224MOL    H2231688   3.896   6.667   6.347 -0.3446 -0.9343  0.2366
  224MOL    C2331689   3.648   6.695   6.287 -0.1080  0.8917 -0.5192
  224MOL    C2431690   3.510   6.643   6.242  0.0487 -0.9925  0.5903
  224MOL    O2531691   3.488   6.666   6.102  0.2063 -0.2735  0.2566
  224MOL    H2631692   3.646   6.678   6.394  0.0904 -0.5489 -0.7300
  224MOL    H2731693   3.661   6.801   6.267  1.7566  1.1966  2.0741
  224MOL    H2831694   3.427   6.698   6.286  0.3109  0.2804 -0.4902
  224MOL    H2931695   3.487   6.538   6.259 -2.1925 -0.2648  2.2626
  224MOL    C3031696   3.502   6.802   6.057 -0.2201 -0.6941 -0.4326
  224MOL    C3131697   3.454   6.823   5.912  0.5627 -0.3649  0.2459
  224MOL    O3231698   3.312   6.814   5.908  0.3561 -0.9277  0.4389
  224MOL    H3331699   3.451   6.873   6.122 -1.2870  0.6028 -2.6275
  224MOL    H3431700   3.608   6.827   6.054  0.2194 -2.3771  0.2703
  224MOL    H3531701   3.493   6.752   5.839 -1.9751  0.8437 -2.3977
  224MOL    H3631702   3.476   6.925   5.879 -0.5194  0.1455  1.0749
  224MOL    C3731703   3.256   6.837   5.782 -0.6597  0.0296  0.1258
  224MOL    C3831704   3.112   6.885   5.805  0.3087  0.4979  0.6711
  224MOL    O3931705   3.012   6.784   5.811 -0.4531  1.0226 -0.7940
  224MOL    H4031706   3.319   6.911   5.732  1.3106 -1.6484  0.0784
  224MOL    H4131707   3.257   6.753   5.713  1.1069 -0.1681  0.3701
  224MOL    H4231708   3.086   6.939   5.713  1.5918 -0.9532 -0.5779
  224MOL    H4331709   3.120   6.945   5.895 -1.5660 -0.2500  1.3488
  224MOL    C4431710   2.875   6.839   5.834 -0.0817  0.2633  0.7460
  224MOL    C4531711   2.769   6.725   5.849 -0.1754 -0.3986 -0.6725
  224MOL    O4631712   2.776   6.657   5.971 -0.7857 -0.1554  0.2368
  224MOL    H4731713   2.866   6.910   5.916 -2.6152  0.2777  0.5099
  224MOL    H4831714   2.845   6.892   5.744 -0.8804  0.0448  0.8787
  224MOL    H4931715   2.784   6.655   5.767 -1.6531 -2.1882  0.5698
  224MOL    H5031716   2.674   6.779   5.851 -1.0438 -1.8744 -1.4693
  224MOL    C5131717   2.700   6.706   6.077 -0.2634 -0.0312 -0.1628
  224MOL    C5231718   2.740   6.622   6.199 -0.4061 -0.2631  0.7684
  224MOL    O5331719   2.627   6.589   6.280 -0.0380  0.0656  0.0849
  224MOL    H5431720   2.722   6.812   6.090  0.6010  0.1161 -2.4654
  224MOL    H5531721   2.592   6.703   6.063 -0.1593  1.5217 -1.5763
  224MOL    H5631722   2.818   6.667   6.260  2.3415 -2.4637 -1.0079
  224MOL    H5731723   2.780   6.527   6.163  0.6479  0.1931  0.7492
  224MOL    C5831724   2.564   6.704   6.331 -0.5733  0.5178 -0.2446
  224MOL    C5931725   2.493   6.656   6.457  0.0971  0.3075  0.7842
  224MOL    O6031726   2.352   6.642   6.434  0.3011 -0.7286  0.2440
  224MOL    H6131727   2.631   6.784   6.362 -1.7580  0.8460  1.5437
  224MOL    H6231728   2.491   6.754   6.266 -2.2911 -1.2687  0.2448
  224MOL    H6331729   2.499   6.739   6.528 -0.9002  1.5766 -0.5906
  224MOL    H6431730   2.536   6.561   6.490 -0.7023 -0.1385  0.5710
  224MOL    C6531731   2.325   6.512   6.371 -0.0420  0.3297 -0.0186
  224MOL    C6631732   2.174   6.490   6.349 -0.0742 -0.0177  0.4270
  224MOL    O6731733   2.130   6.538   6.224  0.4402  0.3388  0.3682
  224MOL    H6831734   2.389   6.491   6.285 -1.3126 -1.3734 -0.5557
  224MOL    H6931735   2.346   6.437   6.447 -1.7139 -0.7586 -0.6158
  224MOL    H7031736   2.138   6.556   6.428 -0.1607 -0.0980  0.4545
  224MOL    H7131737   2.148   6.387   6.373 -0.7716 -0.0288 -0.4048
  224MOL    C7231738   2.156   6.677   6.191  0.4562 -0.5534 -0.3775
  224MOL    C7331739   2.128   6.701   6.035  0.4898 -0.5662 -0.2435
  224MOL    O7431740   2.233   6.643   5.960  0.5604  0.1673  0.6721
  224MOL    H7531741   2.096   6.745   6.252  1.3437  0.4272 -0.5828
  224MOL    H7631742   2.261   6.703   6.202  0.1248 -0.0600  1.9278
  224MOL    H7731743   2.120   6.805   6.007  1.3266 -0.6269 -0.7120
  224MOL    H7831744   2.030   6.663   6.003 -1.2218  4.5203 -1.4622
  224MOL    C7931745   2.208   6.511   5.923  0.7234  0.3997  0.1394
  224MOL    C8031746   2.343   6.458   5.856 -0.2892 -0.1139  0.5520
  224MOL    O8131747   2.367   6.540   5.739  0.4115  0.7902 -0.3451
  224MOL    H8231748   2.175   6.445   6.003  1.1234  0.7940  0.6388
  224MOL    H8331749   2.128   6.511   5.849 -0.6128  0.1523  1.5588
  224MOL    H8431750   2.335   6.351   5.838 -0.1664  0.1453 -1.1212
  224MOL    H8531751   2.419   6.480   5.931  0.7226 -1.0165 -0.2021
  224MOL    C8631752   2.477   6.492   5.665 -0.3475 -0.1052  0.0140
  224MOL    C8731753   2.521   6.591   5.560 -0.0158 -0.2720 -0.7604
  224MOL    O8831754   2.447   6.561   5.449  0.3666 -0.4091  0.0116
  224MOL    H8931755   2.551   6.494   5.745  1.3643  0.8752 -1.5786
  224MOL    H9031756   2.457   6.392   5.626 -0.9671  0.6006 -1.5008
  224MOL    H9131757   2.628   6.580   5.543  0.2615  0.8487  0.2159
  224MOL    H9231758   2.506   6.698   5.577  0.0640  0.1003 -2.8397
  224MOL    C9331759   2.500   6.622   5.332  0.0547  0.3844 -0.6378
  224MOL    C9431760   2.591   6.515   5.256 -0.6087 -0.0683  0.2110
  224MOL    O9531761   2.721   6.502   5.318 -0.0149 -0.2551  0.1112
  224MOL    H9631762   2.409   6.637   5.274 -1.4476  0.4572  1.6554
  224MOL    H9731763   2.549   6.717   5.353  0.0832  0.5978 -1.6454
  224MOL    H9831764   2.605   6.544   5.152 -0.1766 -0.3727  0.1815
  224MOL    H9931765   2.545   6.417   5.246 -1.6979  0.0982  3.0432
  224MOL   C10031766   2.810   6.398   5.269  0.2761  0.5127  0.0223
  224MOL   C10131767   2.862   6.331   5.393 -0.1315 -0.2585  0.2237
  224MOL   O10231768   2.775   6.233   5.437 -0.2134  0.3528  0.3033
  224MOL   H10331769   2.754   6.335   5.200  0.8890 -0.4717  0.4090
  224MOL   H10431770   2.883   6.440   5.200 -0.2515 -2.0271 -2.1899
  224MOL   H10531771   2.890   6.408   5.465  0.5756  0.0682 -0.3991
  224MOL   H10631772   2.948   6.277   5.353  0.0640  1.1368 -1.3281
  224MOL   C10731773   2.820   6.177   5.558 -0.4751 -1.0482 -0.4692
  224MOL   C10831774   2.802   6.270   5.689 -0.5847  0.3316 -0.2325
  224MOL   O10931775   2.921   6.339   5.707 -1.3547  0.1253  0.4359
  224MOL   H11031776   2.761   6.087   5.577  0.0079 -1.1611  0.5341
  224MOL   H11131777   2.919   6.137   5.540 -0.0775  0.2728 -1.2745
  224MOL   H11231778   2.772   6.212   5.776 -1.2537 -0.4374 -0.9557
  224MOL   H11331779   2.725   6.345   5.672 -1.5068 -0.3448  0.8755
  224MOL   C11431780   2.935   6.368   5.847  0.6548  0.1669  0.1994
  224MOL   C11531781   3.047   6.468   5.875  0.1825 -0.2696  0.2163
  224MOL   O11631782   3.170   6.395   5.889 -0.3822  0.0070 -0.0398
  224MOL   H11731783   2.841   6.407   5.886 -0.4485 -2.0426 -0.1509
  224MOL   H11831784   2.962   6.280   5.906  0.8464 -0.4734 -0.8284
  224MOL   H11931785   3.022   6.519   5.968 -0.3672  1.0053 -0.6234
  224MOL   H12031786   3.060   6.545   5.800 -0.6727 -1.2895 -0.9963
  224MOL   C12131787   3.280   6.467   5.947 -0.6481 -0.6254  0.2536
  224MOL   C12231788   3.401   6.372   5.901  0.0337 -0.5143 -0.2047
  224MOL   O12331789   3.457   6.399   5.773  0.8052  0.2241 -0.1756
  224MOL   H12431790   3.272   6.574   5.931  0.4866 -0.8372 -1.8452
  224MOL   H12531791   3.260   6.444   6.052  2.6427  1.0800  1.3040
  224MOL   H12631792   3.370   6.268   5.913  0.4442 -0.2702  3.4488
  224MOL   H12731793   3.475   6.383   5.980 -0.7471  0.1823  0.4294
  224MOL   C12831794   3.567   6.328   5.735 -0.2474  0.3977  0.4912
  224MOL   C12931795   3.698   6.386   5.788 -0.5022  0.2999 -0.1637
  224MOL   O13031796   3.762   6.474   5.698  0.5636 -0.1996 -0.5168
  224MOL   H13131797   3.564   6.224   5.767 -0.0995 -0.3114 -1.7300
  224MOL   H13231798   3.567   6.317   5.627 -1.7401  1.6254  0.3490
  224MOL   H13331799   3.761   6.297   5.784  0.4901  1.0918 -3.3938
  224MOL   H13431800   3.693   6.420   5.892  2.4128 -2.1495  0.8580
  224MOL   C13531801   3.900   6.488   5.710  0.0937  0.6883 -0.4166
  224MOL   C13631802   3.946   6.533   5.573  0.1133  0.4265 -0.0086
  224MOL   O13731803   3.912   6.666   5.553 -0.2231 -0.1887 -0.6482
  224MOL   H13831804   3.918   6.566   5.784 -0.6321 -0.2056  0.7218
  224MOL   H13931805   3.957   6.395   5.714 -1.2674 -0.2167 -1.4934
  224MOL   H14031806   3.905   6.484   5.484 -0.4707  2.6048 -0.9754
  224MOL   H14131807   4.052   6.514   5.558 -0.0894  0.2382 -1.2424
  224MOL   H14231808   3.820   6.668   5.576 -0.0241  1.5065  0.0429
  225MOL     C131809   1.347   2.779   6.546  0.3762 -0.8942 -0.0512
  225MOL     C231810   1.490   2.755   6.591 -0.1364 -0.1847 -0.7370
  225MOL     O331811   1.488   2.733   6.731  0.1951  0.5265  0.0051
  225MOL     H431812   1.288   2.688   6.560 -0.4484 -0.4119 -0.3499
  225MOL     H531813   1.322   2.820   6.448 -4.0126 -2.1618  0.4272
  225MOL     H631814   1.563   2.833   6.570  1.5659 -1.0347  1.7398
  225MOL     H731815   1.538   2.671   6.541 -1.4711  0.0845 -2.5222
  225MOL     H831816   1.298   2.854   6.608  0.2602  0.4930 -1.8067
  225MOL     C931817   1.623   2.716   6.786 -0.0958  0.0961  0.1221
  225MOL    C1031818   1.617   2.762   6.933 -1.0719 -0.5139  0.2830
  225MOL    O1131819   1.588   2.900   6.947 -0.1239 -0.0282 -0.4053
  225MOL    H1231820   1.666   2.616   6.779  1.1198  0.5845  0.4137
  225MOL    H1331821   1.700   2.784   6.750 -0.8915  0.4478 -0.9407
  225MOL    H1431822   1.718   2.740   6.966  0.1706  0.7590 -2.4902
  225MOL    H1531823   1.556   2.697   6.995 -0.6611 -0.7845  0.4058
  225MOL    C1631824   1.451   2.920   6.973  0.8421 -0.0059  0.0216
  225MOL    C1731825   1.407   3.073   6.977  0.2350  0.1928 -0.7238
  225MOL    O1831826   1.462   3.120   7.100  0.2981 -0.4443  0.2639
  225MOL    H1931827   1.389   2.871   6.898  0.0498  0.3900  0.4052
  225MOL    H2031828   1.419   2.880   7.069 -1.6448 -0.0810 -0.8051
  225MOL    H2131829   1.298   3.076   6.984  0.1878  0.1384 -1.3644
  225MOL    H2231830   1.456   3.135   6.902 -0.6752 -1.1978 -2.5337
  225MOL    C2331831   1.415   3.255   7.124  0.2056 -0.5925  0.1089
  225MOL    C2431832   1.266   3.264   7.156 -0.3527  0.1578 -0.4884
  225MOL    O2531833   1.184   3.326   7.060  0.0049 -0.7675  0.2739
  225MOL    H2631834   1.479   3.289   7.205  1.0371  0.4755 -0.9714
  225MOL    H2731835   1.442   3.329   7.049 -0.6707  1.8662  2.1344
  225MOL    H2831836   1.257   3.315   7.252 -0.9561  0.7938 -0.8825
  225MOL    H2931837   1.236   3.162   7.178  0.4305  0.1318  0.5149
  225MOL    C3031838   1.057   3.370   7.113 -0.1623 -0.0370 -0.0030
  225MOL    C3131839   0.983   3.457   7.007 -0.2068  0.3352  0.0812
  225MOL    O3231840   1.046   3.582   7.008 -0.1032 -0.1405  0.2781
  225MOL    H3331841   1.002   3.276   7.119  2.1217 -1.6532 -2.8888
  225MOL    H3431842   1.060   3.425   7.207 -1.8470  1.0525 -0.5586
  225MOL    H3531843   0.876   3.462   7.026  0.0917  0.5238  1.8062
  225MOL    H3631844   0.984   3.405   6.911  1.1921 -0.0703  0.3031
  225MOL    C3731845   0.989   3.656   6.899 -0.6929 -0.4621 -0.4016
  225MOL    C3831846   0.855   3.726   6.955  0.0431  0.8516 -0.1607
  225MOL    O3931847   0.881   3.834   7.045  0.1076  0.4210  0.1256
  225MOL    H4031848   1.053   3.740   6.872  1.5275 -1.2321  2.1923
  225MOL    H4131849   0.967   3.607   6.805  0.9031  0.2783 -1.1691
  225MOL    H4231850   0.800   3.643   7.000  2.4174 -0.8302 -0.2237
  225MOL    H4331851   0.819   3.757   6.857  1.5248  0.2572 -0.9120
  225MOL    C4431852   0.774   3.854   7.139  0.6835 -0.2922  1.0469
  225MOL    C4531853   0.760   3.997   7.183  0.4831  0.8082  0.5524
  225MOL    O4631854   0.676   4.051   7.089  0.1188 -0.0363  0.4243
  225MOL    H4731855   0.681   3.827   7.090  1.2892  0.3257 -0.4820
  225MOL    H4831856   0.800   3.785   7.219  1.0127  0.2846  1.4403
  225MOL    H4931857   0.852   4.053   7.169  0.2482  0.6572 -1.7218
  225MOL    H5031858   0.721   4.004   7.285 -1.9765 -2.1575 -0.0974
  225MOL    C5131859   0.642   4.182   7.121  0.8126  0.4057  0.2708
  225MOL    C5231860   0.543   4.234   7.018 -0.2212  0.1100 -0.6736
  225MOL    O5331861   0.415   4.173   7.046 -0.2630 -0.1786  0.3909
  225MOL    H5431862   0.609   4.196   7.225 -1.0683 -2.6925  0.1595
  225MOL    H5531863   0.737   4.235   7.114  0.8968  0.1925 -0.1572
  225MOL    H5631864   0.575   4.201   6.919  0.7906  1.0074 -0.6505
  225MOL    H5731865   0.525   4.342   7.015  0.7492  0.3699  1.8723
  225MOL    C5831866   0.320   4.195   6.942 -0.4360  0.1243 -0.1867
  225MOL    C5931867   0.221   4.078   6.958  0.4858 -0.0087  0.2339
  225MOL    O6031868   0.150   4.072   7.082  0.5218 -0.9152  0.1181
  225MOL    H6131869   0.271   4.291   6.958  1.6346  0.7920  2.7365
  225MOL    H6231870   0.374   4.187   6.848  2.3354  0.7384  1.2905
  225MOL    H6331871   0.282   3.990   6.940  2.2627  0.7931  2.2336
  225MOL    H6431872   0.153   4.076   6.873  1.4334  1.4324 -0.5812
  225MOL    C6531873   0.135   3.943   7.137  0.6778 -0.0739 -0.0480
  225MOL    C6631874   0.041   3.942   7.263 -0.4077 -0.3900 -0.2356
  225MOL    O6731875   7.681   3.949   7.226  0.6480  1.1608 -0.7289
  225MOL    H6831876   0.100   3.884   7.052 -0.4306 -0.8687  0.9452
  225MOL    H6931877   0.233   3.900   7.157  0.6280 -0.0890  0.1648
  225MOL    H7031878   0.081   4.023   7.322 -1.2531  0.1200 -0.3526
  225MOL    H7131879   0.058   3.849   7.318  2.5439 -0.5964 -1.3994
  225MOL    C7231880   7.636   4.082   7.204 -0.7876 -0.1863 -0.2650
  225MOL    C7331881   7.486   4.076   7.184  0.1333 -0.3715 -0.4144
  225MOL    O7431882   7.414   4.030   7.306  0.2051  0.3601 -0.1771
  225MOL    H7531883   7.660   4.142   7.292  1.0374 -0.0145 -0.8751
  225MOL    H7631884   7.678   4.130   7.116  0.8336 -0.2022  0.4922
  225MOL    H7731885   7.478   4.006   7.101 -0.6593  0.5198 -1.1022
  225MOL    H7831886   7.447   4.175   7.161 -1.7808 -0.9535  0.2085
  225MOL    C7931887   7.291   3.968   7.280 -0.2655  0.5076  0.4052
  225MOL    C8031888   7.195   3.974   7.398  0.1794 -0.2520  0.2799
  225MOL    O8131889   7.132   4.098   7.394 -0.3355  0.2973  0.3807
  225MOL    H8231890   7.242   4.006   7.190  2.8439 -1.2118 -2.1176
  225MOL    H8331891   7.326   3.870   7.250 -1.6004  0.3603 -0.7035
  225MOL    H8431892   7.239   3.950   7.495 -1.5864 -1.3777  0.8304
  225MOL    H8531893   7.118   3.898   7.384 -1.2896  0.9906  1.3911
  225MOL    C8631894   7.052   4.124   7.501  0.0801 -0.2705  0.1348
  225MOL    C8731895   6.968   4.246   7.499  0.6504 -0.0522  0.4767
  225MOL    O8831896   6.840   4.217   7.433 -0.7265  0.1762 -0.9299
  225MOL    H8931897   6.985   4.050   7.545  0.0187 -1.2794 -1.6087
  225MOL    H9031898   7.129   4.145   7.575  0.6108  0.6496 -0.6617
  225MOL    H9131899   7.018   4.332   7.455  0.7866 -1.1727 -1.6635
  225MOL    H9231900   6.946   4.282   7.599 -2.5709  1.2769 -0.6281
  225MOL    C9331901   6.837   4.205   7.288 -0.2802 -0.0368 -0.3298
  225MOL    C9431902   6.697   4.158   7.248  0.2783  0.8244 -0.2424
  225MOL    O9531903   6.673   4.026   7.291  0.4566  0.1345  0.3851
  225MOL    H9631904   6.867   4.290   7.227  1.2463 -0.0605  0.3746
  225MOL    H9731905   6.900   4.124   7.253  0.1999 -0.3661  1.2917
  225MOL    H9831906   6.689   4.170   7.140 -1.1512  0.7639 -0.1471
  225MOL    H9931907   6.619   4.220   7.292  0.7387 -0.1679  2.0836
  225MOL   C10031908   6.543   3.986   7.249  0.2747  0.7398 -0.0793
  225MOL   C10131909   6.498   3.857   7.327  0.1260  0.5350  0.0838
  225MOL   O10231910   6.559   3.737   7.274 -1.0081  0.5161  0.3232
  225MOL   H10331911   6.477   4.059   7.296  0.2731 -0.1447  1.3042
  225MOL   H10431912   6.537   3.975   7.141  1.9281 -0.3675 -0.0741
  225MOL   H10531913   6.389   3.848   7.328  0.1760 -0.3971 -1.3477
  225MOL   H10631914   6.520   3.886   7.430 -0.0345  0.1203  0.2367
  225MOL   C10731915   6.696   3.728   7.297 -0.1304 -0.5069 -0.2878
  225MOL   C10831916   6.761   3.598   7.243  1.1715  0.2410 -0.5194
  225MOL   O10931917   6.730   3.501   7.336  0.1559  0.0611 -0.0078
  225MOL   H11031918   6.743   3.811   7.246  0.1808 -1.9577 -2.4239
  225MOL   H11131919   6.709   3.730   7.406 -1.4955 -1.5411 -0.0903
  225MOL   H11231920   6.869   3.615   7.248  1.3668 -1.1041 -0.2001
  225MOL   H11331921   6.741   3.577   7.138  0.7511  1.3825 -0.6714
  225MOL   C11431922   6.804   3.383   7.299 -0.5334 -0.3745 -0.1212
  225MOL   C11531923   6.745   3.262   7.378  0.1639  0.1078 -0.0324
  225MOL   O11631924   6.654   3.188   7.296 -0.2559 -0.2624 -0.3456
  225MOL   H11731925   6.797   3.358   7.193  1.1604  1.3566 -0.6766
  225MOL   H11831926   6.909   3.405   7.317 -0.5645  0.8533 -1.2713
  225MOL   H11931927   6.710   3.286   7.478  1.5483 -1.7343  0.9381
  225MOL   H12031928   6.825   3.187   7.379  0.2098  0.1494  2.9296
  225MOL   C12131929   6.532   3.257   7.289 -0.2602  0.5807 -0.4955
  225MOL   C12231930   6.428   3.177   7.203  0.1238 -0.2343 -0.2707
  225MOL   O12331931   6.364   3.069   7.276 -0.1404 -0.1298  0.2849
  225MOL   H12431932   6.497   3.290   7.387  0.7808 -1.0202  0.4304
  225MOL   H12531933   6.555   3.344   7.228  1.4815  0.5758  0.1207
  225MOL   H12631934   6.471   3.133   7.113  1.5623 -0.9544  0.7432
  225MOL   H12731935   6.350   3.251   7.180 -1.1480 -1.8962 -1.4758
  225MOL   C12831936   6.445   2.947   7.289 -0.1157 -0.8510 -0.4699
  225MOL   C12931937   6.344   2.843   7.341 -0.3842  0.3069  0.0093
  225MOL   O13031938   6.327   2.849   7.480 -0.2286  0.1043  0.0722
  225MOL   H13131939   6.474   2.921   7.187 -0.0800 -0.6356 -0.5147
  225MOL   H13231940   6.532   2.954   7.355 -2.1337 -0.1877  2.2449
  225MOL   H13331941   6.399   2.749   7.330 -1.5349 -0.7247  2.6038
  225MOL   H13431942   6.252   2.837   7.284  0.8651 -2.2780 -1.8600
  225MOL   C13531943   6.276   2.731   7.528  0.1742 -0.4912 -0.5415
  225MOL   C13631944   6.249   2.723   7.677  0.0026 -0.0224  0.0396
  225MOL   O13731945   6.131   2.799   7.706  0.3193  0.6109  0.1420
  225MOL   H13831946   6.185   2.705   7.474  0.6943 -0.6295 -1.3568
  225MOL   H13931947   6.331   2.646   7.486  0.0354 -0.9131  0.1141
  225MOL   H14031948   6.335   2.756   7.734 -0.6037  0.9987  0.3723
  225MOL   H14131949   6.248   2.618   7.705 -0.4982 -0.7380 -2.5281
  225MOL   H14231950   6.158   2.873   7.758  3.2648 -0.4291  0.1925
  226MOL     C131951   7.177   4.333   7.125  0.7288  0.2131  0.0942
  226MOL     C231952   7.215   4.469   7.060  0.5095  0.4825  0.1614
  226MOL     O331953   7.108   4.561   7.083  0.5960 -0.2476  0.4293
  226MOL     H431954   7.257   4.263   7.100  0.4333  0.1778 -0.7494
  226MOL     H531955   7.080   4.302   7.089  1.0042  0.4304 -0.8541
  226MOL     H631956   7.230   4.454   6.954  1.5052  0.3086  0.3284
  226MOL     H731957   7.311   4.500   7.101  1.2166 -2.5161  0.9487
  226MOL     H831958   7.172   4.346   7.233 -1.2354  0.6418 -0.0358
  226MOL     C931959   7.136   4.685   7.015  0.8076  0.0656 -0.1498
  226MOL    C1031960   7.117   4.819   7.098  0.0506  0.5044  0.4020
  226MOL    O1131961   7.233   4.846   7.184 -0.2464  0.5809 -0.0360
  226MOL    H1231962   7.235   4.683   6.971  0.2915  1.0214 -1.3858
  226MOL    H1331963   7.073   4.680   6.926  1.3161  0.3374 -0.5268
  226MOL    H1431964   7.024   4.806   7.154  0.0622  1.4607  0.6454
  226MOL    H1531965   7.108   4.908   7.037 -2.6276 -0.2351 -0.3674
  226MOL    C1631966   7.220   4.969   7.260 -0.5847  0.0678  0.2624
  226MOL    C1731967   7.341   5.007   7.337  0.4326 -0.2994  0.1031
  226MOL    O1831968   7.448   5.034   7.242 -0.7267 -0.4037  0.9203
  226MOL    H1931969   7.204   5.054   7.192  0.9909 -0.4279 -0.7457
  226MOL    H2031970   7.132   4.964   7.325 -0.0310 -2.1054  0.8831
  226MOL    H2131971   7.356   4.929   7.411  1.3838  0.9318  1.2475
  226MOL    H2231972   7.325   5.103   7.388  2.1214  0.0257  0.0665
  226MOL    C2331973   7.579   5.033   7.293 -1.2510  0.5292 -0.4385
  226MOL    C2431974   7.667   5.128   7.208  0.5028 -0.0373 -0.4647
  226MOL    O2531975   7.703   5.054   7.089  0.4576  0.2474 -0.3455
  226MOL    H2631976   7.574   5.075   7.393 -0.1179  0.6750 -0.4337
  226MOL    H2731977   7.618   4.932   7.290 -1.8352  0.2934 -0.0033
  226MOL    H2831978   7.750   5.164   7.268 -1.7647  0.2037  2.6108
  226MOL    H2931979   7.622   5.221   7.175  2.5243  1.2384  0.2572
  226MOL    C3031980   0.029   5.104   7.005  0.3179  0.5133  0.2610
  226MOL    C3131981   7.767   5.073   6.858 -0.1397 -0.0038 -0.5429
  226MOL    O3231982   7.666   5.160   6.811  0.3365  0.1535 -0.4933
  226MOL    H3331983   0.040   5.212   7.017  1.2167  0.3004  1.4541
  226MOL    H3431984   0.129   5.065   7.022  0.7895  1.0174 -1.2174
  226MOL    H3531985   7.757   4.967   6.836  1.9027 -0.0461 -1.4098
  226MOL    H3631986   0.079   5.102   6.794  1.1222 -0.4872  0.8298
  226MOL    C3731987   7.604   5.109   6.697  0.3489 -0.4516 -0.4621
  226MOL    C3831988   7.553   5.229   6.615  0.1236 -0.1407  0.2611
  226MOL    O3931989   7.660   5.288   6.545 -0.2359 -0.1411  0.2930
  226MOL    H4031990   7.683   5.060   6.640  2.2724 -0.5669  2.2321
  226MOL    H4131991   7.521   5.047   6.729  1.4948 -0.5456  2.5389
  226MOL    H4231992   7.489   5.294   6.676  0.8787  2.2940 -1.4600
  226MOL    H4331993   7.484   5.188   6.541  0.0473  0.8345 -0.2158
  226MOL    C4431994   7.619   5.401   6.474  0.3583  0.5292  0.2970
  226MOL    C4531995   7.729   5.482   6.424 -0.3044 -0.8563 -0.0873
  226MOL    O4631996   7.682   5.575   6.337  0.4247  0.5719 -0.1419
  226MOL    H4731997   7.567   5.364   6.385 -1.9967 -0.0569  1.8512
  226MOL    H4831998   7.544   5.457   6.530 -0.4494  2.0828 -2.2183
  226MOL    H4931999   0.017   5.406   6.372  1.9828  2.1868 -2.1515
  226MOL    H5032000   0.019   5.519   6.507  0.2470 -3.1556  0.5637
  226MOL    C5132001   0.010   5.651   6.268  0.5581 -0.8714 -0.4655
  226MOL    C5232002   7.711   5.764   6.186 -0.5572 -0.2335 -0.0119
  226MOL    O5332003   7.665   5.870   6.268  0.0695 -0.6235  0.4114
  226MOL    H5432004   0.075   5.690   6.346 -2.5464 -0.9018  2.2605
  226MOL    H5532005   0.077   5.602   6.197  2.8674 -0.4332  1.3450
  226MOL    H5632006   7.638   5.726   6.115 -1.0361 -0.3070  0.5094
  226MOL    H5732007   0.019   5.817   6.133 -0.8799 -0.3260 -0.5799
  226MOL    C5832008   7.595   5.982   6.201 -0.2980 -0.4550  0.4846
  226MOL    C5932009   7.672   6.074   6.112  0.4245 -0.7130 -0.2215
  226MOL    O6032010   7.721   6.009   6.000  0.1427 -0.2040  0.6117
  226MOL    H6132011   7.506   5.939   6.155  0.5516 -1.5382 -0.1675
  226MOL    H6232012   7.544   6.044   6.275 -1.5628 -1.8144  0.7878
  226MOL    H6332013   7.763   6.098   6.167  0.0351  2.3212 -0.8451
  226MOL    H6432014   7.612   6.162   6.090  1.4918 -0.4429 -2.0968
  226MOL    C6532015   0.005   6.104   5.913  0.5407 -0.4663  0.2551
  226MOL    C6632016   0.041   6.041   5.776  0.4611  0.0369 -0.8730
  226MOL    O6732017   0.084   6.151   5.694  0.7965  0.0678 -1.2011
  226MOL    H6832018   7.692   6.171   5.894  1.2856 -0.1806 -2.1065
  226MOL    H6932019   0.093   6.155   5.951 -1.1029  0.8898  2.3914
  226MOL    H7032020   7.728   5.993   5.726  0.1950  0.3194 -0.6943
  226MOL    H7132021   0.117   5.966   5.798 -0.9441 -0.5981  2.0183
  226MOL    C7232022   0.131   6.111   5.568  0.2756 -0.3981  0.6767
  226MOL    C7332023   0.134   6.234   5.469 -0.1698  0.2649  0.3144
  226MOL    O7432024   0.239   6.322   5.512 -0.6548  0.2927 -0.2687
  226MOL    H7532025   0.233   6.074   5.579  1.7362  2.6017 -1.9918
  226MOL    H7632026   0.066   6.027   5.544  0.7376 -0.8338  0.9401
  226MOL    H7732027   0.038   6.285   5.482 -0.3520  0.5855 -2.0675
  226MOL    H7832028   0.139   6.207   5.364 -0.0870 -0.2695  0.4561
  226MOL    C7932029   0.262   6.420   5.415 -0.5371 -0.4107 -0.3790
  226MOL    C8032030   0.355   6.528   5.495 -0.6469 -0.4146 -0.5445
  226MOL    O8132031   0.479   6.493   5.440 -0.3567  0.4023 -0.5169
  226MOL    H8232032   0.293   6.378   5.320 -2.2645  0.5361 -1.3953
  226MOL    H8332033   0.168   6.471   5.392  1.0633  1.1372 -3.7968
  226MOL    H8432034   0.351   6.523   5.604 -1.6133  0.0407 -0.5581
  226MOL    H8532035   0.317   6.623   5.458  0.5547 -0.0498 -0.8790
  226MOL    C8632036   0.581   6.581   5.481  0.1110  0.0602  0.9707
  226MOL    C8732037   0.579   6.711   5.405  0.3408 -0.3982  0.5849
  226MOL    O8832038   0.703   6.772   5.413 -0.1691 -0.2625 -0.2106
  226MOL    H8932039   0.560   6.608   5.584 -0.7430 -0.7763  1.0193
  226MOL    H9032040   0.677   6.528   5.474 -0.5284 -0.7887 -3.3667
  226MOL    H9132041   0.487   6.767   5.422  1.0102  0.7902  0.3764
  226MOL    H9232042   0.585   6.686   5.300 -1.5779 -1.1584  0.6364
  226MOL    C9332043   0.723   6.884   5.321  0.1529 -0.0412 -1.4779
  226MOL    C9432044   0.867   6.932   5.323 -0.7964  0.4961 -0.0904
  226MOL    O9532045   0.961   6.842   5.271  0.2472  0.3808 -0.7068
  226MOL    H9632046   0.697   6.855   5.219 -0.1723  1.5565 -1.8528
  226MOL    H9732047   0.656   6.968   5.342 -1.3168 -1.8471  1.4948
  226MOL    H9832048   0.890   6.966   5.425  1.3964  1.6697 -0.9233
  226MOL    H9932049   0.877   7.017   5.256  2.4423  0.5062  0.2760
  226MOL   C10032050   1.007   6.730   5.347 -0.4027 -0.4461  0.3221
  226MOL   C10132051   1.128   6.660   5.269 -0.0107  0.2375  0.1782
  226MOL   O10232052   1.164   6.540   5.330  0.3317  0.0723 -0.0809
  226MOL   H10332053   1.031   6.750   5.451 -0.1748  1.0174  0.0018
  226MOL   H10432054   0.920   6.664   5.353 -2.0538  1.5716 -0.8616
  226MOL   H10532055   1.213   6.728   5.268 -0.5127  0.8784 -0.9745
  226MOL   H10632056   1.097   6.653   5.164 -2.1665  1.1763  0.7332
  226MOL   C10732057   1.259   6.552   5.433 -0.0566  0.3117  0.2635
  226MOL   C10832058   1.287   6.415   5.483  0.7381  0.4874  0.0251
  226MOL   O10932059   1.415   6.425   5.557  0.1390  0.2109  0.5452
  226MOL   H11032060   1.349   6.583   5.379 -0.0734 -2.4553 -1.4775
  226MOL   H11132061   1.240   6.624   5.512  1.1703 -0.5943  1.4194
  226MOL   H11232062   1.281   6.340   5.403  0.0269  0.5239  0.0397
  226MOL   H11332063   1.209   6.394   5.556  0.3659  1.1296 -0.1830
  226MOL   C11432064   1.449   6.301   5.621  0.1545 -0.3096 -0.1113
  226MOL   C11532065   1.594   6.306   5.665 -0.5356 -0.0571  0.1396
  226MOL   O11632066   1.611   6.350   5.799 -0.9854 -0.3767  0.0345
  226MOL   H11732067   1.369   6.285   5.693 -1.9198  2.7505 -1.6233
  226MOL   H11832068   1.420   6.226   5.547  0.4868  0.8508 -1.4437
  226MOL   H11932069   1.645   6.383   5.609  1.0571 -2.9333 -2.5229
  226MOL   H12032070   1.637   6.206   5.657  1.0700  0.5886  0.5467
  226MOL   C12132071   1.747   6.374   5.826  0.3750 -0.1269 -0.1821
  226MOL   C12232072   1.783   6.368   5.979 -0.0199  0.2400 -0.5282
  226MOL   O12332073   1.753   6.483   6.058 -0.0809 -0.2329 -0.2392
  226MOL   H12432074   1.809   6.303   5.771  0.5713  1.5999 -2.2763
  226MOL   H12532075   1.772   6.470   5.781 -0.1728 -0.5361 -1.3733
  226MOL   H12632076   1.885   6.336   5.999 -0.3516 -0.9252 -0.6213
  226MOL   H12732077   1.723   6.284   6.016 -0.0373 -0.8947 -3.0188
  226MOL   C12832078   1.799   6.472   6.193  0.3867 -0.7335  0.4308
  226MOL   C12932079   1.815   6.613   6.265  0.1191  0.5363  0.7001
  226MOL   O13032080   1.691   6.664   6.301 -0.5124  0.3567  0.2070
  226MOL   H13132081   1.742   6.405   6.258 -0.8790  0.6341  0.7518
  226MOL   H13232082   1.899   6.428   6.190  0.2886 -0.8810 -1.0420
  226MOL   H13332083   1.867   6.677   6.194  1.2463 -1.1111  0.0239
  226MOL   H13432084   1.876   6.595   6.353  1.3864  1.7247  0.0713
  226MOL   C13532085   1.697   6.777   6.389 -0.1192  0.4057 -0.0897
  226MOL   C13632086   1.555   6.834   6.400 -0.4361 -0.3941  0.7550
  226MOL   O13732087   1.540   6.929   6.500  0.9004 -0.1377 -0.2371
  226MOL   H13832088   1.725   6.747   6.490 -1.0222 -0.8410 -0.1936
  226MOL   H13932089   1.773   6.849   6.360  0.3609 -0.4413 -0.9716
  226MOL   H14032090   1.488   6.753   6.430 -0.2860 -0.2718  1.4351
  226MOL   H14132091   1.529   6.870   6.300  0.5510 -0.1015  0.6024
  226MOL   H14232092   1.536   7.011   6.453  1.3177 -0.8336 -1.5132
  227MOL     C132093   5.127   3.607   7.006  0.2277 -0.4834 -0.3459
  227MOL     C232094   5.127   3.626   6.850 -0.1611 -0.6694 -0.2650
  227MOL     O332095   5.238   3.719   6.838 -0.9031  0.2000 -0.4585
  227MOL     H432096   5.234   3.603   7.029  1.1262  0.6679 -4.0717
  227MOL     H532097   5.085   3.512   7.040 -0.5954  0.5767  1.6701
  227MOL     H632098   5.044   3.690   6.822 -0.4610 -1.8615 -2.2116
  227MOL     H732099   5.132   3.538   6.786 -0.3943 -0.0864 -1.0922
  227MOL     H832100   5.085   3.686   7.069 -0.4562 -0.8034 -0.4003
  227MOL     C932101   5.271   3.766   6.710 -0.1876 -0.5162  0.7950
  227MOL    C1032102   5.403   3.835   6.737 -0.9973 -0.3689 -0.1821
  227MOL    O1132103   5.492   3.729   6.752 -0.6179  0.0728  0.1224
  227MOL    H1232104   5.291   3.689   6.636  0.9605  3.0552 -2.7582
  227MOL    H1332105   5.197   3.841   6.682 -2.8120 -4.1970 -2.6680
  227MOL    H1432106   5.399   3.898   6.826 -0.6904 -0.5744 -0.0244
  227MOL    H1532107   5.434   3.889   6.648 -0.9864 -1.5299 -0.8962
  227MOL    C1632108   5.606   3.751   6.833  0.5982  0.8349  0.3571
  227MOL    C1732109   5.723   3.652   6.808 -0.5921 -0.0427 -0.4284
  227MOL    O1832110   5.772   3.656   6.674 -0.1214  0.8172  0.3415
  227MOL    H1932111   5.641   3.853   6.816 -1.8007  1.4474 -1.0355
  227MOL    H2032112   5.573   3.742   6.937  2.3923  0.7062  0.9430
  227MOL    H2132113   5.684   3.554   6.834 -0.8139  0.2922  0.5431
  227MOL    H2232114   5.809   3.676   6.870  0.0795 -0.0896 -1.3436
  227MOL    C2332115   5.861   3.545   6.644 -0.4674 -0.2407  0.3793
  227MOL    C2432116   5.922   3.590   6.516  0.0608 -0.3688  0.3220
  227MOL    O2532117   6.046   3.520   6.494 -0.7151  0.3642 -0.0559
  227MOL    H2632118   5.935   3.534   6.724 -0.9599 -1.2658  0.7043
  227MOL    H2732119   5.804   3.456   6.620 -0.1138  0.2419 -2.3353
  227MOL    H2832120   5.937   3.697   6.524 -0.6120 -0.1728 -0.8856
  227MOL    H2932121   5.855   3.567   6.433 -0.6205  0.3042  0.6815
  227MOL    C3032122   6.034   3.392   6.433  0.2211  0.0135  0.0696
  227MOL    C3132123   6.174   3.331   6.400 -0.2730 -0.1101 -0.2114
  227MOL    O3232124   6.229   3.252   6.499  0.4058  0.2577 -0.0167
  227MOL    H3332125   5.988   3.316   6.497 -0.3251 -0.1105 -0.4613
  227MOL    H3432126   5.981   3.397   6.338 -0.9981  0.5826  0.7621
  227MOL    H3532127   6.251   3.404   6.374 -1.5627  1.3377 -0.0843
  227MOL    H3632128   6.159   3.254   6.325 -0.0145 -1.4601  1.1004
  227MOL    C3732129   6.278   3.314   6.616  0.2995  0.6199 -0.1916
  227MOL    C3832130   6.277   3.213   6.732  0.7962  0.3027 -0.1021
  227MOL    O3932131   6.356   3.094   6.720 -0.7534  0.0699  0.3377
  227MOL    H4032132   6.379   3.339   6.585  0.3659  0.5161 -0.0604
  227MOL    H4132133   6.225   3.403   6.652 -1.7788 -0.5390 -0.3128
  227MOL    H4232134   6.171   3.187   6.737  0.7788  0.3971  0.0005
  227MOL    H4332135   6.295   3.267   6.825  1.7723  2.7455 -1.6685
  227MOL    C4432136   6.347   3.004   6.833  0.4132 -0.2148 -0.4294
  227MOL    C4532137   6.218   2.923   6.851 -0.1970  0.7377 -0.0405
  227MOL    O4632138   6.122   2.996   6.921 -0.2782 -0.4938  0.5340
  227MOL    H4732139   6.427   2.930   6.827  0.9071  0.3841 -1.6420
  227MOL    H4832140   6.373   3.062   6.922  0.6865 -0.7074 -0.1899
  227MOL    H4932141   6.235   2.827   6.901  0.2061  1.9658  2.2544
  227MOL    H5032142   6.186   2.915   6.747 -0.6349 -0.1745  0.1537
  227MOL    C5132143   5.987   2.945   6.934  0.1220 -0.8151  0.0366
  227MOL    C5232144   5.923   2.906   6.802 -0.7976  0.4167  0.1733
  227MOL    O5332145   5.946   2.767   6.773 -0.0597  0.3946 -0.0960
  227MOL    H5432146   5.980   2.855   6.995  0.5336 -0.4312  0.6542
  227MOL    H5532147   5.926   3.026   6.974  0.5886 -1.1576  1.4600
  227MOL    H5632148   5.966   2.979   6.734  1.3192 -1.7539 -0.8766
  227MOL    H5732149   5.816   2.927   6.815 -0.9980 -0.8338  0.5471
  227MOL    C5832150   5.894   2.737   6.642  0.2980 -0.4371  0.7576
  227MOL    C5932151   5.911   2.589   6.603  0.0889 -0.2206 -0.2838
  227MOL    O6032152   5.824   2.555   6.497 -0.0824  0.4643  0.1249
  227MOL    H6132153   5.793   2.774   6.624 -0.6805 -3.6776 -0.8050
  227MOL    H6232154   5.958   2.801   6.580  1.1969 -0.5806  1.5264
  227MOL    H6332155   5.890   2.525   6.689 -0.4986 -0.3500 -0.5190
  227MOL    H6432156   6.010   2.556   6.573  0.3601 -0.5561  0.9783
  227MOL    C6532157   5.797   2.417   6.488 -0.7139  0.3981 -0.4495
  227MOL    C6632158   5.889   2.353   6.377  0.2044  0.0514 -0.9926
  227MOL    O6732159   6.025   2.371   6.410 -0.2619 -0.0463  0.0514
  227MOL    H6832160   5.810   2.369   6.585  1.7331 -0.8767 -1.3803
  227MOL    H6932161   5.691   2.392   6.482 -0.1883 -2.0139 -0.0713
  227MOL    H7032162   5.868   2.389   6.276 -2.1902 -0.7907 -0.8239
  227MOL    H7132163   5.872   2.245   6.377 -0.6962  0.1517  2.0816
  227MOL    C7232164   6.112   2.354   6.293 -0.5020 -0.1644  0.8676
  227MOL    C7332165   6.252   2.410   6.328  0.1321  0.6663 -0.6541
  227MOL    O7432166   6.319   2.324   6.417  0.2583 -0.5606 -0.0339
  227MOL    H7532167   6.113   2.250   6.262 -1.7882  0.6949 -2.3042
  227MOL    H7632168   6.072   2.415   6.212  1.0573 -0.4007 -0.0942
  227MOL    H7732169   6.248   2.509   6.371  0.7296  0.1810  0.5523
  227MOL    H7832170   6.312   2.425   6.238  2.0229 -0.0675  0.4334
  227MOL    C7932171   6.419   2.389   6.498 -0.5616 -0.1385 -0.4395
  227MOL    C8032172   6.537   2.291   6.511 -0.1439  0.3956 -0.1437
  227MOL    O8132173   6.604   2.289   6.385 -0.7818  0.0077  0.6211
  227MOL    H8232174   6.464   2.478   6.455 -3.5985  1.3877 -0.6289
  227MOL    H8332175   6.367   2.419   6.588 -0.2730  2.1749 -1.0240
  227MOL    H8432176   6.495   2.194   6.539  1.4396 -0.6817 -1.4442
  227MOL    H8532177   6.611   2.318   6.586 -1.2939  0.0032  1.1487
  227MOL    C8632178   6.714   2.199   6.398 -0.2390  0.2875  0.8681
  227MOL    C8732179   6.784   2.194   6.263 -0.2862  0.0664  0.2306
  227MOL    O8832180   6.730   2.097   6.172 -0.4670 -0.3067  0.0802
  227MOL    H8932181   6.779   2.250   6.469  0.7659  2.2445 -1.3914
  227MOL    H9032182   6.685   2.103   6.442 -0.6368  1.2478  2.7526
  227MOL    H9132183   6.885   2.157   6.280 -1.1749 -1.5813  2.0609
  227MOL    H9232184   6.786   2.293   6.216  1.9621 -0.2071 -0.3332
  227MOL    C9332185   6.788   2.108   6.043  0.4234 -0.4817  0.2434
  227MOL    C9432186   6.750   1.996   5.946  0.1039  0.0513  0.0997
  227MOL    O9532187   6.791   2.041   5.817  0.0759  0.4621 -0.2425
  227MOL    H9632188   6.765   2.204   5.996 -2.6288 -0.7841  0.9639
  227MOL    H9732189   6.896   2.105   6.051  0.2995 -1.8808  1.5636
  227MOL    H9832190   6.645   1.968   5.944  0.2213 -0.3771 -0.2786
  227MOL    H9932191   6.808   1.908   5.973 -0.3183  0.1763  1.4599
  227MOL   C10032192   6.686   2.083   5.735 -0.9532  0.6900 -0.2711
  227MOL   C10132193   6.736   2.133   5.600 -0.1469  1.1594 -0.5366
  227MOL   O10232194   6.725   2.272   5.582 -0.4705  0.8281  0.4066
  227MOL   H10332195   6.618   1.998   5.731 -2.6404  1.9583  0.7048
  227MOL   H10432196   6.632   2.170   5.774  0.5921  1.2625  0.6337
  227MOL   H10532197   6.673   2.080   5.528 -0.1204 -0.3750  0.5479
  227MOL   H10632198   6.839   2.102   5.584 -0.5449  0.5998 -2.1753
  227MOL   C10732199   6.831   2.345   5.647  0.3456 -0.0154  1.0869
  227MOL   C10832200   6.799   2.496   5.658  0.9115  0.6675 -0.6129
  227MOL   O10932201   6.907   2.561   5.717  0.4087  0.1407 -0.1018
  227MOL   H11032202   6.836   2.302   5.747  0.6886 -0.4723  0.8729
  227MOL   H11132203   6.925   2.332   5.595 -0.8913  0.6876 -1.3987
  227MOL   H11232204   6.703   2.511   5.706  0.3258 -1.2789 -1.1371
  227MOL   H11332205   6.788   2.544   5.560  0.1373  1.8301  0.0300
  227MOL   C11432206   6.913   2.586   5.859 -0.5847  0.0041  0.1783
  227MOL   C11532207   7.052   2.626   5.902 -1.3581 -0.2953  0.7753
  227MOL   O11632208   7.080   2.751   5.839  0.1715  0.3226 -0.4632
  227MOL   H11732209   6.839   2.660   5.887 -2.0109 -1.6795  0.9403
  227MOL   H11832210   6.900   2.492   5.913  1.5439 -0.5448 -0.1872
  227MOL   H11932211   7.125   2.551   5.871  0.6880  1.0036  2.4083
  227MOL   H12032212   7.046   2.630   6.010  0.0459 -0.9581  0.8900
  227MOL   C12132213   7.204   2.814   5.858  0.1585 -0.3554 -0.5041
  227MOL   C12232214   7.207   2.921   5.743  0.2767  0.2855  0.3339
  227MOL   O12332215   7.274   2.873   5.633 -0.0214  0.8435 -0.2253
  227MOL   H12432216   7.211   2.863   5.955  0.6929 -0.8443 -0.2883
  227MOL   H12532217   7.287   2.745   5.842  2.4554  1.8649  1.4157
  227MOL   H12632218   7.265   3.008   5.773 -1.4324  1.3586  0.6168
  227MOL   H12732219   7.106   2.945   5.710  0.3357 -0.5882 -0.5004
  227MOL   C12832220   7.216   2.765   5.566  0.0532 -0.0358  0.1897
  227MOL   C12932221   7.314   2.734   5.447  0.1615  0.1283  0.2977
  227MOL   O13032222   7.328   2.839   5.350  1.1120 -0.1578 -0.6789
  227MOL   H13132223   7.198   2.677   5.629 -0.1091  0.5358  0.9441
  227MOL   H13232224   7.115   2.792   5.537  0.5704 -1.0849 -2.8413
  227MOL   H13332225   7.267   2.652   5.393 -1.7028  2.0029 -0.9970
  227MOL   H13432226   7.410   2.696   5.482  1.0924  0.6558 -1.6241
  227MOL   C13532227   7.211   2.854   5.263 -0.4020 -0.5350 -0.3608
  227MOL   C13632228   7.227   2.969   5.166  0.3705  0.5168  0.0290
  227MOL   O13732229   7.104   3.002   5.117 -0.1211  0.6265 -0.3038
  227MOL   H13832230   7.189   2.760   5.213 -0.4429 -0.6089 -0.2043
  227MOL   H13932231   7.126   2.869   5.329  0.1155 -0.2279  0.2432
  227MOL   H14032232   7.299   2.951   5.085 -1.8295  1.3646 -2.1718
  227MOL   H14132233   7.258   3.045   5.237 -1.0655  0.7988  0.3677
  227MOL   H14232234   7.075   2.932   5.061 -0.3451 -0.3859  1.0612
  228MOL     C132235   0.628   7.044   2.844  0.2212  0.4767 -0.3859
  228MOL     C232236   0.743   6.986   2.753 -0.5175 -0.4227  0.0089
  228MOL     O332237   0.789   7.092   2.670  0.0053  0.0975 -0.2889
  228MOL     H432238   0.538   7.060   2.785  0.6684  1.8311 -0.7171
  228MOL     H532239   0.661   7.145   2.868 -0.0606  0.8690 -1.5806
  228MOL     H632240   0.707   6.904   2.692 -1.4491  0.3603 -0.5151
  228MOL     H732241   0.817   6.947   2.823 -1.1222  0.3143  1.0729
  228MOL     H832242   0.593   6.979   2.924  0.2468  0.5424 -0.3219
  228MOL     C932243   0.905   7.064   2.604  0.8097  0.8247  0.0899
  228MOL    C1032244   0.954   7.185   2.525 -0.8049 -0.4767 -1.2060
  228MOL    O1132245   0.999   7.300   2.606 -0.3195  0.0703  1.0306
  228MOL    H1232246   0.987   7.011   2.651  0.0008 -0.3752  0.1540
  228MOL    H1332247   0.864   6.993   2.533  0.1925  1.3004 -0.0317
  228MOL    H1432248   0.875   7.235   2.468  0.0861  1.1986 -1.0174
  228MOL    H1532249   1.031   7.155   2.453 -1.1599 -0.2644 -1.6792
  228MOL    C1632250   1.083   7.391   2.538  0.4319 -0.5676  0.1737
  228MOL    C1732251   1.095   7.516   2.633  0.2574  0.7857  0.4993
  228MOL    O1832252   1.180   7.490   2.750 -0.5063  0.4619  0.3483
  228MOL    H1932253   1.176   7.336   2.527  0.9002  0.3364 -0.4805
  228MOL    H2032254   1.043   7.424   2.442  0.0573 -1.4251  0.0352
  228MOL    H2132255   0.996   7.550   2.665  0.4978  1.4121  0.5844
  228MOL    H2232256   1.150   7.596   2.583  2.1066 -1.1773 -0.6436
  228MOL    C2332257   1.197   7.595   2.836 -0.1778  0.4320 -0.7078
  228MOL    C2432258   1.297   7.547   2.946  0.6461 -0.5873  0.4587
  228MOL    O2532259   1.428   7.524   2.903 -0.1067  0.8600  0.7676
  228MOL    H2632260   1.236   7.681   2.783  1.3923  0.3451  0.2954
  228MOL    H2732261   1.098   7.629   2.867 -0.0193  0.3838 -0.1558
  228MOL    H2832262   1.261   7.456   2.994  1.1806  0.1210  2.2345
  228MOL    H2932263   1.294   7.621   3.025 -1.2420  1.1579 -1.2185
  228MOL    C3032264   1.523   7.508   3.010  0.2970 -0.3878  0.3616
  228MOL    C3132265   1.658   7.472   2.943  0.6369  0.1803  0.4288
  228MOL    O3232266   1.744   7.455   3.053  0.2788 -0.8091 -0.2828
  228MOL    H3332267   1.537   7.609   3.051 -1.3991  0.5576 -1.3053
  228MOL    H3432268   1.489   7.439   3.087  0.3919  0.5501  1.2596
  228MOL    H3532269   1.694   7.550   2.876  1.7004  0.5865  1.4609
  228MOL    H3632270   1.655   7.381   2.882  0.4949 -1.0457  2.2277
  228MOL    C3732271   1.872   7.408   3.011 -0.8873  0.1779  0.2585
  228MOL    C3832272   1.965   7.348   3.123 -0.3388  0.0430  0.8835
  228MOL    O3932273   1.935   7.210   3.125 -0.0648 -1.0165  0.8507
  228MOL    H4032274   1.862   7.335   2.931  0.6701  1.1518 -0.8462
  228MOL    H4132275   1.918   7.500   2.974 -0.2923  0.0708  0.7174
  228MOL    H4232276   1.941   7.394   3.219  1.1469  1.2038  0.7163
  228MOL    H4332277   2.070   7.362   3.096  0.2167 -3.0053  1.2007
  228MOL    C4432278   2.018   7.139   3.215 -0.2355 -0.0645 -0.0714
  228MOL    C4532279   1.966   6.999   3.229  0.1443  0.7049  0.0010
  228MOL    O4632280   1.846   6.994   3.313  0.0376 -0.1489 -0.1524
  228MOL    H4732281   2.113   7.143   3.162 -1.1694 -0.0974 -1.7770
  228MOL    H4832282   2.016   7.198   3.307 -1.6198  0.4346 -0.4033
  228MOL    H4932283   2.040   6.932   3.274  2.4123  0.8640 -3.3090
  228MOL    H5032284   1.954   6.958   3.128 -0.8011 -0.0000  0.3903
  228MOL    C5132285   1.790   6.858   3.329  0.4150  0.1473 -0.0598
  228MOL    C5232286   1.669   6.869   3.422 -0.4500  0.6855 -0.0764
  228MOL    O5332287   1.706   6.927   3.551 -0.4334  0.0757 -0.0636
  228MOL    H5432288   1.762   6.813   3.234 -1.1728  0.5274  0.2045
  228MOL    H5532289   1.866   6.801   3.382 -1.1731 -2.5060 -0.5188
  228MOL    H5632290   1.628   6.769   3.426  1.0285  0.0441 -0.6338
  228MOL    H5732291   1.588   6.924   3.374  0.1653  1.5878 -0.0994
  228MOL    C5832292   1.619   7.022   3.612 -0.3582 -0.1318  0.2381
  228MOL    C5932293   1.474   6.953   3.625 -0.0934  0.5396 -0.2216
  228MOL    O6032294   1.471   6.822   3.685  0.5846 -0.3672 -0.2463
  228MOL    H6132295   1.663   7.041   3.710 -1.7302 -1.6059  1.1752
  228MOL    H6232296   1.617   7.119   3.562 -1.4243  0.4690  1.3912
  228MOL    H6332297   1.423   6.953   3.528 -1.3100  0.0541  0.4090
  228MOL    H6432298   1.408   7.022   3.676 -0.6482 -1.9338  2.5142
  228MOL    C6532299   1.526   6.812   3.814  0.3594  0.1041  0.7112
  228MOL    C6632300   1.490   6.671   3.853  0.5396 -0.3309 -0.0054
  228MOL    O6732301   1.346   6.664   3.857  0.1091 -0.2387 -0.4954
  228MOL    H6832302   1.633   6.824   3.826  0.6985 -1.1402 -0.8889
  228MOL    H6932303   1.473   6.886   3.875 -2.7220  0.4360 -2.1894
  228MOL    H7032304   1.540   6.658   3.949  2.6235 -2.0622 -1.2853
  228MOL    H7132305   1.532   6.595   3.787  0.0819 -0.1744 -0.4809
  228MOL    C7232306   1.304   6.533   3.881 -0.1540 -0.1041  0.1095
  228MOL    C7332307   1.157   6.536   3.924 -0.3817  0.0694 -0.2325
  228MOL    O7432308   1.140   6.586   4.050  0.0092  0.4164 -0.1677
  228MOL    H7532309   1.309   6.465   3.796  0.7200 -0.8303  0.7298
  228MOL    H7632310   1.367   6.485   3.956 -0.9897 -2.8322 -0.8682
  228MOL    H7732311   1.107   6.440   3.913  0.3152 -0.1007 -2.0232
  228MOL    H7832312   1.101   6.597   3.853 -0.1203  0.0630 -0.4452
  228MOL    C7932313   1.004   6.596   4.097  0.6157 -0.1697 -0.3634
  228MOL    C8032314   0.996   6.678   4.222  0.3900  0.4643 -0.3129
  228MOL    O8132315   1.058   6.618   4.332  0.2734  0.3051 -0.3903
  228MOL    H8232316   0.939   6.643   4.023 -2.4008 -1.0200  1.6752
  228MOL    H8332317   0.959   6.498   4.113  0.4868  0.1409  1.2469
  228MOL    H8432318   0.896   6.710   4.253  0.8188  2.4815 -0.8947
  228MOL    H8532319   1.043   6.776   4.207  0.5790  0.1810 -1.6422
  228MOL    C8632320   1.024   6.485   4.381 -0.0211 -0.3459  0.1676
  228MOL    C8732321   0.881   6.472   4.447  0.1262  0.0178  0.1860
  228MOL    O8832322   0.784   6.450   4.344  0.0934  0.3924 -0.1621
  228MOL    H8932323   1.038   6.404   4.309 -0.8792 -0.3442 -0.0007
  228MOL    H9032324   1.104   6.463   4.452  2.3019 -0.7900 -2.4674
  228MOL    H9132325   0.860   6.565   4.500  0.9870  1.0565 -1.2488
  228MOL    H9232326   0.878   6.395   4.524 -1.9609  0.2110  0.3114
  228MOL    C9332327   0.651   6.465   4.393 -0.4278 -0.3172  0.2095
  228MOL    C9432328   0.616   6.352   4.484 -0.1756  0.5286  0.0992
  228MOL    O9532329   0.676   6.364   4.608  0.4581  0.5817  0.2735
  228MOL    H9632330   0.618   6.556   4.443 -2.3807 -0.9392  0.0884
  228MOL    H9732331   0.593   6.453   4.302 -0.3268 -0.4067  0.1570
  228MOL    H9832332   0.630   6.253   4.442  0.5384  0.5169  0.3606
  228MOL    H9932333   0.508   6.344   4.491 -0.0844  0.1323  1.3176
  228MOL   C10032334   0.660   6.263   4.699 -0.8547 -0.3472 -0.3696
  228MOL   C10132335   0.520   6.224   4.737 -0.1020  0.3738  0.0825
  228MOL   O10232336   0.475   6.138   4.626  0.4007 -0.2175 -0.1136
  228MOL   H10332337   0.714   6.176   4.662  1.8570  1.1598 -0.0799
  228MOL   H10432338   0.709   6.297   4.790  0.8774  0.7245 -1.6832
  228MOL   H10532339   0.461   6.312   4.763 -1.2085 -0.7152  1.3068
  228MOL   H10632340   0.521   6.168   4.830 -2.4187  0.1157 -0.0193
  228MOL   C10732341   0.333   6.124   4.643  0.1587 -0.1969 -0.1866
  228MOL   C10832342   0.272   6.025   4.545 -0.0008 -0.2787  0.1592
  228MOL   O10932343   0.310   5.888   4.565 -0.3221 -0.5816 -0.0209
  228MOL   H11032344   0.312   6.106   4.748  2.0672  2.2430  0.6838
  228MOL   H11132345   0.287   6.218   4.612  1.0360  0.5430  0.6860
  228MOL   H11232346   0.279   6.057   4.441 -2.6094  0.9014  0.3038
  228MOL   H11332347   0.164   6.023   4.561  0.0135 -0.6270  0.2211
  228MOL   C11432348   0.440   5.857   4.511 -0.6450  0.4780 -0.1121
  228MOL   C11532349   0.457   5.708   4.532 -0.0974  0.3108  0.1720
  228MOL   O11632350   0.425   5.671   4.669  0.6360 -0.4250 -0.6889
  228MOL   H11732351   0.451   5.880   4.405  1.4021 -2.2798 -0.5833
  228MOL   H11832352   0.525   5.909   4.555  0.1368  2.0854 -3.3558
  228MOL   H11932353   0.557   5.683   4.497 -0.7964 -1.8592 -0.3573
  228MOL   H12032354   0.392   5.657   4.461 -0.6133  0.7257  0.3434
  228MOL   C12132355   0.404   5.532   4.693  0.8306  0.0811  0.6518
  228MOL   C12232356   0.423   5.494   4.842 -0.6268  0.1940  0.8173
  228MOL   O12332357   0.314   5.537   4.923 -0.8900  0.3612  0.6144
  228MOL   H12432358   0.309   5.494   4.655 -0.7623  2.9184  1.6468
  228MOL   H12532359   0.482   5.480   4.636  0.7024  0.9688 -0.3488
  228MOL   H12632360   0.515   5.534   4.884  0.3293 -0.1020 -0.9865
  228MOL   H12732361   0.421   5.385   4.849  0.8299  0.1632  0.8274
  228MOL   C12832362   0.321   5.508   5.064  0.0489  0.2786  0.1128
  228MOL   C12932363   0.189   5.504   5.142 -0.7285 -0.5088  0.0149
  228MOL   O13032364   0.136   5.636   5.170  0.4142 -0.6156  0.1102
  228MOL   H13132365   0.374   5.414   5.078 -0.4923 -0.2004 -1.0570
  228MOL   H13232366   0.389   5.584   5.105  3.0061 -2.4543  0.4892
  228MOL   H13332367   0.205   5.459   5.240 -1.5437  1.7706  1.2526
  228MOL   H13432368   0.124   5.433   5.091 -0.7417 -0.2214 -0.3704
  228MOL   C13532369   0.031   5.645   5.268  0.2152  0.2060 -0.6266
  228MOL   C13632370   7.751   5.786   5.270 -0.3092 -0.1990 -0.3890
  228MOL   O13732371   7.704   5.821   5.139 -0.2901  0.3940  0.4171
  228MOL   H13832372   7.722   5.576   5.243  0.6481  0.2031 -2.0765
  228MOL   H13932373   0.069   5.624   5.368 -0.6520 -0.0749 -0.3538
  228MOL   H14032374   0.053   5.862   5.298  1.3614 -2.1063  0.5886
  228MOL   H14132375   7.669   5.790   5.341  0.5103  1.6725  0.4864
  228MOL   H14232376   0.001   5.815   5.075 -1.4850  1.5238 -1.0003
  229MOL     C132377   0.700   7.560   4.919  0.8945 -0.0276 -0.3119
  229MOL     C232378   0.766   7.692   4.966  0.3093  0.2816  0.2291
  229MOL     O332379   0.802   7.671   5.100 -0.0154 -0.1993  0.5800
  229MOL     H432380   0.771   7.480   4.899  0.5138 -0.8716  1.5198
  229MOL     H532381   0.640   7.584   4.832 -0.6447  0.7203  0.9194
  229MOL     H632382   0.698   0.005   4.956  1.1983  0.8165 -1.5367
  229MOL     H732383   0.852   7.713   4.902  0.1663  2.2475  0.6597
  229MOL     H832384   0.634   7.527   5.000  1.4170  1.5974  0.8067
  229MOL     C932385   0.879   0.013   5.140 -0.7792 -0.3226  0.2419
  229MOL    C1032386   0.936   7.771   5.287  0.5977  0.1151  0.2551
  229MOL    O1132387   0.822   7.762   5.370 -0.0148 -0.2518 -0.8010
  229MOL    H1232388   0.960   0.025   5.067 -1.4550 -3.2522 -1.0649
  229MOL    H1332389   0.809   0.096   5.133 -1.2758 -0.8290 -0.8934
  229MOL    H1432390   0.992   0.090   5.313 -1.6430  1.5695  0.1656
  229MOL    H1532391   0.989   7.676   5.300  1.1574  0.4723  0.6046
  229MOL    C1632392   0.841   0.031   5.507 -0.2223  0.6988  0.3895
  229MOL    C1732393   0.874   7.683   5.593 -0.6042  0.6443 -0.0994
  229MOL    O1832394   1.015   7.662   5.585 -0.0611 -0.1588  0.1705
  229MOL    H1932395   0.919   0.107   5.516  1.0981 -0.8652  2.7932
  229MOL    H2032396   0.753   0.091   5.531 -0.3536  1.0938 -1.0094
  229MOL    H2132397   0.813   7.599   5.560  0.8668 -0.2447 -0.6022
  229MOL    H2232398   0.845   7.710   5.694  0.9823  0.3849  0.4407
  229MOL    C2332399   1.070   7.574   5.674 -0.0781  0.4358 -0.6351
  229MOL    C2432400   1.213   7.546   5.619  0.2160 -0.5352 -0.6529
  229MOL    O2532401   1.278   7.467   5.725  0.2918  0.2219 -0.2109
  229MOL    H2632402   1.070   7.605   5.778 -2.0234  1.6633 -0.9606
  229MOL    H2732403   1.018   7.479   5.658 -0.3182  0.6780 -1.3514
  229MOL    H2832404   1.260   7.643   5.604 -0.5381  0.1141  1.0155
  229MOL    H2932405   1.211   7.489   5.527  0.6688 -2.2089  0.3574
  229MOL    C3032406   1.341   7.348   5.676  0.2566 -0.0225  0.0649
  229MOL    C3132407   1.427   7.290   5.792 -1.0005  0.3732  0.1981
  229MOL    O3232408   1.562   7.273   5.765 -0.0661  0.0300  0.1219
  229MOL    H3332409   1.269   7.272   5.646 -0.7710  1.2684 -0.7668
  229MOL    H3432410   1.408   7.367   5.591  2.1358 -1.8955  1.0569
  229MOL    H3532411   1.372   7.203   5.826 -0.3832 -0.4898 -0.9661
  229MOL    H3632412   1.433   7.364   5.872 -1.6073  0.3797  0.2387
  229MOL    C3732413   1.583   7.157   5.686  0.2652  0.0733  0.4418
  229MOL    C3832414   1.720   7.099   5.728  0.1262 -0.0309  0.6422
  229MOL    O3932415   1.711   7.059   5.865 -0.3940 -0.4764  0.0149
  229MOL    H4032416   1.506   7.082   5.706 -0.5808  1.0303  0.8156
  229MOL    H4132417   1.583   7.189   5.581  0.3316  0.6148  0.6046
  229MOL    H4232418   1.795   7.176   5.711  0.3380 -0.2252  0.7073
  229MOL    H4332419   1.745   7.015   5.663  1.1864  1.6365 -1.1490
  229MOL    C4432420   1.771   6.934   5.896  0.2702 -0.0418  0.1478
  229MOL    C4532421   1.752   6.908   6.046 -0.2298  0.0253 -0.2084
  229MOL    O4632422   1.854   6.952   6.139 -0.0685  0.8189  0.4071
  229MOL    H4732423   1.720   6.853   5.843  1.6417 -1.2510  0.6820
  229MOL    H4832424   1.875   6.929   5.866  0.1559 -0.4281 -0.1926
  229MOL    H4932425   1.757   6.800   6.058  1.9038  0.1445  0.2280
  229MOL    H5032426   1.659   6.943   6.092  0.9550  0.2356  2.1458
  229MOL    C5132427   1.897   7.085   6.129 -0.5462  0.3508 -0.7953
  229MOL    C5232428   1.993   7.127   6.240  0.2963  0.0499 -0.0181
  229MOL    O5332429   1.914   7.164   6.352 -0.6205  0.3588  0.0986
  229MOL    H5432430   1.941   7.106   6.032  2.6101 -0.4421  0.3990
  229MOL    H5532431   1.806   7.143   6.148  0.3054  1.8074 -1.1104
  229MOL    H5632432   2.048   7.218   6.220  0.0310 -0.2415 -2.2992
  229MOL    H5732433   2.071   7.053   6.260 -0.3736 -0.6771 -0.0577
  229MOL    C5832434   1.964   7.196   6.482  0.4822  0.8781 -0.5147
  229MOL    C5932435   1.974   7.066   6.563  0.5480 -0.2559 -0.0027
  229MOL    O6032436   2.086   6.993   6.521  0.1597  0.6057  0.4741
  229MOL    H6132437   2.049   7.264   6.472  1.1617  0.0459 -0.5309
  229MOL    H6232438   1.894   7.256   6.540  0.2177 -1.6203  1.8373
  229MOL    H6332439   1.877   7.016   6.563 -0.5962  1.8475  2.1559
  229MOL    H6432440   1.996   7.087   6.668  3.3182 -0.4580 -0.5133
  229MOL    C6532441   2.058   6.854   6.509 -0.1514 -0.6910 -0.4092
  229MOL    C6632442   2.044   6.784   6.652  0.2089  0.0003  0.4811
  229MOL    O6732443   2.013   6.650   6.626 -0.0534  0.2541 -0.6482
  229MOL    H6832444   1.971   6.830   6.448 -0.6523  0.6771 -0.2489
  229MOL    H6932445   2.143   6.818   6.452  0.1875  0.3733 -0.5890
  229MOL    H7032446   1.954   6.827   6.698 -0.9018 -0.0761 -1.5782
  229MOL    H7132447   2.124   6.805   6.723  0.2314  0.0396  0.4440
  229MOL    C7232448   1.954   6.567   6.731  0.3580 -0.0042  0.2486
  229MOL    C7332449   1.965   6.418   6.696  0.8191 -0.0743 -0.0959
  229MOL    O7432450   1.836   6.358   6.695  0.1878  1.1359  0.0641
  229MOL    H7532451   2.005   6.583   6.826  0.0050  1.0998  0.2568
  229MOL    H7632452   1.850   6.599   6.744  0.3223  0.3747 -0.9588
  229MOL    H7732453   2.031   6.378   6.774  0.5836  1.1957  0.7674
  229MOL    H7832454   2.017   6.410   6.601  0.8911  0.3989 -0.0951
  229MOL    C7932455   1.769   6.369   6.566 -0.5244 -0.2368  0.1011
  229MOL    C8032456   1.631   6.327   6.569  0.1746  0.2393  0.3133
  229MOL    O8132457   1.543   6.432   6.619  0.3749  0.0820 -0.3543
  229MOL    H8232458   1.783   6.467   6.520  0.7365 -0.1111  0.7170
  229MOL    H8332459   1.839   6.301   6.518 -0.6018  0.0507 -0.4214
  229MOL    H8432460   1.609   6.229   6.612 -0.8569  0.5471  0.5140
  229MOL    H8532461   1.596   6.324   6.466  1.4852  1.3453 -0.1856
  229MOL    C8632462   1.509   6.414   6.756 -0.5644  0.2071  0.5397
  229MOL    C8732463   1.404   6.514   6.796  0.7261 -0.1279  0.1450
  229MOL    O8832464   1.282   6.462   6.846 -0.1635  0.6083 -0.5433
  229MOL    H8932465   1.462   6.316   6.755 -0.6907  0.2586  1.4112
  229MOL    H9032466   1.590   6.413   6.830  0.0680  1.0677 -0.1242
  229MOL    H9132467   1.377   6.568   6.705 -3.1888 -0.9077  0.7591
  229MOL    H9232468   1.443   6.588   6.866 -0.2499  0.5288 -0.0013
  229MOL    C9332469   1.180   6.555   6.882 -0.0889 -0.2238 -0.1822
  229MOL    C9432470   1.049   6.468   6.864 -0.0940  0.4878 -0.5732
  229MOL    O9532471   1.018   6.448   6.726 -0.1973 -0.2962 -0.0940
  229MOL    H9632472   1.194   6.591   6.984  0.1323  0.4870 -0.4595
  229MOL    H9732473   1.168   6.645   6.821 -4.3404  0.2735  1.2214
  229MOL    H9832474   0.970   6.514   6.923 -0.9567 -0.0428 -1.3039
  229MOL    H9932475   1.066   6.374   6.916  0.2533  0.9389  0.1357
  229MOL   C10032476   0.880   6.407   6.706 -0.7305 -0.1599  0.1215
  229MOL   C10132477   0.771   6.511   6.735  1.5552  0.3378 -0.6153
  229MOL   O10232478   0.735   6.524   6.869  0.0020 -0.3964 -0.8417
  229MOL   H10332479   0.876   6.378   6.601 -0.6251  0.8794 -0.1742
  229MOL   H10432480   0.864   6.311   6.755  1.3341 -0.0047  1.1887
  229MOL   H10532481   0.681   6.480   6.681  1.1766 -2.2321  1.3767
  229MOL   H10632482   0.810   6.603   6.692  1.1782  1.3799  1.1834
  229MOL   C10732483   0.621   6.598   6.909 -0.0276 -1.3516  0.2227
  229MOL   C10832484   0.643   6.750   6.874  0.6849  0.3777  0.3893
  229MOL   O10932485   0.712   6.817   6.979 -0.1968  0.2935 -0.0337
  229MOL   H11032486   0.529   6.556   6.868 -1.3690  0.0143  1.7622
  229MOL   H11132487   0.616   6.593   7.017  0.6647  0.1474  0.3317
  229MOL   H11232488   0.551   6.806   6.860  1.1027  1.5539  2.1321
  229MOL   H11332489   0.689   6.769   6.777 -1.1086  2.7818 -0.0418
  229MOL   C11432490   0.858   6.793   6.983 -0.1755 -0.7471  0.2591
  229MOL   C11532491   0.934   6.909   6.899 -0.1423  0.3227 -0.1098
  229MOL   O11632492   0.993   6.858   6.781 -0.0644 -0.1396  0.0770
  229MOL   H11732493   0.888   6.799   7.087  0.5246  1.8700 -0.0391
  229MOL   H11832494   0.896   6.701   6.938 -1.6845 -1.5478  0.5740
  229MOL   H11932495   1.016   6.940   6.965 -1.9299  2.4386  1.1607
  229MOL   H12032496   0.869   6.993   6.878  2.3549  2.4343  0.3907
  229MOL   C12132497   1.084   6.947   6.714 -0.2389  0.5041 -0.3972
  229MOL   C12232498   1.176   6.881   6.601 -0.6159 -0.4039  0.5590
  229MOL   O12332499   1.110   6.851   6.483  0.4782  0.0805 -0.4527
  229MOL   H12432500   1.036   7.034   6.670  0.2379  0.9687 -0.0071
  229MOL   H12532501   1.156   6.983   6.788 -1.8161  1.0413  0.9043
  229MOL   H12632502   1.230   6.794   6.638  1.7823  0.4197 -0.9023
  229MOL   H12732503   1.248   6.958   6.574  0.7571 -2.3864 -1.6631
  229MOL   C12832504   1.004   6.758   6.493 -0.2607  0.2260 -0.4498
  229MOL   C12932505   0.872   6.832   6.455 -0.1264  0.3370  0.2293
  229MOL   O13032506   0.866   6.848   6.313 -0.0544 -0.2001  0.0969
  229MOL   H13132507   1.028   6.685   6.416  1.8884 -0.5069  0.8498
  229MOL   H13232508   1.000   6.704   6.588 -1.0404 -0.6813 -0.9961
  229MOL   H13332509   0.876   6.925   6.511  0.0979 -0.2963  1.2783
  229MOL   H13432510   0.789   6.775   6.498 -1.0300  1.0659 -0.5256
  229MOL   C13532511   0.761   6.936   6.283 -0.2830 -0.1089 -0.2055
  229MOL   C13632512   0.735   6.953   6.129 -0.5210  0.3850 -0.0941
  229MOL   O13732513   0.813   7.065   6.082 -0.0786  0.1537  0.3321
  229MOL   H13832514   0.674   6.891   6.332  0.1804 -1.3299 -0.4830
  229MOL   H13932515   0.773   7.034   6.329 -0.3366 -0.2580  0.1286
  229MOL   H14032516   0.630   6.956   6.100  0.1372 -0.2692 -2.7542
  229MOL   H14132517   0.769   6.860   6.083 -2.9458 -0.0173 -1.1444
  229MOL   H14232518   0.903   7.044   6.102 -0.3826  0.6251  2.2966
  230MOL     C132519   3.670   5.410   7.136 -0.6538 -0.5498  0.2083
  230MOL     C232520   3.806   5.391   7.071  0.1358  0.5450  0.9063
  230MOL     O332521   3.839   5.254   7.064 -0.0511 -0.0094  0.1074
  230MOL     H432522   3.663   5.513   7.170 -2.0064 -0.3175 -0.7106
  230MOL     H532523   3.647   5.350   7.224  3.1476 -0.8545  1.0795
  230MOL     H632524   3.879   5.437   7.138  0.1036  0.9174  0.6917
  230MOL     H732525   3.814   5.440   6.974 -1.6514  1.0865  1.0202
  230MOL     H832526   3.588   5.387   7.067 -0.6967  1.0086 -0.2901
  230MOL     C932527   3.927   5.227   6.960 -0.0423 -0.5799 -0.8335
  230MOL    C1032528   3.851   5.159   6.846  0.3942  0.4209 -0.4003
  230MOL    O1132529   3.798   5.265   6.763  0.3140 -0.0509 -0.7100
  230MOL    H1232530   3.986   5.314   6.931 -0.8626  0.4426  0.5790
  230MOL    H1332531   4.001   5.159   7.004 -0.7628  0.2847  1.7781
  230MOL    H1432532   3.778   5.084   6.876  1.4006 -0.4026  0.0436
  230MOL    H1532533   3.918   5.100   6.783  0.4026  0.2983 -0.2769
  230MOL    C1632534   3.729   5.228   6.653 -0.2979  0.0347  0.2418
  230MOL    C1732535   3.585   5.221   6.708 -0.4538 -0.3971 -0.5647
  230MOL    O1832536   3.533   5.348   6.728  0.2317 -0.2859 -0.2974
  230MOL    H1932537   3.745   5.292   6.567  0.2475 -0.6055 -0.1398
  230MOL    H2032538   3.761   5.129   6.619  0.6485  0.3224  0.2876
  230MOL    H2132539   3.586   5.162   6.799 -0.4144 -0.1613 -0.4122
  230MOL    H2232540   3.526   5.161   6.638  0.4045 -1.0952 -0.6954
  230MOL    C2332541   3.403   5.344   6.785 -0.3712  0.0893 -0.6014
  230MOL    C2432542   3.379   5.486   6.836  0.1137  0.0584  0.3547
  230MOL    O2532543   3.365   5.563   6.720 -0.1732 -0.1857 -0.5624
  230MOL    H2632544   3.328   5.314   6.713 -0.6330 -3.2640  0.9758
  230MOL    H2732545   3.401   5.277   6.871 -1.0362  1.1225  0.1932
  230MOL    H2832546   3.459   5.520   6.902 -0.7997  0.2132  1.3885
  230MOL    H2932547   3.290   5.472   6.897  0.5677  0.8683  1.2251
  230MOL    C3032548   3.314   5.702   6.737 -0.0977 -0.2300 -0.0428
  230MOL    C3132549   3.345   5.775   6.611 -0.0993  0.8719 -0.0521
  230MOL    O3232550   3.270   5.720   6.508 -0.0407  0.4716 -0.1386
  230MOL    H3332551   3.208   5.713   6.763 -0.4192 -1.5574 -0.7512
  230MOL    H3432552   3.369   5.753   6.817 -2.5369 -0.7534  2.0455
  230MOL    H3532553   3.450   5.768   6.583  0.1195  2.3367  0.3441
  230MOL    H3632554   3.317   5.878   6.631 -0.0502  1.0117 -0.6708
  230MOL    C3732555   3.302   5.769   6.383 -0.4253  0.3818 -0.0318
  230MOL    C3832556   3.242   5.685   6.272  0.1278  0.0583 -0.0089
  230MOL    O3932557   3.317   5.572   6.239 -0.2684 -0.0267 -0.2589
  230MOL    H4032558   3.262   5.870   6.378  0.3874  0.7201  0.2417
  230MOL    H4132559   3.408   5.786   6.363 -0.8712  2.6871 -0.5501
  230MOL    H4232560   3.236   5.745   6.181  2.9534 -0.6154 -0.6892
  230MOL    H4332561   3.148   5.653   6.315  1.5321 -1.4379  1.9882
  230MOL    C4432562   3.317   5.470   6.339 -0.5663 -0.1649 -0.0719
  230MOL    C4532563   3.338   5.329   6.280  0.7466  0.2520  0.2167
  230MOL    O4632564   3.226   5.301   6.212 -0.0674 -1.0555  0.8688
  230MOL    H4732565   3.391   5.488   6.417  0.7505  1.7246 -1.6799
  230MOL    H4832566   3.217   5.467   6.383 -0.3942 -0.7349  0.2672
  230MOL    H4932567   3.347   5.257   6.361  2.0909 -0.8131 -0.8518
  230MOL    H5032568   3.426   5.320   6.216  0.5386  1.7601 -0.3003
  230MOL    C5132569   3.218   5.177   6.141 -0.3457 -0.1284 -0.0600
  230MOL    C5232570   3.205   5.048   6.225  1.0916  0.2680  0.3640
  230MOL    O5332571   3.335   5.015   6.274  0.1216  0.5624  0.0182
  230MOL    H5432572   3.134   5.179   6.072  1.1463  0.8979 -1.8773
  230MOL    H5532573   3.305   5.173   6.075 -1.3633 -2.4777 -1.3060
  230MOL    H5632574   3.178   4.968   6.157  0.9315 -0.1288  0.8925
  230MOL    H5732575   3.132   5.046   6.306  0.0938  0.5950 -0.5182
  230MOL    C5832576   3.338   4.885   6.323  0.1165  0.0051 -0.2903
  230MOL    C5932577   3.289   4.876   6.472 -0.7304  0.2178 -0.2426
  230MOL    O6032578   3.147   4.903   6.497  0.1348  0.1295  0.3083
  230MOL    H6132579   3.298   4.807   6.259 -1.5443  0.5639  0.0527
  230MOL    H6232580   3.443   4.857   6.328 -0.5956 -2.7836  0.1146
  230MOL    H6332581   3.335   4.954   6.533  1.9383 -0.2968 -1.4836
  230MOL    H6432582   3.314   4.783   6.524  0.7635  1.9701  2.2797
  230MOL    C6532583   3.077   4.794   6.451  0.7887 -0.6451  0.1453
  230MOL    C6632584   3.001   4.750   6.577  0.0772  0.3147 -0.4727
  230MOL    O6732585   3.086   4.688   6.667 -0.1259  0.6901  0.0086
  230MOL    H6832586   3.002   4.809   6.373  0.5746  1.3867  0.6933
  230MOL    H6932587   3.132   4.708   6.413  0.9239 -0.8021  0.6935
  230MOL    H7032588   2.927   4.676   6.548 -0.3809  0.7146 -0.3318
  230MOL    H7132589   2.936   4.828   6.617 -1.6059 -2.4185  2.2987
  230MOL    C7232590   3.030   4.683   6.797  0.2420 -0.0316 -0.3388
  230MOL    C7332591   3.109   4.583   6.876  0.3738  0.1544  0.0919
  230MOL    O7432592   3.227   4.646   6.937  0.6387  0.2460  0.5576
  230MOL    H7532593   3.025   4.785   6.835  0.5496 -0.1831  0.1112
  230MOL    H7632594   2.926   4.653   6.783  0.1612 -0.5890  1.3988
  230MOL    H7732595   3.129   4.491   6.821 -0.4411 -0.5784  1.0156
  230MOL    H7832596   3.036   4.554   6.951 -0.4407  0.7657 -0.4489
  230MOL    C7932597   3.272   4.576   7.052 -0.0748  0.0654  0.6841
  230MOL    C8032598   3.311   4.433   7.023  0.1723  0.9892  0.4501
  230MOL    O8132599   3.209   4.332   6.993 -0.9534 -0.7212  0.0229
  230MOL    H8232600   3.363   4.627   7.081  0.4661 -0.3342 -0.2923
  230MOL    H8332601   3.213   4.581   7.144 -0.4380  0.7186  0.4166
  230MOL    H8432602   3.380   4.395   7.098  1.3556 -1.5628 -1.8022
  230MOL    H8532603   3.372   4.436   6.932 -1.0909 -0.6038 -0.4872
  230MOL    C8632604   3.262   4.201   7.015 -0.5269  1.0869  0.4824
  230MOL    C8732605   3.150   4.099   6.992 -0.5476 -0.0181 -0.0055
  230MOL    O8832606   3.131   4.096   6.854  0.6988 -0.1980  0.0795
  230MOL    H8932607   3.356   4.184   6.963 -0.5204  1.3467  0.4106
  230MOL    H9032608   3.290   4.178   7.118 -0.6792  0.1631  0.3230
  230MOL    H9132609   3.062   4.115   7.054 -1.1710 -0.3055 -0.8057
  230MOL    H9232610   3.184   3.999   7.018 -1.1948 -0.2728 -0.1446
  230MOL    C9332611   3.005   4.038   6.817 -0.6088  0.4629  0.2088
  230MOL    C9432612   3.006   4.021   6.672 -0.2968  0.5251  0.0913
  230MOL    O9532613   3.108   3.950   6.607 -0.0294  0.0240  0.2405
  230MOL    H9632614   2.997   3.939   6.862 -2.1341  0.4654 -0.0298
  230MOL    H9732615   2.912   4.074   6.860  0.5885  1.1636  2.3077
  230MOL    H9832616   3.014   4.122   6.634  2.4544  0.7382  1.1077
  230MOL    H9932617   2.910   3.979   6.643 -0.5995  1.2159  0.1040
  230MOL   C10032618   3.101   3.954   6.465  0.5402 -0.2008 -0.1160
  230MOL   C10132619   3.220   3.872   6.414 -0.2173 -0.4312 -0.2366
  230MOL   O10232620   3.202   3.728   6.436 -0.7445 -0.0430 -0.4095
  230MOL   H10332621   3.004   3.920   6.430 -0.9396  2.8863  0.8478
  230MOL   H10432622   3.107   4.053   6.421 -0.1921 -0.7152 -1.3910
  230MOL   H10532623   3.303   3.918   6.467 -1.6048  0.6422  1.0425
  230MOL   H10632624   3.232   3.892   6.308  1.7235  2.4874  0.4772
  230MOL   C10732625   3.302   3.648   6.373 -0.4594  0.0670 -0.3913
  230MOL   C10832626   3.297   3.503   6.431  0.2366  0.0291 -0.0524
  230MOL   O10932627   3.399   3.419   6.376  0.1843 -0.4222 -0.0787
  230MOL   H11032628   3.285   3.647   6.265  0.4278  1.4605 -0.5667
  230MOL   H11132629   3.404   3.681   6.391 -0.3540 -0.9371  0.8785
  230MOL   H11232630   3.197   3.470   6.402  0.5496 -0.8244 -0.1932
  230MOL   H11332631   3.316   3.514   6.538 -1.9214  0.8078  0.2593
  230MOL   C11432632   3.376   3.279   6.394 -1.3406  0.2087 -0.0129
  230MOL   C11532633   3.476   3.213   6.306  0.4155 -0.1005 -0.1118
  230MOL   O11632634   3.611   3.215   6.357  0.1567  0.0592  0.0420
  230MOL   H11732635   3.393   3.260   6.500 -1.3033  1.4189  0.2015
  230MOL   H11832636   3.275   3.242   6.374 -1.2673 -0.4187  0.7445
  230MOL   H11932637   3.458   3.246   6.204 -1.5722 -0.8149 -0.0109
  230MOL   H12032638   3.458   3.106   6.312 -0.5297  0.0195 -0.7864
  230MOL   C12132639   3.699   3.183   6.251  0.0897  0.5267 -0.5355
  230MOL   C12232640   3.843   3.147   6.297 -0.1325 -0.1393  0.2292
  230MOL   O12332641   3.922   3.099   6.185  0.1171  0.4098 -0.1294
  230MOL   H12432642   3.662   3.099   6.191 -1.1899  0.0504  0.8839
  230MOL   H12532643   3.707   3.265   6.179 -0.2900  2.0265  1.0829
  230MOL   H12632644   3.850   3.071   6.376 -0.7971  0.3087  0.7275
  230MOL   H12732645   3.884   3.237   6.344  0.0138 -0.8641  1.5230
  230MOL   C12832646   4.060   3.096   6.213  0.3842 -0.0521 -0.2756
  230MOL   C12932647   4.144   3.081   6.087 -0.5695  0.0377 -0.2595
  230MOL   O13032648   4.124   2.948   6.040  0.3018  0.1625  0.1019
  230MOL   H13132649   4.087   3.194   6.253  0.9165  0.2546 -1.3485
  230MOL   H13232650   4.092   3.028   6.291  0.5005 -0.6130 -0.8100
  230MOL   H13332651   4.251   3.097   6.105 -0.2637  1.3709 -3.0659
  230MOL   H13432652   4.116   3.153   6.010  1.5623  0.7571 -0.4019
  230MOL   C13532653   4.135   2.932   5.904 -0.4173 -0.4903 -0.2324
  230MOL   C13632654   4.150   2.787   5.869 -0.3669  0.3852  0.0073
  230MOL   O13732655   4.031   2.732   5.906 -0.1306 -0.0803 -0.0382
  230MOL   H13832656   4.049   2.977   5.855 -2.1065 -0.7175  2.3989
  230MOL   H13932657   4.226   2.988   5.880  0.6149 -2.4317 -1.0246
  230MOL   H14032658   4.221   2.729   5.928 -0.8321 -1.2816 -1.0406
  230MOL   H14132659   4.166   2.778   5.762 -0.2333  1.9902 -0.1157
  230MOL   H14232660   3.985   2.789   5.965  0.7773  2.1282 -1.3997
  231MOL     C132661   7.014   5.561   5.118  0.4804 -0.6162  0.2804
  231MOL     C232662   6.990   5.420   5.170 -0.6019  0.6139  0.4940
  231MOL     O332663   6.884   5.419   5.266 -0.1205  0.2852  0.2815
  231MOL     H432664   7.028   5.631   5.200 -0.8112  0.9242 -0.7988
  231MOL     H532665   6.922   5.589   5.068  0.4346 -0.3674  0.5033
  231MOL     H632666   7.085   5.378   5.201 -0.9166 -1.0211 -0.6714
  231MOL     H732667   6.948   5.361   5.089  0.8791 -1.5263  1.2393
  231MOL     H832668   7.095   5.560   5.045  2.6142  0.2558  2.5719
  231MOL     C932669   6.846   5.282   5.308 -0.7093 -0.1213 -0.2766
  231MOL    C1032670   6.779   5.294   5.446  0.2687  0.0418 -0.0405
  231MOL    O1132671   6.646   5.349   5.434  0.6661  0.0186  0.1232
  231MOL    H1232672   6.774   5.233   5.243  0.0973 -0.6508 -0.7915
  231MOL    H1332673   6.933   5.215   5.314 -0.8708 -0.1698  1.7410
  231MOL    H1432674   6.835   5.350   5.521 -0.6926  0.3452  0.4485
  231MOL    H1532675   6.787   5.193   5.487 -2.1925 -0.8706 -1.7201
  231MOL    C1632676   6.607   5.399   5.560 -0.0578 -0.4947  0.2049
  231MOL    C1732677   6.456   5.416   5.551  0.8734  0.1146  0.0157
  231MOL    O1832678   6.370   5.305   5.553  0.2678  0.4530  0.6181
  231MOL    H1932679   6.643   5.341   5.645  2.0321  1.1073  0.4352
  231MOL    H2032680   6.650   5.498   5.571 -0.4034 -0.2727 -0.3801
  231MOL    H2132681   6.426   5.485   5.471 -0.6084 -2.2025 -1.5118
  231MOL    H2232682   6.424   5.466   5.642  1.0383 -1.4636  0.9474
  231MOL    C2332683   6.233   5.335   5.552  0.4145  0.0786 -0.2823
  231MOL    C2432684   6.188   5.346   5.410 -0.5312 -0.3890 -0.5954
  231MOL    O2532685   6.151   5.223   5.345  0.2225  0.0956 -0.0836
  231MOL    H2632686   6.185   5.257   5.611  1.0291  1.1250  1.6738
  231MOL    H2732687   6.210   5.422   5.615  1.3436  0.3069 -0.2387
  231MOL    H2832688   6.262   5.406   5.357  1.1164 -0.9188  1.0513
  231MOL    H2932689   6.101   5.412   5.413 -1.7230 -1.9918  0.6187
  231MOL    C3032690   6.060   5.252   5.236 -0.1381  0.4132 -0.1864
  231MOL    C3132691   6.049   5.125   5.151  0.2923  0.1840 -0.4162
  231MOL    O3232692   5.959   5.042   5.218 -0.7692  0.2357 -0.1082
  231MOL    H3332693   5.957   5.281   5.257  0.3472  0.5464  2.0640
  231MOL    H3432694   6.106   5.324   5.168 -0.5564  0.2694 -0.6327
  231MOL    H3532695   6.144   5.093   5.108 -0.6878 -1.1185 -1.6555
  231MOL    H3632696   5.983   5.143   5.066 -0.0538 -2.7707 -0.8215
  231MOL    C3732697   6.024   4.934   5.282  0.2651  0.4051  0.4274
  231MOL    C3832698   5.920   4.837   5.339  0.1466  0.3197  0.3698
  231MOL    O3932699   5.932   4.709   5.280 -0.6738 -0.7345 -0.5710
  231MOL    H4032700   6.094   4.880   5.219 -1.2127  0.4333 -1.2751
  231MOL    H4132701   6.092   4.971   5.359  1.3176 -0.8212  0.1130
  231MOL    H4232702   5.816   4.864   5.317 -0.5639 -2.2073  0.5156
  231MOL    H4332703   5.930   4.825   5.447  1.8160  0.8812  0.2823
  231MOL    C4432704   5.825   4.621   5.319  0.6480 -0.0216 -0.2064
  231MOL    C4532705   5.850   4.491   5.236 -0.0338  0.2104  0.0723
  231MOL    O4632706   5.931   4.402   5.310  0.5199 -0.1929  0.1553
  231MOL    H4732707   5.823   4.597   5.426 -0.7306  0.9033 -0.0025
  231MOL    H4832708   5.730   4.672   5.299  1.9680  1.6986 -2.2111
  231MOL    H4932709   5.891   4.519   5.139 -0.8768  0.2382 -0.2771
  231MOL    H5032710   5.759   4.434   5.216  1.1684 -1.0459 -2.0039
  231MOL    C5132711   6.066   4.436   5.322 -0.9167  0.2364  0.0166
  231MOL    C5232712   6.157   4.309   5.347 -0.1546 -0.3372  0.2377
  231MOL    O5332713   6.153   4.248   5.484 -0.1136 -0.2725  0.7741
  231MOL    H5432714   6.099   4.489   5.233  1.4980 -0.7313  0.3112
  231MOL    H5532715   6.081   4.516   5.396  0.9974 -2.0937  2.2619
  231MOL    H5632716   6.253   4.355   5.327 -0.5046  0.6153  0.7294
  231MOL    H5732717   6.137   4.232   5.272  0.3343 -0.4246  0.1994
  231MOL    C5832718   6.029   4.185   5.499  0.4962 -0.9168 -0.5068
  231MOL    C5932719   6.031   4.094   5.623  0.0783  0.9320  0.1530
  231MOL    O6032720   6.018   4.162   5.747  0.3107  0.3721 -0.3422
  231MOL    H6132721   5.949   4.259   5.505  1.8312  0.5052  0.1191
  231MOL    H6232722   5.999   4.129   5.410 -0.2251 -0.6258 -0.4547
  231MOL    H6332723   6.110   4.019   5.622  0.9343  1.7464  2.1971
  231MOL    H6432724   5.937   4.040   5.613 -0.9199  2.5702  0.3698
  231MOL    C6532725   6.046   4.073   5.857 -0.0873 -0.0724 -0.2525
  231MOL    C6632726   6.026   4.139   5.993 -0.3976 -0.2183 -0.7464
  231MOL    O6732727   6.119   4.242   6.016 -0.6805 -0.1773 -0.2443
  231MOL    H6832728   5.974   3.991   5.855  0.4081 -0.4960 -1.0912
  231MOL    H6932729   6.142   4.021   5.850 -1.0283 -1.7801 -0.8547
  231MOL    H7032730   6.043   4.064   6.070  0.5986  0.9789  0.2367
  231MOL    H7132731   5.920   4.163   5.991 -0.2907  0.1599 -3.8246
  231MOL    C7232732   6.126   4.290   6.158  0.5402  0.6044  0.4544
  231MOL    C7332733   6.211   4.419   6.165 -0.4228  0.4990  0.0771
  231MOL    O7432734   6.348   4.384   6.159 -0.8631  0.0216  0.0254
  231MOL    H7532735   6.024   4.308   6.192 -1.0216 -2.1350 -2.5489
  231MOL    H7632736   6.175   4.215   6.219  0.1950 -0.9056 -1.0725
  231MOL    H7732737   6.203   4.459   6.266 -0.4396 -0.2435  0.3717
  231MOL    H7832738   6.168   4.490   6.094 -1.2572 -2.4921 -2.5750
  231MOL    C7932739   6.449   4.484   6.194  0.2782 -0.0244 -0.2915
  231MOL    C8032740   6.585   4.429   6.157 -0.0485 -0.3894  0.7943
  231MOL    O8132741   6.612   4.341   6.263 -0.6995 -0.3840 -0.0325
  231MOL    H8232742   6.414   4.574   6.144  0.2695  0.5838  0.7838
  231MOL    H8332743   6.444   4.502   6.301 -0.4887 -1.4542 -0.0735
  231MOL    H8432744   6.653   4.513   6.170 -0.2867 -0.1668  0.5943
  231MOL    H8532745   6.592   4.396   6.053  1.3772  0.9544  0.4562
  231MOL    C8632746   6.742   4.297   6.271 -0.1029  0.7758  0.0910
  231MOL    C8732747   6.747   4.203   6.396  0.2765  0.4718 -0.0589
  231MOL    O8832748   6.760   4.277   6.516 -0.4109 -0.0818  0.3701
  231MOL    H8932749   6.766   4.246   6.178  3.4572  0.6369  1.0078
  231MOL    H9032750   6.818   4.375   6.279 -0.0956  0.6865  1.0182
  231MOL    H9132751   6.829   4.131   6.388 -0.1282  0.0447 -0.3976
  231MOL    H9232752   6.653   4.150   6.405  0.4847  0.3437  1.4225
  231MOL    C9332753   6.751   4.211   6.637  0.1419 -0.4359 -0.1015
  231MOL    C9432754   6.840   4.281   6.739  0.7350 -0.2235 -0.1536
  231MOL    O9532755   6.785   4.409   6.776  0.5803  0.3093  0.8574
  231MOL    H9632756   6.649   4.192   6.670  0.3756  1.7718  2.0413
  231MOL    H9732757   6.800   4.116   6.613  0.8639  0.3372 -1.7677
  231MOL    H9832758   6.935   4.293   6.686 -0.3000  0.6097 -1.8525
  231MOL    H9932759   6.848   4.218   6.828 -1.2230  1.2776  1.1132
  231MOL   C10032760   6.847   4.460   6.888  0.0679  0.3854  0.0224
  231MOL   C10132761   6.788   4.596   6.928 -0.0313 -0.3850 -0.7365
  231MOL   O10232762   6.825   4.704   6.843 -0.0357 -0.1321 -0.4038
  231MOL   H10332763   6.823   4.390   6.969  0.7774 -2.0633 -1.8290
  231MOL   H10432764   6.955   4.467   6.881  0.3533 -4.0181 -1.0672
  231MOL   H10532765   6.836   4.621   7.023 -0.0848  2.1429 -1.3528
  231MOL   H10632766   6.680   4.605   6.944  0.3005  3.0300  0.0329
  231MOL   C10732767   6.811   4.837   6.893 -1.0523  0.2289 -0.3435
  231MOL   C10832768   6.858   4.917   6.777  0.9639 -0.0100 -0.2493
  231MOL   O10932769   6.998   4.931   6.778 -0.2371  0.6757  0.1845
  231MOL   H11032770   6.713   4.863   6.932 -2.1015  1.5734 -3.7008
  231MOL   H11132771   6.886   4.856   6.970 -2.2532 -1.3767  1.2536
  231MOL   H11232772   6.812   5.016   6.786  1.3491  0.0728  0.8085
  231MOL   H11332773   6.817   4.874   6.685  0.6351 -1.7321  0.6835
  231MOL   C11432774   7.050   5.016   6.678  0.2643 -0.1786  0.2769
  231MOL   C11532775   7.200   4.988   6.663 -0.4971 -0.6227 -0.4981
  231MOL   O11632776   7.269   5.091   6.739 -0.0098  0.9711  0.4944
  231MOL   H11732777   7.015   4.973   6.584  1.4620 -2.6413  0.9100
  231MOL   H11832778   7.023   5.121   6.684 -0.6517 -0.3902 -0.0095
  231MOL   H11932779   7.215   5.008   6.556 -2.9696 -0.1447 -0.8055
  231MOL   H12032780   7.219   4.885   6.692 -0.9462 -1.1987 -2.1708
  231MOL   C12132781   7.256   5.082   6.881  0.4307  0.3968  0.5520
  231MOL   C12232782   7.343   5.197   6.938  0.2445  0.2035  0.2007
  231MOL   O12332783   7.262   5.277   7.016  0.4380 -0.4151  0.0969
  231MOL   H12432784   7.150   5.085   6.906  0.3135 -0.3104  0.1546
  231MOL   H12532785   7.296   4.987   6.917  0.3785  0.0923 -0.1837
  231MOL   H12632786   7.371   5.268   6.859  0.5418 -1.0788 -0.8669
  231MOL   H12732787   7.442   5.171   6.975  1.3121 -0.2974 -2.8361
  231MOL   C12832788   7.334   5.368   7.096  0.4899 -0.2841  0.4474
  231MOL   C12932789   7.230   5.433   7.182  0.6819  0.2121  0.4073
  231MOL   O13032790   7.173   5.544   7.112  0.0165  0.2673  0.3450
  231MOL   H13132791   7.410   5.315   7.153 -1.4088 -2.2328  1.2221
  231MOL   H13232792   7.389   5.446   7.043 -2.4738  1.3401 -0.3395
  231MOL   H13332793   7.271   5.478   7.273  0.7327 -1.0098  1.0020
  231MOL   H13432794   7.155   5.362   7.215  0.1160  1.7560  2.5797
  231MOL   C13532795   7.063   5.599   7.187  0.2375  0.0349 -0.8960
  231MOL   C13632796   6.986   5.712   7.113 -0.3004  0.0277 -0.1376
  231MOL   O13732797   6.885   5.755   7.211  0.0764 -0.5444  0.0531
  231MOL   H13832798   6.988   5.522   7.204 -0.5634  0.8871 -0.4894
  231MOL   H13932799   7.102   5.637   7.281 -0.1085 -1.4250 -0.1633
  231MOL   H14032800   6.946   5.680   7.017  1.0892  1.1677 -1.1045
  231MOL   H14132801   7.053   5.797   7.103  0.0883 -0.2393  0.1746
  231MOL   H14232802   6.800   5.734   7.176  1.0606 -2.5319 -1.2463
  232MOL     C132803   1.370   1.298   1.764 -0.0314  0.1821  0.4465
  232MOL     C232804   1.410   1.406   1.868  0.6032 -0.0015 -0.3014
  232MOL     O332805   1.537   1.445   1.846 -0.5237  0.3765  0.2772
  232MOL     H432806   1.371   1.352   1.670  0.4172 -0.1400  0.2667
  232MOL     H532807   1.270   1.265   1.790 -0.5553  2.3698  1.3413
  232MOL     H632808   1.402   1.353   1.962 -0.5015 -0.7940 -0.8219
  232MOL     H732809   1.344   1.493   1.870  1.7130  0.8358  0.3639
  232MOL     H832810   1.444   1.218   1.763 -0.8400 -0.5514 -0.7985
  232MOL     C932811   1.578   1.557   1.920  0.2752 -0.3263 -0.3772
  232MOL    C1032812   1.694   1.634   1.851  0.5518 -0.1961 -0.5609
  232MOL    O1132813   1.816   1.561   1.864 -0.1764  0.1151  0.0611
  232MOL    H1232814   1.490   1.621   1.924 -0.1125 -0.8695 -0.1175
  232MOL    H1332815   1.603   1.539   2.024 -1.2317 -1.5202 -0.2138
  232MOL    H1432816   1.702   1.735   1.890  0.6683  0.2736 -1.7742
  232MOL    H1532817   1.669   1.652   1.747 -2.5198 -1.5164 -0.0915
  232MOL    C1632818   1.933   1.646   1.853  0.7650 -0.4937  0.7001
  232MOL    C1732819   2.065   1.568   1.870 -0.1135  0.5452 -0.1299
  232MOL    O1832820   2.100   1.519   1.751  0.3759 -0.2154  0.2689
  232MOL    H1932821   1.923   1.701   1.759 -1.0135 -0.6355  0.7880
  232MOL    H2032822   1.927   1.723   1.930 -2.1670  0.3192 -0.2553
  232MOL    H2132823   2.055   1.487   1.943  0.8650  2.9694  2.7753
  232MOL    H2232824   2.128   1.648   1.907 -0.4860  0.4821  0.6531
  232MOL    C2332825   2.223   1.447   1.747 -1.1746 -0.1543  0.9783
  232MOL    C2432826   2.243   1.387   1.599 -0.6012 -0.3522 -0.0033
  232MOL    O2532827   2.373   1.336   1.581 -0.4176 -0.2877  0.2324
  232MOL    H2632828   2.297   1.526   1.760  0.3213 -0.7062 -3.2724
  232MOL    H2732829   2.230   1.373   1.827 -0.0528 -3.5839 -2.1444
  232MOL    H2832830   2.225   1.472   1.534 -1.7490  0.3372  1.1884
  232MOL    H2932831   2.170   1.312   1.569 -2.6478  0.8630  1.7824
  232MOL    C3032832   2.424   1.333   1.447  0.3375  0.2197 -0.6033
  232MOL    C3132833   2.341   1.228   1.361  0.3480  0.2872 -0.4355
  232MOL    O3232834   2.221   1.293   1.329 -0.0584  0.3803 -0.2862
  232MOL    H3332835   2.428   1.429   1.396  1.4632 -0.3065 -1.5347
  232MOL    H3432836   2.525   1.296   1.465 -0.6350 -1.5559  1.5013
  232MOL    H3532837   2.317   1.139   1.418 -0.8831  0.8531 -0.0685
  232MOL    H3632838   2.397   1.206   1.269 -0.6227 -1.2252 -0.6919
  232MOL    C3732839   2.146   1.201   1.254  0.0998 -0.4395 -0.2138
  232MOL    C3832840   2.003   1.245   1.229 -0.0338 -0.1193  0.0484
  232MOL    O3932841   1.997   1.329   1.116  0.2431 -0.4756  0.6215
  232MOL    H4032842   2.202   1.181   1.163 -0.5720 -1.1194 -0.4857
  232MOL    H4132843   2.133   1.107   1.307 -1.3981  1.0987  2.2946
  232MOL    H4232844   1.962   1.287   1.321  1.2876  1.3541  0.0023
  232MOL    H4332845   1.947   1.156   1.202 -0.6207  0.3970 -0.4495
  232MOL    C4432846   1.884   1.412   1.126  0.8737 -0.7609  0.0085
  232MOL    C4532847   1.818   1.446   0.990 -0.1859 -0.0980 -0.7279
  232MOL    O4632848   1.864   1.579   0.957 -0.0749 -0.1548  0.2248
  232MOL    H4732849   1.804   1.350   1.168  0.3170 -0.1973 -0.2200
  232MOL    H4832850   1.910   1.499   1.186 -0.7498 -0.8648  0.8961
  232MOL    H4932851   1.710   1.435   0.994 -0.1414 -1.4667 -2.6732
  232MOL    H5032852   1.844   1.370   0.917 -1.0017 -0.9624 -0.1260
  232MOL    C5132853   1.779   1.645   0.854 -0.1027  0.1218  0.5368
  232MOL    C5232854   1.861   1.765   0.799  0.5975 -0.8915  0.5009
  232MOL    O5332855   1.774   1.836   0.716 -0.1744  0.4600 -0.0550
  232MOL    H5432856   1.750   1.578   0.773 -0.1348  2.2648 -1.2765
  232MOL    H5532857   1.688   1.678   0.903  0.3685 -1.2423  2.3967
  232MOL    H5632858   1.956   1.736   0.754  1.0430  1.3106 -0.0651
  232MOL    H5732859   1.894   1.830   0.880  0.3941  1.8992 -1.5535
  232MOL    C5832860   1.831   1.959   0.694  0.5493 -0.9192  0.2844
  232MOL    C5932861   1.781   2.062   0.796 -0.0701  0.3792  0.1915
  232MOL    O6032862   1.836   2.050   0.924 -0.2435 -0.1007 -0.1680
  232MOL    H6132863   1.939   1.953   0.680  0.6562  0.4210  0.4227
  232MOL    H6232864   1.793   1.994   0.598  1.5713 -1.7425 -0.4437
  232MOL    H6332865   1.673   2.060   0.783  0.0640 -1.0535 -0.8483
  232MOL    H6432866   1.800   2.162   0.758 -0.3165  1.1248  1.9757
  232MOL    C6532867   1.767   2.140   1.009  0.0554  0.2016 -0.4714
  232MOL    C6632868   1.837   2.138   1.144  0.7048  0.3437  0.3456
  232MOL    O6732869   1.825   2.018   1.219 -0.7129  0.1847 -0.7048
  232MOL    H6832870   1.769   2.240   0.965 -2.8924  0.4654 -0.1031
  232MOL    H6932871   1.663   2.107   1.017  0.0648 -0.0866 -1.4148
  232MOL    H7032872   1.793   2.216   1.207 -0.4268  0.7944 -0.9789
  232MOL    H7132873   1.940   2.163   1.117 -0.1756  1.5181 -2.0691
  232MOL    C7232874   1.847   1.903   1.141  0.7552 -0.9116 -0.3377
  232MOL    C7332875   1.868   1.797   1.251 -1.2259 -0.5652  0.4911
  232MOL    O7432876   1.977   1.827   1.334  0.1512 -0.3303  0.1054
  232MOL    H7532877   1.775   1.868   1.068  1.7491 -0.0509 -1.7367
  232MOL    H7632878   1.946   1.908   1.095  0.7422 -0.5303 -0.3187
  232MOL    H7732879   1.870   1.701   1.199 -0.7459  0.8283 -2.1702
  232MOL    H7832880   1.779   1.807   1.313 -0.7325 -0.3762  1.1625
  232MOL    C7932881   2.004   1.718   1.423 -0.2954  0.6816 -0.3153
  232MOL    C8032882   2.106   1.772   1.519  0.3144  0.3776 -0.1832
  232MOL    O8132883   2.230   1.742   1.455 -0.1719 -0.9895  0.1556
  232MOL    H8232884   1.919   1.689   1.485  1.2832  0.1766  1.6808
  232MOL    H8332885   2.052   1.636   1.370  0.2065 -0.4062  1.7491
  232MOL    H8432886   2.093   1.719   1.613 -0.2889 -0.1560 -0.5667
  232MOL    H8532887   2.101   1.881   1.526  0.2482  0.4210 -0.8616
  232MOL    C8632888   2.331   1.795   1.537 -0.8042  0.0484  0.0294
  232MOL    C8732889   2.468   1.751   1.470 -0.6321  0.4015 -0.7056
  232MOL    O8832890   2.565   1.799   1.564 -0.2976  0.2660 -0.2485
  232MOL    H8932891   2.315   1.903   1.547  0.7937  0.2801  0.2837
  232MOL    H9032892   2.312   1.745   1.632 -0.7827 -1.2687 -0.6524
  232MOL    H9132893   2.475   1.779   1.365 -1.2249  3.3122 -0.0349
  232MOL    H9232894   2.477   1.643   1.473 -0.6860  0.4248  1.9421
  232MOL    C9332895   2.702   1.781   1.523  0.5101 -0.0804  0.3693
  232MOL    C9432896   2.759   1.644   1.504  0.1799 -0.7378  0.6552
  232MOL    O9532897   2.730   1.580   1.380  0.1264  0.4822  0.0311
  232MOL    H9632898   2.723   1.850   1.441 -0.4926 -0.0751  0.1098
  232MOL    H9732899   2.760   1.826   1.603  2.2464 -1.2131 -0.2479
  232MOL    H9832900   2.718   1.586   1.586 -1.1928  1.7028  1.7622
  232MOL    H9932901   2.866   1.644   1.524  0.2429  0.9171  0.3981
  232MOL   C10032902   2.834   1.498   1.337  0.1612  0.0953 -0.3540
  232MOL   C10132903   2.799   1.421   1.204  0.3500  0.6077 -0.2417
  232MOL   O10232904   2.901   1.332   1.165  0.2726  0.2289 -0.0977
  232MOL   H10332905   2.931   1.544   1.315 -1.1722  3.2119  0.0966
  232MOL   H10432906   2.848   1.421   1.413 -0.1380 -0.4219 -0.8206
  232MOL   H10532907   2.785   1.488   1.118 -0.7196 -0.0100 -0.5591
  232MOL   H10632908   2.699   1.381   1.221 -0.1196  1.5936 -0.6043
  232MOL   C10732909   2.865   1.248   1.053  0.3090 -0.2688  0.6549
  232MOL   C10832910   2.969   1.139   1.047 -0.0003  0.2053  0.1625
  232MOL   O10932911   2.924   1.022   1.113 -0.0154 -0.1993  0.0739
  232MOL   H11032912   2.766   1.209   1.075 -0.3764  1.1588  0.1796
  232MOL   H11132913   2.866   1.301   0.958  2.2172 -0.5654  0.4875
  232MOL   H11232914   3.052   1.169   1.111 -1.9284  1.0816  2.3127
  232MOL   H11332915   2.999   1.124   0.943  0.6361 -0.3849  0.4209
  232MOL   C11432916   3.024   0.916   1.115  0.3001 -0.2052 -0.3266
  232MOL   C11532917   2.951   0.779   1.096 -0.1663 -0.3970 -0.0528
  232MOL   O11632918   2.938   0.731   0.963 -0.1741  0.1936  1.0396
  232MOL   H11732919   3.092   0.917   1.029  1.5107 -0.5467  0.6125
  232MOL   H11832920   3.088   0.924   1.202 -1.9701 -0.5666  1.4052
  232MOL   H11932921   2.852   0.780   1.142 -0.6037 -0.0796 -0.9879
  232MOL   H12032922   3.016   0.709   1.148 -0.4174  0.3544  1.3009
  232MOL   C12132923   2.913   0.589   0.955 -0.2020  0.0859  0.3427
  232MOL   C12232924   2.927   0.537   0.815 -0.2532  0.8433 -0.6422
  232MOL   O12332925   2.801   0.545   0.744 -0.1487  0.1702 -0.2161
  232MOL   H12432926   2.985   0.550   1.027  0.9444  0.6674 -0.4514
  232MOL   H12532927   2.814   0.567   0.992 -0.1517  1.5199  1.3845
  232MOL   H12632928   2.958   0.433   0.820  0.8893  1.2562  1.5827
  232MOL   H12732929   3.018   0.587   0.783 -0.0009 -1.0855 -3.0036
  232MOL   C12832930   2.831   0.489   0.617 -0.1895  0.3204  0.1446
  232MOL   C12932931   2.716   0.507   0.516 -1.0321  0.3860 -0.1823
  232MOL   O13032932   2.626   0.405   0.535 -0.2669  0.5097  0.1907
  232MOL   H13132933   2.918   0.530   0.566  0.5116  0.9031  1.7749
  232MOL   H13232934   2.855   0.384   0.632  0.7758  0.4249 -0.6152
  232MOL   H13332935   2.760   0.501   0.416  1.2016  0.4595  0.7690
  232MOL   H13432936   2.687   0.612   0.508 -0.3740  0.3640 -3.4783
  232MOL   C13532937   2.506   0.437   0.608 -0.7320 -0.0389 -0.0036
  232MOL   C13632938   2.493   0.335   0.714  0.3373 -0.2666 -0.5161
  232MOL   O13732939   2.467   0.202   0.670  0.1304 -0.1674 -0.0754
  232MOL   H13832940   2.517   0.532   0.661 -0.4044  0.1614 -0.4306
  232MOL   H13932941   2.421   0.455   0.542  1.6914  1.3024 -2.8932
  232MOL   H14032942   2.413   0.361   0.784  0.3271 -0.0817 -0.5967
  232MOL   H14132943   2.586   0.318   0.768 -0.8773  1.4833  2.2561
  232MOL   H14232944   2.397   0.217   0.609 -0.6393 -0.1404  0.8012
  233MOL     C132945   4.117   4.652   1.515 -1.0098 -0.0432  1.1181
  233MOL     C232946   4.110   4.620   1.364 -0.3271 -0.5632 -0.4169
  233MOL     O332947   4.229   4.565   1.316  0.2937  0.2125  0.0561
  233MOL     H432948   4.181   4.739   1.528 -3.0773  1.9026 -1.1932
  233MOL     H532949   4.163   4.571   1.573  0.7338  1.4903  1.9173
  233MOL     H632950   4.090   4.716   1.317  0.4762  0.1962  0.7707
  233MOL     H732951   4.029   4.550   1.342  0.2198 -1.7826  1.2772
  233MOL     H832952   4.016   4.673   1.549 -1.8821 -1.1528 -0.7319
  233MOL     C932953   4.332   4.660   1.283 -0.1722 -0.2852  0.6911
  233MOL    C1032954   4.463   4.587   1.250 -0.0072  0.1838 -0.5018
  233MOL    O1132955   4.567   4.596   1.348 -0.1530 -0.5704  0.4273
  233MOL    H1232956   4.280   4.695   1.193 -0.7984 -2.4901  0.1756
  233MOL    H1332957   4.339   4.749   1.346  1.3844  1.2220 -1.5303
  233MOL    H1432958   4.494   4.626   1.153  0.8694 -0.8904 -0.6746
  233MOL    H1532959   4.450   4.481   1.227  2.7644 -0.3189 -0.0211
  233MOL    C1632960   4.525   4.553   1.480 -0.1455 -0.5956 -0.4007
  233MOL    C1732961   4.545   4.403   1.482 -0.1919  0.0907 -0.3439
  233MOL    O1832962   4.450   4.332   1.398 -0.1751 -0.2447 -0.1141
  233MOL    H1932963   4.566   4.593   1.572  0.3996  0.1598 -0.9576
  233MOL    H2032964   4.420   4.574   1.499 -0.2739 -0.5191 -1.1502
  233MOL    H2132965   4.541   4.371   1.587  1.5233  2.9717  0.6583
  233MOL    H2232966   4.647   4.373   1.458 -0.0684 -0.9294  1.3723
  233MOL    C2332967   4.324   4.308   1.462 -0.1632  0.1179 -0.4035
  233MOL    C2432968   4.229   4.232   1.368 -0.9309 -0.5354 -0.3022
  233MOL    O2532969   4.115   4.167   1.438  0.1863  0.6239  0.1435
  233MOL    H2632970   4.341   4.265   1.560 -0.4313  0.4351 -0.2156
  233MOL    H2732971   4.278   4.403   1.490  0.8054  0.6416 -0.5791
  233MOL    H2832972   4.297   4.164   1.317  1.9150  0.1748  2.3783
  233MOL    H2932973   4.190   4.283   1.280  1.9115 -0.0539 -1.3514
  233MOL    C3032974   4.014   4.264   1.472 -0.2939  0.1066  0.2647
  233MOL    C3132975   3.904   4.199   1.556 -0.4134  0.1294  0.1715
  233MOL    O3232976   3.854   4.084   1.487  0.8055 -0.5301 -0.3779
  233MOL    H3332977   4.063   4.336   1.538 -2.8605  0.3585  1.9588
  233MOL    H3432978   3.975   4.311   1.382 -0.2042  0.2892  0.3205
  233MOL    H3532979   3.827   4.274   1.577  0.2526  1.2877 -1.3775
  233MOL    H3632980   3.951   4.162   1.647 -0.5317 -1.1918 -0.2925
  233MOL    C3732981   3.728   4.037   1.529 -0.2062  0.6210 -0.0242
  233MOL    C3832982   3.727   3.977   1.673  0.1161 -0.9324 -0.2622
  233MOL    O3932983   3.744   4.074   1.772 -0.0649  0.4233  0.0539
  233MOL    H4032984   3.638   4.094   1.507 -0.1717  0.3521 -0.8716
  233MOL    H4132985   3.703   3.951   1.468 -0.0398 -1.1068  2.2948
  233MOL    H4232986   3.814   3.914   1.688  0.3152 -0.6770 -0.3465
  233MOL    H4332987   3.636   3.922   1.697 -0.9204  0.0522 -1.8230
  233MOL    C4432988   3.723   4.030   1.905 -0.0660  0.1027  0.4448
  233MOL    C4532989   3.733   4.146   2.009  0.0695  0.6000 -0.6078
  233MOL    O4632990   3.621   4.226   2.022 -0.1203 -0.3469 -0.2871
  233MOL    H4732991   3.639   3.962   1.921  1.3366 -1.7363  0.1859
  233MOL    H4832992   3.808   3.963   1.919  0.2505  0.2786 -0.6014
  233MOL    H4932993   3.816   4.211   1.985 -0.5590  1.5528 -0.2432
  233MOL    H5032994   3.742   4.104   2.110 -2.4048 -0.4259 -0.7526
  233MOL    C5132995   3.620   4.322   2.126 -0.1962  0.1158 -0.3321
  233MOL    C5232996   3.485   4.387   2.118 -0.0390  0.3410 -0.5033
  233MOL    O5332997   3.497   4.509   2.042  0.0254  0.0145 -0.1544
  233MOL    H5432998   3.622   4.273   2.223 -1.6524 -1.2602 -0.9701
  233MOL    H5532999   3.699   4.397   2.124 -0.8677  0.8865 -4.4385
  233MOL    H5633000   3.448   4.428   2.212 -1.8148  3.5030 -2.4893
  233MOL    H5733001   3.410   4.314   2.089 -0.5226  0.0460  1.4628
  233MOL    C5833002   3.371   4.554   1.999 -0.2134 -0.3054  0.0066
  233MOL    C5933003   3.374   4.683   1.918  0.0496 -0.4281 -0.0795
  233MOL    O6033004   3.285   4.689   1.809  0.1895  0.1298  0.7781
  233MOL    H6133005   3.315   4.478   1.945 -0.5840  1.0387 -1.5460
  233MOL    H6233006   3.314   4.571   2.090 -0.3906  0.6653 -0.2892
  233MOL    H6333007   3.469   4.670   1.866  1.2679  0.4089  1.8872
  233MOL    H6433008   3.375   4.770   1.985 -2.0325  0.1970 -0.7972
  233MOL    C6533009   3.152   4.719   1.847 -0.3097  0.0739 -0.0452
  233MOL    C6633010   3.067   4.593   1.837  0.4565  0.4326  0.1110
  233MOL    O6733011   3.066   4.540   1.967  0.4469 -0.0291  0.2780
  233MOL    H6833012   3.148   4.771   1.942 -1.2129  0.9228 -0.5355
  233MOL    H6933013   3.116   4.785   1.768 -0.6383 -0.9044 -0.7262
  233MOL    H7033014   3.110   4.517   1.772 -2.0021 -1.9824  1.1695
  233MOL    H7133015   2.969   4.626   1.802  0.9693  0.5217 -1.2983
  233MOL    C7233016   3.013   4.410   1.971  0.5994 -1.0389 -0.2594
  233MOL    C7333017   2.973   4.373   2.122 -0.3733  0.3078 -0.3520
  233MOL    O7433018   3.094   4.348   2.188  0.5210  0.1897 -0.1569
  233MOL    H7533019   2.928   4.395   1.905 -0.6933 -2.2660  1.6435
  233MOL    H7633020   3.077   4.333   1.930 -1.0055 -2.8437  0.5588
  233MOL    H7733021   2.912   4.283   2.114  1.1534 -0.6826 -0.9212
  233MOL    H7833022   2.902   4.444   2.166 -0.2643  0.5909 -0.6273
  233MOL    C7933023   3.092   4.266   2.308 -0.3619  0.0737  0.0860
  233MOL    C8033024   3.233   4.281   2.378  0.5273 -0.3733  0.0637
  233MOL    O8133025   3.238   4.412   2.438  0.1502  0.3218 -0.2594
  233MOL    H8233026   3.011   4.305   2.370 -0.1839 -1.4727  1.3497
  233MOL    H8333027   3.072   4.163   2.278 -0.4302 -0.8503  3.1156
  233MOL    H8433028   3.300   4.262   2.295  1.5940 -0.9299  1.0419
  233MOL    H8533029   3.242   4.210   2.460  1.4884  0.6915  0.9125
  233MOL    C8633030   3.366   4.437   2.500  0.1320 -0.1609  0.6186
  233MOL    C8733031   3.382   4.585   2.556 -0.5376  0.1028  0.9232
  233MOL    O8833032   3.283   4.642   2.639  0.1722 -0.0181 -0.4588
  233MOL    H8933033   3.373   4.360   2.577 -0.2091 -3.1166 -2.1981
  233MOL    H9033034   3.454   4.421   2.438 -0.5581  1.0434 -0.6976
  233MOL    H9133035   3.399   4.651   2.470  0.9767  0.6557  1.6256
  233MOL    H9233036   3.470   4.604   2.618  0.2334 -0.0904 -0.0791
  233MOL    C9333037   3.255   4.565   2.762 -0.3703 -0.4489 -0.1837
  233MOL    C9433038   3.186   4.654   2.865 -0.1948  0.1825  0.3726
  233MOL    O9533039   3.280   4.743   2.927 -0.0153  0.2963 -0.3879
  233MOL    H9633040   3.193   4.480   2.733 -0.2716 -0.7822  0.5840
  233MOL    H9733041   3.348   4.519   2.795  0.5096  0.0775 -1.8402
  233MOL    H9833042   3.149   4.588   2.944  1.0986 -1.1298 -0.0843
  233MOL    H9933043   3.102   4.710   2.824  0.0746 -0.0050 -0.4441
  233MOL   C10033044   3.214   4.829   3.026  0.0573 -0.4152 -0.0682
  233MOL   C10133045   3.315   4.931   3.092  0.1677 -0.2681 -0.3885
  233MOL   O10233046   3.408   4.857   3.177  0.2047 -0.4037  0.1394
  233MOL   H10333047   3.130   4.887   2.987 -1.4184 -0.9151  2.2725
  233MOL   H10433048   3.164   4.771   3.103  0.7051  0.6247  1.1486
  233MOL   H10533049   3.270   5.015   3.143 -0.1372 -0.2484 -0.6856
  233MOL   H10633050   3.365   4.963   3.000  1.1512 -2.5815 -0.7011
  233MOL   C10733051   3.513   4.931   3.232  1.3037 -0.6955 -1.0243
  233MOL   C10833052   3.639   4.848   3.268 -0.4047  0.4416  0.6509
  233MOL   O10933053   3.606   4.746   3.364 -0.2268 -0.3141 -0.5117
  233MOL   H11033054   3.544   5.010   3.164 -0.6929  2.9967  2.1888
  233MOL   H11133055   3.479   4.969   3.328  0.9025 -1.0106 -1.0371
  233MOL   H11233056   3.712   4.916   3.309  2.1581 -0.7958 -1.6877
  233MOL   H11333057   3.683   4.809   3.176  0.6077 -0.2951  1.4466
  233MOL   C11433058   3.715   4.672   3.410 -0.5687  0.3088  0.5867
  233MOL   C11533059   3.711   4.694   3.560  0.0253  0.7863 -0.4111
  233MOL   O11633060   3.706   4.830   3.589 -1.1390 -0.9624 -0.0883
  233MOL   H11733061   3.704   4.568   3.379  1.9377  0.4624 -0.9671
  233MOL   H11833062   3.796   4.720   3.355  0.1362 -0.8943  0.5454
  233MOL   H11933063   3.806   4.655   3.597 -0.1436  0.8422  0.0986
  233MOL   H12033064   3.632   4.641   3.614  1.0505  1.2116  1.5629
  233MOL   C12133065   3.583   4.889   3.626  0.0795  0.0096 -0.4090
  233MOL   C12233066   3.601   5.039   3.650 -0.0869 -0.2089 -0.1793
  233MOL   O12333067   3.596   5.091   3.523 -0.5820 -0.0901  0.7497
  233MOL   H12433068   3.494   4.854   3.574 -1.0062 -1.1297  2.1700
  233MOL   H12533069   3.568   4.841   3.722  2.5517 -0.4110 -0.2101
  233MOL   H12633070   3.687   5.058   3.714 -2.9736 -0.6807  4.1018
  233MOL   H12733071   3.516   5.080   3.706 -0.9042 -1.5237 -0.4337
  233MOL   C12833072   3.615   5.228   3.529  0.3488 -0.2205  0.4701
  233MOL   C12933073   3.616   5.289   3.385 -0.9068  0.0127 -0.3362
  233MOL   O13033074   3.500   5.261   3.308 -0.1049  0.2146 -0.5774
  233MOL   H13133075   3.533   5.272   3.587  0.6764  2.8862 -1.2850
  233MOL   H13233076   3.702   5.259   3.587  0.6737  1.1979 -0.7380
  233MOL   H13333077   3.710   5.261   3.338 -1.0092 -3.6637  1.4902
  233MOL   H13433078   3.625   5.397   3.401  0.2050  0.1232 -1.6325
  233MOL   C13533079   3.522   5.307   3.172 -0.0479  0.6048 -0.3721
  233MOL   C13633080   3.383   5.339   3.109  0.1288 -0.8872 -0.7409
  233MOL   O13733081   3.407   5.395   2.984  0.0222  0.0724  0.4100
  233MOL   H13833082   3.590   5.393   3.172  0.3230  0.3782 -3.4876
  233MOL   H13933083   3.569   5.227   3.116 -1.5947 -0.0423 -0.7778
  233MOL   H14033084   3.343   5.409   3.182 -2.5693 -0.3428 -2.6623
  233MOL   H14133085   3.306   5.262   3.116 -2.5426  1.8533  1.2351
  233MOL   H14233086   3.415   5.489   2.990 -1.2676  0.1226  1.6119
  234MOL     C133087   4.092   2.560   4.518 -0.0904 -0.5828  0.5087
  234MOL     C233088   3.955   2.618   4.568 -0.1718  0.2621  0.1032
  234MOL     O333089   3.860   2.515   4.548  0.2664  0.1762  0.1234
  234MOL     H433090   4.165   2.635   4.487  0.8991 -1.4108  0.7944
  234MOL     H533091   4.072   2.481   4.445 -1.3323  0.0879  0.1102
  234MOL     H633092   3.927   2.705   4.509  1.0395  1.2093  0.9189
  234MOL     H733093   3.963   2.658   4.669 -2.9052  0.2075  0.3936
  234MOL     H833094   4.137   2.507   4.602  1.6057 -0.0066 -0.0163
  234MOL     C933095   3.729   2.558   4.596  0.4200  0.4922  0.5365
  234MOL    C1033096   3.710   2.508   4.739 -0.0488  0.4070 -0.5169
  234MOL    O1133097   3.778   2.600   4.829  0.0103  0.3426  0.6255
  234MOL    H1233098   3.718   2.664   4.577  0.7118  0.6115  1.0114
  234MOL    H1333099   3.656   2.517   4.526 -0.2151  1.4312  0.6462
  234MOL    H1433100   3.742   2.404   4.751 -0.2899  0.5321  1.5379
  234MOL    H1533101   3.603   2.499   4.757  0.2263  0.1264  1.0809
  234MOL    C1633102   3.835   2.544   4.945 -0.0380 -0.0851 -0.0322
  234MOL    C1733103   3.888   2.657   5.035  0.3193 -0.0544  0.1661
  234MOL    O1833104   3.998   2.599   5.110 -0.0160  0.0029  0.1183
  234MOL    H1933105   3.762   2.475   4.987 -0.5039  0.1105 -0.5319
  234MOL    H2033106   3.908   2.472   4.907  1.1145  0.5312  0.9563
  234MOL    H2133107   3.807   2.692   5.099  1.1645 -0.4539  1.4794
  234MOL    H2233108   3.927   2.743   4.981 -1.0062  0.8335  0.5969
  234MOL    C2333109   4.041   2.690   5.214  0.5690 -0.1038 -0.4402
  234MOL    C2433110   4.084   2.832   5.173  0.5777  0.3034 -0.6845
  234MOL    O2533111   3.980   2.930   5.149 -0.3236  0.6729  0.3682
  234MOL    H2633112   3.961   2.697   5.287 -1.0703 -1.6819 -2.0370
  234MOL    H2733113   4.126   2.646   5.266  0.6221  0.3035 -0.1856
  234MOL    H2833114   4.164   2.816   5.101  2.6546 -1.2072  1.8721
  234MOL    H2933115   4.131   2.880   5.259  2.4544 -0.3553 -1.3293
  234MOL    C3033116   4.034   3.040   5.080  0.4826  1.0945 -0.0526
  234MOL    C3133117   3.944   3.077   4.964 -0.1924  0.1121  0.1854
  234MOL    O3233118   3.978   2.980   4.861 -0.2323  0.2892  0.0244
  234MOL    H3333119   4.035   3.124   5.149  1.6734  0.8208  0.2833
  234MOL    H3433120   4.137   3.027   5.045  0.5487  0.0556  0.4877
  234MOL    H3533121   3.950   3.181   4.931  0.3103  0.8556  2.5333
  234MOL    H3633122   3.839   3.074   4.993 -0.6197  1.8370 -1.0619
  234MOL    C3733123   3.900   2.991   4.748 -0.2018  0.5375 -0.0877
  234MOL    C3833124   3.982   3.029   4.625 -0.7386 -0.5406  0.1175
  234MOL    O3933125   4.066   2.916   4.601  0.0559 -0.6794 -0.8398
  234MOL    H4033126   3.861   2.890   4.734 -1.8389  1.1795 -0.1504
  234MOL    H4133127   3.812   3.054   4.757 -2.2910 -1.9444 -2.3062
  234MOL    H4233128   4.041   3.120   4.635 -0.7819 -0.5537  0.4866
  234MOL    H4333129   3.912   3.048   4.543  1.1784  3.6210 -0.6872
  234MOL    C4433130   4.175   2.941   4.513  0.6418 -0.1944 -0.6115
  234MOL    C4533131   4.120   2.910   4.372 -0.2397  0.7610  0.5445
  234MOL    O4633132   4.070   3.027   4.308 -0.4610 -0.3878  0.2418
  234MOL    H4733133   4.220   3.039   4.497  0.9885 -0.1670  0.4863
  234MOL    H4833134   4.259   2.878   4.542  3.0436  2.9595 -0.4080
  234MOL    H4933135   4.043   2.833   4.379 -1.7769  1.9971 -1.9756
  234MOL    H5033136   4.201   2.877   4.307  0.5235  0.4501  1.6508
  234MOL    C5133137   3.978   3.004   4.200 -0.3429 -0.1656 -0.9594
  234MOL    C5233138   4.031   2.948   4.069 -0.0463  0.7946  0.6091
  234MOL    O5333139   4.056   2.811   4.088  0.1917 -0.9315 -0.4682
  234MOL    H5433140   3.889   2.960   4.245 -0.1436  0.0264 -0.3732
  234MOL    H5533141   3.931   3.100   4.183  0.5381  0.6824  1.1669
  234MOL    H5633142   4.120   3.001   4.034 -1.2659  2.8390  0.5089
  234MOL    H5733143   3.959   2.955   3.988  0.7760  1.2113 -0.0966
  234MOL    C5833144   4.086   2.734   3.972 -0.0862 -0.6571 -0.1418
  234MOL    C5933145   4.114   2.588   4.004  1.1082  0.8520  0.0995
  234MOL    O6033146   4.239   2.558   4.064 -0.0438 -0.1531  0.2995
  234MOL    H6133147   4.009   2.755   3.898  0.8412  1.8601 -0.4582
  234MOL    H6233148   4.169   2.785   3.923 -1.0464  1.6963  0.5823
  234MOL    H6333149   4.097   2.524   3.917  1.1688 -0.4066  1.0042
  234MOL    H6433150   4.047   2.558   4.084  1.1583 -3.5114 -1.3773
  234MOL    C6533151   4.274   2.641   4.175 -0.1068 -0.5294 -0.4792
  234MOL    C6633152   4.404   2.594   4.241 -0.0394  0.5018  0.4816
  234MOL    O6733153   4.458   2.712   4.301  0.1077 -0.6523 -0.5210
  234MOL    H6833154   4.282   2.737   4.124 -1.3243 -0.7450 -1.1059
  234MOL    H6933155   4.198   2.644   4.253  0.9209 -1.6771  0.5820
  234MOL    H7033156   4.470   2.542   4.172 -0.0531  1.8421 -0.5684
  234MOL    H7133157   4.390   2.510   4.308  0.2270  1.7908  2.1957
  234MOL    C7233158   4.569   2.688   4.377  0.3663  0.4545  0.0298
  234MOL    C7333159   4.537   2.651   4.522 -0.7665  0.2764  0.2362
  234MOL    O7433160   4.655   2.629   4.593  0.2401 -0.1297 -0.2315
  234MOL    H7533161   4.635   2.613   4.333  0.0320  0.7056 -0.8963
  234MOL    H7633162   4.625   2.780   4.395  1.3108 -0.3771  1.4095
  234MOL    H7733163   4.482   2.558   4.536 -1.2911  0.7396  1.3011
  234MOL    H7833164   4.474   2.729   4.563 -2.3619 -0.0731 -1.5131
  234MOL    C7933165   4.636   2.576   4.724  0.1357  1.1588 -0.2127
  234MOL    C8033166   4.767   2.553   4.804 -0.5788 -0.2996 -0.4065
  234MOL    O8133167   4.851   2.666   4.805 -0.1596  0.0587  0.2285
  234MOL    H8233168   4.575   2.655   4.768 -1.9273 -0.4524 -0.1319
  234MOL    H8333169   4.588   2.479   4.729  0.4234  1.0984  1.9169
  234MOL    H8433170   4.819   2.463   4.772  0.7978  1.5187 -3.4792
  234MOL    H8533171   4.746   2.528   4.908  0.1835 -0.0103 -0.1835
  234MOL    C8633172   4.981   2.641   4.849  0.2798  0.5555 -0.3872
  234MOL    C8733173   5.058   2.778   4.864  0.4364 -0.8413  0.0865
  234MOL    O8833174   5.068   2.823   4.728  0.0807 -0.1551 -0.8205
  234MOL    H8933175   4.975   2.588   4.944  1.0203  0.4567 -0.3881
  234MOL    H9033176   5.039   2.590   4.771 -1.7404 -0.3865 -1.3032
  234MOL    H9133177   5.151   2.745   4.910  0.7495 -0.9264 -0.6006
  234MOL    H9233178   5.019   2.847   4.939  2.5249 -1.7402  2.0716
  234MOL    C9333179   5.186   2.887   4.695  0.1053 -0.2169  0.1367
  234MOL    C9433180   5.199   3.018   4.763 -0.1636 -0.1073  0.1145
  234MOL    O9533181   5.242   3.001   4.891  0.4175  0.3517 -0.1765
  234MOL    H9633182   5.272   2.826   4.719  0.2589 -0.5755 -1.3031
  234MOL    H9733183   5.174   2.892   4.586  1.3253 -2.0068 -0.0940
  234MOL    H9833184   5.117   3.086   4.738 -1.0242 -0.2514  2.4803
  234MOL    H9933185   5.284   3.071   4.720 -0.5573  0.4566  0.0198
  234MOL   C10033186   5.232   3.122   4.975 -0.7192 -0.1499 -0.1728
  234MOL   C10133187   5.281   3.080   5.113  0.2355 -0.3014  0.2841
  234MOL   O10233188   5.415   3.125   5.139 -0.1603 -0.1472 -0.0310
  234MOL   H10333189   5.283   3.215   4.951 -0.2502 -0.0378  1.2278
  234MOL   H10433190   5.126   3.148   4.985 -0.7049 -0.1258 -0.0813
  234MOL   H10533191   5.276   2.971   5.124  2.9616 -0.5735 -0.7241
  234MOL   H10633192   5.211   3.126   5.182  1.0691  0.5788  0.5541
  234MOL   C10733193   5.453   3.075   5.265  0.1114  0.2264 -0.1421
  234MOL   C10833194   5.592   3.144   5.314 -0.3046 -0.2225 -0.1012
  234MOL   O10933195   5.689   3.058   5.377 -0.3331 -0.0241  0.4780
  234MOL   H11033196   5.378   3.084   5.344 -0.0489 -2.2354  0.0061
  234MOL   H11133197   5.479   2.970   5.254  1.7495  0.7061 -1.1321
  234MOL   H11233198   5.571   3.226   5.382  0.1713 -0.7264  0.6647
  234MOL   H11333199   5.640   3.183   5.225 -0.8872  0.3559 -0.1610
  234MOL   C11433200   5.798   3.126   5.437  0.3997 -0.1221 -0.5585
  234MOL   C11533201   5.887   3.027   5.509 -0.0766  0.0348 -0.0212
  234MOL   O11633202   5.942   2.936   5.415  0.0288  0.2984  0.0774
  234MOL   H11733203   5.852   3.181   5.360 -0.8638  1.0022 -0.6438
  234MOL   H11833204   5.771   3.191   5.519 -1.4133 -0.7918 -0.6000
  234MOL   H11933205   5.842   2.983   5.599 -0.4187  1.4257  0.4922
  234MOL   H12033206   5.968   3.080   5.559 -1.4076  1.7883  0.3015
  234MOL   C12133207   5.991   2.818   5.471 -0.2039  0.2590  0.2682
  234MOL   C12233208   6.088   2.815   5.587  0.2174 -0.3646 -0.0552
  234MOL   O12333209   6.025   2.828   5.712 -0.1587 -0.6056 -0.2152
  234MOL   H12433210   5.913   2.743   5.480 -0.1885  0.4454  2.0943
  234MOL   H12533211   6.054   2.788   5.388  3.8331  0.4213  3.1102
  234MOL   H12633212   6.154   2.903   5.582  1.6748 -1.5134 -1.8310
  234MOL   H12733213   6.147   2.724   5.590 -0.0887 -0.5433  0.5059
  234MOL   C12833214   6.112   2.867   5.818 -0.4814 -0.6130 -0.1716
  234MOL   C12933215   6.078   2.790   5.957  0.3366 -0.9313  0.0269
  234MOL   O13033216   5.995   2.862   6.051  0.0255  0.3345  0.7693
  234MOL   H13133217   6.213   2.829   5.810 -0.1166  0.4476 -0.6136
  234MOL   H13233218   6.108   2.975   5.831  0.6546 -0.6920  0.9165
  234MOL   H13333219   6.171   2.762   6.006  1.9597 -0.8451 -2.8862
  234MOL   H13433220   6.044   2.689   5.932 -0.4410 -1.1648  1.9068
  234MOL   C13533221   5.953   2.771   6.154  0.4162  0.1111  0.2689
  234MOL   C13633222   5.843   2.828   6.234 -0.0087 -0.5045  0.3536
  234MOL   O13733223   5.885   2.954   6.286  0.3269  0.2249  0.1542
  234MOL   H13833224   5.910   2.681   6.111 -1.3035  0.2044  1.7474
  234MOL   H13933225   6.037   2.753   6.221  0.4024  0.0893  0.2804
  234MOL   H14033226   5.829   2.758   6.317 -3.4442  0.8442  1.0084
  234MOL   H14133227   5.746   2.839   6.186  0.6203 -0.8346 -1.0321
  234MOL   H14233228   5.928   2.994   6.212 -0.4312 -1.1493 -1.0734
  235MOL     C133229   3.905   4.551   3.817 -0.4158 -0.5878  0.0931
  235MOL     C233230   3.950   4.615   3.946  0.0469 -0.1952  0.5996
  235MOL     O333231   3.889   4.543   4.052 -0.1156  0.4334  0.2376
  235MOL     H433232   3.916   4.443   3.825  0.1588 -0.4880  0.7660
  235MOL     H533233   3.961   4.579   3.728 -1.0085 -0.0428 -0.1075
  235MOL     H633234   3.939   4.724   3.950  0.4732 -0.0716 -1.4003
  235MOL     H733235   4.058   4.601   3.954  0.1566  0.5606  0.4879
  235MOL     H833236   3.797   4.567   3.818 -0.3709 -0.2711  1.7630
  235MOL     C933237   3.949   4.564   4.179 -0.1619 -0.3905  0.1373
  235MOL    C1033238   3.936   4.711   4.240 -0.7382 -0.3082  0.2940
  235MOL    O1133239   4.050   4.781   4.193 -0.2007 -0.4014  0.3284
  235MOL    H1233240   3.907   4.495   4.253 -0.9325 -0.3318 -0.2516
  235MOL    H1333241   4.054   4.536   4.172 -0.2343 -0.6875  0.2190
  235MOL    H1433242   3.945   4.698   4.348  1.7857 -0.4368  0.0915
  235MOL    H1533243   3.844   4.769   4.232  1.0382  2.7566  1.0594
  235MOL    C1633244   4.033   4.920   4.190 -0.0658 -0.4707 -0.4852
  235MOL    C1733245   4.167   4.995   4.196 -0.2035 -0.7640  0.2737
  235MOL    O1833246   4.215   4.989   4.335  0.2489  0.1751 -0.1626
  235MOL    H1933247   3.988   4.932   4.092 -2.7629 -0.6119  0.6902
  235MOL    H2033248   3.976   4.967   4.270  1.5852 -1.4794  1.3349
  235MOL    H2133249   4.156   5.100   4.167  0.4239  0.3469  3.8455
  235MOL    H2233250   4.242   4.951   4.131  0.5516 -0.0707  0.6571
  235MOL    C2333251   4.290   4.879   4.391 -0.1314 -0.1874  0.5821
  235MOL    C2433252   4.350   4.918   4.520  0.4222 -0.2294 -0.4058
  235MOL    O2533253   4.249   4.934   4.622 -0.3073 -0.2563  0.8371
  235MOL    H2633254   4.243   4.782   4.408  2.7909 -2.0018 -1.3336
  235MOL    H2733255   4.368   4.856   4.319 -0.1484  0.3326  0.3935
  235MOL    H2833256   4.402   5.008   4.489  0.1293  0.8836  2.2455
  235MOL    H2933257   4.409   4.829   4.539 -0.9121 -1.1037 -0.2558
  235MOL    C3033258   4.294   5.021   4.719 -0.5002 -0.2264 -0.0577
  235MOL    C3133259   4.181   5.059   4.815 -0.0226 -0.2117  0.0204
  235MOL    O3233260   4.120   5.176   4.763  0.4032  0.5692 -0.8211
  235MOL    H3333261   4.370   4.977   4.783  0.4803  1.6817  0.1227
  235MOL    H3433262   4.328   5.109   4.664  0.0525  0.3416  1.1807
  235MOL    H3533263   4.217   5.077   4.916  2.0408  2.4717 -1.1424
  235MOL    H3633264   4.106   4.980   4.824  1.1147 -1.3208 -0.1574
  235MOL    C3733265   4.020   5.228   4.848 -0.6423  0.0730  0.1774
  235MOL    C3833266   3.980   5.364   4.788  0.9615 -0.0307 -0.6636
  235MOL    O3933267   3.892   5.435   4.868  0.3551  0.6455  0.0902
  235MOL    H4033268   3.934   5.162   4.850 -0.6815  0.1343  1.7231
  235MOL    H4133269   4.063   5.252   4.946 -2.0631  1.6182  0.4282
  235MOL    H4233270   3.951   5.356   4.684 -1.0486  0.0681 -0.1298
  235MOL    H4333271   4.073   5.419   4.775  0.5170  0.8158 -0.2894
  235MOL    C4433272   3.863   5.569   4.821  0.4671  0.3713  0.4876
  235MOL    C4533273   3.741   5.623   4.894  0.0567 -0.3509  0.0981
  235MOL    O4633274   3.614   5.607   4.828  0.0144  0.5484 -0.0209
  235MOL    H4733275   3.946   5.635   4.847  0.3475  0.2726  1.1471
  235MOL    H4833276   3.836   5.578   4.716 -2.0659  0.6643  1.1370
  235MOL    H4933277   3.767   5.728   4.906 -0.8882  0.0426 -1.2369
  235MOL    H5033278   3.739   5.585   4.996  0.7001 -0.3092  0.1322
  235MOL    C5133279   3.507   5.653   4.900  0.7235 -0.6657 -0.2695
  235MOL    C5233280   3.375   5.597   4.848 -0.0453  0.5883  0.3755
  235MOL    O5333281   3.357   5.464   4.877 -0.3257 -1.0837 -0.5454
  235MOL    H5433282   3.515   5.643   5.008  0.2556 -2.9984 -0.4187
  235MOL    H5533283   3.507   5.760   4.880 -0.2586 -0.8167 -1.1502
  235MOL    H5633284   3.344   5.638   4.751  1.0663 -0.5718 -0.4812
  235MOL    H5733285   3.296   5.636   4.912 -0.9187 -1.1577  0.3689
  235MOL    C5833286   3.458   5.368   4.829  0.3097  0.0630  0.3173
  235MOL    C5933287   3.395   5.234   4.817 -0.0409  0.0349 -0.0131
  235MOL    O6033288   3.329   5.227   4.695  0.4983 -0.3498  0.1515
  235MOL    H6133289   3.505   5.385   4.732  0.7776  1.2761  0.7382
  235MOL    H6233290   3.536   5.356   4.905 -0.3511  0.7199  1.0956
  235MOL    H6333291   3.311   5.227   4.885  0.0761 -0.1632  0.1115
  235MOL    H6433292   3.478   5.165   4.829  2.1478  2.4631 -0.5704
  235MOL    C6533293   3.285   5.091   4.670 -0.1158 -0.3347 -0.0673
  235MOL    C6633294   3.238   5.087   4.525  0.0940 -0.3337 -0.3541
  235MOL    O6733295   3.357   5.070   4.449 -0.2516  0.2152  0.1525
  235MOL    H6833296   3.358   5.014   4.694 -1.5736 -2.0519 -1.0153
  235MOL    H6933297   3.201   5.063   4.735 -0.4756 -0.1417 -0.4472
  235MOL    H7033298   3.179   5.176   4.506 -1.7959 -1.2666  1.0822
  235MOL    H7133299   3.168   5.004   4.517 -0.2673  0.0647 -1.4484
  235MOL    C7233300   3.334   5.046   4.310  0.3809 -0.1345  0.0556
  235MOL    C7333301   3.323   5.185   4.245  0.5250  0.6361 -0.8777
  235MOL    O7433302   3.194   5.227   4.269 -0.2860  0.7952  0.0052
  235MOL    H7533303   3.429   5.006   4.275 -0.4511  0.7761 -3.3869
  235MOL    H7633304   3.254   4.974   4.291 -2.8038  2.7841  1.7841
  235MOL    H7733305   3.333   5.165   4.139 -0.0000  1.9048 -1.1804
  235MOL    H7833306   3.406   5.241   4.288  0.3226 -2.1478  3.4112
  235MOL    C7933307   3.188   5.367   4.263 -0.2914  0.0826 -0.4697
  235MOL    C8033308   3.051   5.394   4.322 -0.5338 -0.4185  0.1784
  235MOL    O8133309   3.046   5.367   4.464 -0.4054  0.1217 -0.5190
  235MOL    H8233310   3.269   5.415   4.317 -0.0793  0.6366 -1.2738
  235MOL    H8333311   3.187   5.409   4.162  1.4482 -0.1431 -0.5849
  235MOL    H8433312   2.979   5.333   4.267 -2.6228  1.6112  0.6072
  235MOL    H8533313   3.015   5.492   4.293  1.4706 -0.5439 -3.0740
  235MOL    C8633314   3.102   5.473   4.542  0.3248  0.1211 -0.0140
  235MOL    C8733315   3.078   5.454   4.698 -0.3658 -0.6324 -0.8016
  235MOL    O8833316   2.940   5.445   4.739  0.2129 -0.2707  0.3796
  235MOL    H8933317   3.208   5.492   4.525  0.3585 -1.4491 -1.7111
  235MOL    H9033318   3.055   5.567   4.515  0.3099  0.9537  2.7509
  235MOL    H9133319   3.125   5.541   4.743  2.3182 -1.7149 -1.3582
  235MOL    H9233320   3.145   5.374   4.730  2.3097  1.0709 -1.9615
  235MOL    C9333321   2.921   5.404   4.870  0.2572  0.6827  0.2535
  235MOL    C9433322   2.916   5.252   4.885  0.1368 -0.2195 -0.5119
  235MOL    O9533323   3.039   5.203   4.945  0.1374 -0.2928  0.2439
  235MOL    H9633324   2.985   5.451   4.944  1.4694  0.9807 -0.9482
  235MOL    H9733325   2.823   5.450   4.881 -0.7798 -1.4124  0.0096
  235MOL    H9833326   2.906   5.203   4.788  2.9926  1.1560 -1.5533
  235MOL    H9933327   2.822   5.217   4.928  0.0810 -3.0906 -2.7658
  235MOL   C10033328   3.040   5.061   4.968  0.0266  0.2305  1.1457
  235MOL   C10133329   2.961   5.018   5.096 -0.0248 -0.3246 -0.0743
  235MOL   O10233330   2.826   5.040   5.080  0.5620  0.0483  0.2609
  235MOL   H10333331   3.020   5.003   4.878 -0.6215  0.2990  1.2463
  235MOL   H10433332   3.147   5.046   4.985  0.0549 -0.0144  0.7391
  235MOL   H10533333   3.006   5.079   5.175  2.0644 -0.2135 -1.3234
  235MOL   H10633334   2.993   4.918   5.127  0.1873  1.2000  5.2654
  235MOL   C10733335   2.754   4.997   5.202  0.5507 -0.5662 -0.3250
  235MOL   C10833336   2.681   4.864   5.161  0.2161 -0.1819 -0.2422
  235MOL   O10933337   2.778   4.759   5.150 -0.0271 -0.1054  0.2021
  235MOL   H11033338   2.814   4.996   5.293  1.3152  0.2043 -0.8153
  235MOL   H11133339   2.683   5.078   5.216  1.5986  0.1992  0.6607
  235MOL   H11233340   2.631   4.880   5.065  0.6575 -0.1807 -0.4720
  235MOL   H11333341   2.605   4.833   5.233  0.6972 -1.6692 -0.3661
  235MOL   C11433342   2.812   4.726   5.019  0.6669  0.0559 -0.2637
  235MOL   C11533343   2.945   4.654   5.003  0.0910  0.4026 -0.1318
  235MOL   O11633344   2.938   4.513   5.009  0.3042 -0.0802 -0.2657
  235MOL   H11733345   2.732   4.664   4.979  0.1908 -0.0738  0.8792
  235MOL   H11833346   2.825   4.820   4.965  1.5326 -0.5691 -1.1644
  235MOL   H11933347   3.021   4.679   5.077  0.2738 -0.4579 -0.0252
  235MOL   H12033348   2.983   4.670   4.901 -1.2654  0.3047 -0.6625
  235MOL   C12133349   3.043   4.427   4.967  0.8351  0.4623  0.3173
  235MOL   C12233350   3.009   4.282   5.005  0.4690 -0.4760  0.0167
  235MOL   O12333351   3.118   4.222   5.078  0.3001 -0.6064  0.0121
  235MOL   H12433352   3.066   4.436   4.861  0.5604  1.2860  0.3196
  235MOL   H12533353   3.140   4.457   5.007  1.3650  0.5134 -1.0034
  235MOL   H12633354   2.981   4.225   4.917 -1.2597  0.0657  0.2026
  235MOL   H12733355   2.924   4.290   5.073  1.9472 -4.0748  2.4175
  235MOL   C12833356   3.098   4.086   5.098 -0.2215 -0.1862  0.2022
  235MOL   C12933357   3.191   4.022   4.995  0.0991 -0.1709  0.3596
  235MOL   O13033358   3.115   4.007   4.875 -0.6441  0.6417  0.4046
  235MOL   H13133359   3.137   4.072   5.199  0.5132 -0.7884 -0.1643
  235MOL   H13233360   2.994   4.051   5.096 -0.4399  0.4911 -0.2745
  235MOL   H13333361   3.223   3.923   5.027 -2.0513 -1.1175 -0.3209
  235MOL   H13433362   3.277   4.087   4.981  0.2209 -0.1731  1.0705
  235MOL   C13533363   3.188   3.998   4.746 -0.3818  0.1765 -0.3085
  235MOL   C13633364   3.084   3.984   4.636  0.1060 -0.1092  0.6795
  235MOL   O13733365   2.996   4.093   4.647 -0.6133  0.1007  0.1208
  235MOL   H13833366   3.242   4.089   4.718 -2.1632  1.3562  0.0377
  235MOL   H13933367   3.262   3.918   4.749  0.4552  0.8134 -2.4488
  235MOL   H14033368   3.008   3.906   4.643  1.2914 -1.3447  0.0620
  235MOL   H14133369   3.122   3.978   4.534 -0.1553 -1.7786  0.6603
  235MOL   H14233370   2.967   4.086   4.736 -0.9376 -1.0608 -0.0625
  236MOL     C133371   6.481   4.577   5.011  0.2853 -0.2605  0.5872
  236MOL     C233372   6.562   4.647   4.905 -0.2184  0.5909 -0.1976
  236MOL     O333373   6.645   4.543   4.843 -0.4499 -0.2811 -0.3045
  236MOL     H433374   6.535   4.545   5.100  0.9900  0.5105  0.4350
  236MOL     H533375   6.421   4.498   4.965  1.9376 -0.5156 -1.1855
  236MOL     H633376   6.628   4.724   4.947  1.0045 -0.6784  0.2426
  236MOL     H733377   6.489   4.685   4.835 -0.3405 -0.4450 -0.6338
  236MOL     H833378   6.403   4.647   5.042  0.1277 -0.4538  0.6274
  236MOL     C933379   6.735   4.587   4.742  0.1343  0.2548 -0.4046
  236MOL    C1033380   6.789   4.459   4.669 -0.1681 -0.1554 -0.5137
  236MOL    O1133381   6.923   4.441   4.711  0.1699 -0.0393  0.5897
  236MOL    H1233382   6.675   4.646   4.673 -1.7126 -1.3179 -0.2013
  236MOL    H1333383   6.813   4.648   4.788 -0.8554 -0.0643  1.7794
  236MOL    H1433384   6.785   4.483   4.562 -2.7481  0.4328 -0.3273
  236MOL    H1533385   6.728   4.370   4.677 -0.3479 -0.0224 -0.4063
  236MOL    C1633386   6.991   4.329   4.655  0.4482  0.1977 -0.8345
  236MOL    C1733387   7.141   4.344   4.674 -1.2163  0.0673 -0.2834
  236MOL    O1833388   7.190   4.456   4.607  0.0464  0.2495  0.3072
  236MOL    H1933389   6.947   4.235   4.686  1.2190 -0.0703 -0.5475
  236MOL    H2033390   6.986   4.320   4.546 -2.9501 -1.3403 -0.6058
  236MOL    H2133391   7.179   4.253   4.627  0.5113  0.8730 -0.4500
  236MOL    H2233392   7.154   4.333   4.781 -0.6411  1.7687 -0.1741
  236MOL    C2333393   7.198   4.572   4.686 -0.2644  0.2306 -0.6715
  236MOL    C2433394   7.241   4.691   4.592 -0.4577  0.2629  0.3312
  236MOL    O2533395   7.137   4.734   4.509 -0.2782 -0.0236  0.6104
  236MOL    H2633396   7.102   4.591   4.733  0.8295 -0.3179  1.8665
  236MOL    H2733397   7.280   4.556   4.756  0.4957  2.9476 -0.8733
  236MOL    H2833398   7.321   4.657   4.525 -1.0736  1.2689 -0.9485
  236MOL    H2933399   7.269   4.787   4.635 -1.2875  0.7742 -0.2580
  236MOL    C3033400   7.077   4.639   4.420 -0.0785 -0.0988 -0.1603
  236MOL    C3133401   7.003   4.729   4.316 -0.3442 -0.0532  0.5307
  236MOL    O3233402   6.873   4.756   4.370  0.3363 -0.0165 -0.0230
  236MOL    H3333403   7.159   4.585   4.372 -0.5660  1.0073 -2.2967
  236MOL    H3433404   7.009   4.571   4.471 -0.4514 -0.2072 -0.7979
  236MOL    H3533405   6.968   4.667   4.233  0.2938 -1.3793  1.2404
  236MOL    H3633406   7.047   4.827   4.299 -1.2634  0.3321  0.3090
  236MOL    C3733407   6.808   4.852   4.287 -0.0740 -0.1244 -0.1290
  236MOL    C3833408   6.656   4.814   4.301  0.7482 -0.3256 -0.3624
  236MOL    O3933409   6.624   4.686   4.237 -0.2153 -0.2426  0.2933
  236MOL    H4033410   6.819   4.957   4.315 -4.8674  0.1468  1.1480
  236MOL    H4133411   6.841   4.843   4.183  0.3964 -0.2235  0.0270
  236MOL    H4233412   6.596   4.891   4.252 -0.4817 -1.2420 -0.3115
  236MOL    H4333413   6.626   4.802   4.405  0.9851 -1.8389 -0.4559
  236MOL    C4433414   6.484   4.655   4.237 -0.8586 -0.6767  0.3674
  236MOL    C4533415   6.417   4.649   4.374  0.6868 -0.3037 -0.2840
  236MOL    O4633416   6.391   4.790   4.400 -0.2877  0.0125 -0.2438
  236MOL    H4733417   6.427   4.716   4.166 -3.4296 -0.8012  2.2728
  236MOL    H4833418   6.482   4.553   4.200  1.5212 -0.4310 -0.5227
  236MOL    H4933419   6.475   4.609   4.457 -0.4747  0.5824  0.9705
  236MOL    H5033420   6.333   4.580   4.386 -0.1027  0.6913  0.0454
  236MOL    C5133421   6.375   4.829   4.530 -0.6984 -0.1860  0.0188
  236MOL    C5233422   6.342   4.984   4.518 -0.1530  0.2897  0.1414
  236MOL    O5333423   6.434   5.053   4.435  0.3127 -0.0771 -0.6400
  236MOL    H5433424   6.286   4.787   4.577  0.3441 -1.2052  1.1103
  236MOL    H5533425   6.458   4.810   4.598 -0.9841  0.9919  0.7153
  236MOL    H5633426   6.322   5.023   4.618 -0.0588 -1.9574  1.0532
  236MOL    H5733427   6.245   5.003   4.472 -0.6960  0.4320  1.3428
  236MOL    C5833428   6.389   5.183   4.418 -0.3624 -0.6194  0.3478
  236MOL    C5933429   6.511   5.256   4.365 -0.6414  0.1882 -0.4556
  236MOL    O6033430   6.575   5.334   4.469  0.4199 -0.0543  0.3332
  236MOL    H6133431   6.326   5.184   4.329 -0.2902 -0.9690  0.2945
  236MOL    H6233432   6.333   5.226   4.501 -0.7836  2.2047 -1.3359
  236MOL    H6333433   6.488   5.335   4.294  0.0260  0.5936 -0.2264
  236MOL    H6433434   6.582   5.193   4.312  0.4484  0.7229  0.3356
  236MOL    C6533435   6.676   5.263   4.546  0.1839 -0.3759 -0.7779
  236MOL    C6633436   6.721   5.352   4.661  0.1056 -0.5881  0.0018
  236MOL    O6733437   6.614   5.362   4.755  0.0947  0.2016 -0.3856
  236MOL    H6833438   6.636   5.166   4.574 -0.0794  0.6332  2.5833
  236MOL    H6933439   6.759   5.241   4.478  0.2979  1.0680 -1.1297
  236MOL    H7033440   6.757   5.452   4.636  0.2410 -0.2002  1.7384
  236MOL    H7133441   6.809   5.309   4.708  0.4799 -0.6243 -0.7215
  236MOL    C7233442   6.658   5.409   4.883  0.4333 -0.3126 -0.2683
  236MOL    C7333443   6.524   5.463   4.942  0.7626  0.2643 -0.0020
  236MOL    O7433444   6.557   5.560   5.031  0.2410 -0.0897 -0.0425
  236MOL    H7533445   6.690   5.327   4.948  1.1580  0.9096  0.9335
  236MOL    H7633446   6.743   5.475   4.871 -0.5584  0.7876 -1.3287
  236MOL    H7733447   6.467   5.390   4.998 -0.6848  0.9318 -0.5736
  236MOL    H7833448   6.456   5.508   4.870 -1.2781 -0.0084  1.7248
  236MOL    C7933449   6.604   5.523   5.156  0.5588  0.3343  0.1092
  236MOL    C8033450   6.617   5.657   5.233  0.8858  0.2986  0.0480
  236MOL    O8133451   6.482   5.698   5.264  0.1595  0.2601 -0.1834
  236MOL    H8233452   6.540   5.455   5.212  0.0657  1.8725  1.4835
  236MOL    H8333453   6.701   5.475   5.143  1.4794  1.8403  1.2236
  236MOL    H8433454   6.670   5.734   5.178  2.6546 -1.3016 -0.5548
  236MOL    H8533455   6.678   5.632   5.320  1.9265  2.3892 -0.0593
  236MOL    C8633456   6.469   5.804   5.363 -0.8275  0.1455 -0.3111
  236MOL    C8733457   6.426   5.934   5.307 -0.1139 -0.3788  0.9641
  236MOL    O8833458   6.533   5.976   5.215 -0.4735 -0.3952  0.3232
  236MOL    H8933459   6.408   5.776   5.449  0.4590 -4.5051 -0.7829
  236MOL    H9033460   6.569   5.820   5.402 -1.5532  0.0706  1.6667
  236MOL    H9133461   6.420   6.009   5.386 -0.3383 -0.7663  1.3152
  236MOL    H9233462   6.337   5.916   5.248  1.8329 -0.6411 -2.0032
  236MOL    C9333463   6.491   6.080   5.129  0.4142  0.1449 -0.1755
  236MOL    C9433464   6.607   6.150   5.062 -0.1316  0.0876 -0.0739
  236MOL    O9533465   6.668   6.075   4.962 -0.2457  0.2267  0.1982
  236MOL    H9633466   6.428   6.034   5.052  0.7970 -0.3069 -0.2224
  236MOL    H9733467   6.429   6.152   5.181 -0.3439  1.0126 -2.2233
  236MOL    H9833468   6.672   6.201   5.133  0.9759 -0.9960 -0.2914
  236MOL    H9933469   6.549   6.222   5.004 -0.7812 -1.1306 -0.9453
  236MOL   C10033470   6.802   6.030   4.986 -0.3238 -0.1500  0.0621
  236MOL   C10133471   6.872   5.998   4.847  0.2033 -0.2476  0.4529
  236MOL   O10233472   6.823   5.882   4.791 -0.3136  0.4688  0.0046
  236MOL   H10333473   6.848   6.108   5.046  0.2600 -0.8171  0.4972
  236MOL   H10433474   6.785   5.939   5.044  1.4967 -0.4573  0.1631
  236MOL   H10533475   6.981   5.986   4.853  0.3049  0.2385 -0.3380
  236MOL   H10633476   6.869   6.080   4.775  2.1627 -0.9549 -0.4637
  236MOL   C10733477   6.684   5.881   4.755 -0.3487 -0.9496 -0.6229
  236MOL   C10833478   6.654   5.748   4.685 -0.2918 -0.4935  0.0560
  236MOL   O10933479   6.567   5.769   4.571 -0.0693  0.7350 -0.0240
  236MOL   H11033480   6.618   5.890   4.842  0.8102 -2.2198  0.4097
  236MOL   H11133481   6.670   5.971   4.696 -0.2733 -0.5794 -0.0861
  236MOL   H11233482   6.624   5.668   4.753  0.4793 -2.1747 -1.5427
  236MOL   H11333483   6.746   5.717   4.635  0.3036  0.0423  0.8176
  236MOL   C11433484   6.527   5.648   4.504  0.0207  0.8472  0.0739
  236MOL   C11533485   6.489   5.664   4.350  0.1158  0.2630 -0.0826
  236MOL   O11633486   6.351   5.696   4.331 -0.2050  0.6312 -0.6763
  236MOL   H11733487   6.613   5.581   4.504  0.2684  1.1253 -1.9818
  236MOL   H11833488   6.447   5.587   4.547 -0.6297 -0.6044 -2.9954
  236MOL   H11933489   6.512   5.571   4.299 -0.3735 -0.7361  1.4987
  236MOL   H12033490   6.551   5.743   4.307  1.5754 -0.6845  0.2621
  236MOL   C12133491   6.328   5.745   4.198  0.1542  0.2946  0.0022
  236MOL   C12233492   6.179   5.757   4.169  0.0533 -0.0557  0.0215
  236MOL   O12333493   6.117   5.868   4.235  0.3004  0.2990 -0.0496
  236MOL   H12433494   6.368   5.846   4.193  0.0846  0.3510  0.5453
  236MOL   H12533495   6.363   5.667   4.129 -0.0189  0.4482 -0.2616
  236MOL   H12633496   6.135   5.660   4.193 -0.2879  0.1935  0.4132
  236MOL   H12733497   6.166   5.769   4.062  0.4122 -1.0028 -0.1328
  236MOL   C12833498   5.980   5.893   4.192  1.2016 -0.3698 -0.1648
  236MOL   C12933499   5.937   6.037   4.234 -0.5417 -0.0186 -0.4427
  236MOL   O13033500   5.947   6.043   4.378 -0.0162  0.4382  0.4651
  236MOL   H13133501   5.971   5.871   4.085 -0.4574  0.1583 -0.1467
  236MOL   H13233502   5.924   5.807   4.230 -1.2667  1.7372  1.1115
  236MOL   H13333503   5.834   6.049   4.201 -2.1955 -2.5450  3.3541
  236MOL   H13433504   6.004   6.111   4.191 -0.4002  1.5457  2.3330
  236MOL   C13533505   5.896   6.168   4.429 -0.1194 -0.6134  0.4820
  236MOL   C13633506   5.937   6.187   4.578 -0.1808 -0.2761 -0.2814
  236MOL   O13733507   6.075   6.226   4.600 -0.0691  0.0433  0.2294
  236MOL   H13833508   5.938   6.259   4.387  0.4250  0.1372  2.5697
  236MOL   H13933509   5.787   6.169   4.426 -0.1143  3.2964 -1.6900
  236MOL   H14033510   5.927   6.095   4.636 -1.7375  1.5571  2.3973
  236MOL   H14133511   5.869   6.258   4.624 -0.7970 -2.0916  1.6913
  236MOL   H14233512   6.125   6.160   4.554  0.9880  0.5097  0.6880
  237MOL     C133513   0.820   1.245   0.971  0.6098 -0.3081 -0.3051
  237MOL     C233514   0.848   1.116   0.892 -0.2609 -0.3104  0.2087
  237MOL     O333515   0.763   1.019   0.938  0.4843  0.1456  0.0556
  237MOL     H433516   0.873   1.330   0.927  0.7132 -0.8723 -1.2760
  237MOL     H533517   0.851   1.234   1.075 -2.9667 -0.6242  0.7835
  237MOL     H633518   0.955   1.097   0.904 -0.1161  1.4233  2.0071
  237MOL     H733519   0.822   1.134   0.788 -1.0193  0.0787  0.4567
  237MOL     H833520   0.714   1.268   0.980  0.8393  1.4820 -1.9211
  237MOL     C933521   0.815   0.896   0.903 -0.3091  0.5698 -0.2150
  237MOL    C1033522   0.734   0.770   0.933 -0.1980  0.8471 -0.5107
  237MOL    O1133523   0.625   0.787   0.841 -0.0320  0.2589  0.0030
  237MOL    H1233524   0.843   0.892   0.798 -1.7880  0.2008 -0.6027
  237MOL    H1333525   0.911   0.887   0.954 -1.3079  2.0019  1.9820
  237MOL    H1433526   0.701   0.763   1.036 -0.2830  1.5832 -0.4872
  237MOL    H1533527   0.787   0.679   0.905 -1.0002  0.2070  0.0220
  237MOL    C1633528   0.517   0.710   0.887 -0.0225 -0.0863 -0.4983
  237MOL    C1733529   0.399   0.747   0.806 -0.6330 -0.1027  0.2451
  237MOL    O1833530   0.299   0.658   0.847 -0.0456 -0.1922 -0.1003
  237MOL    H1933531   0.558   0.610   0.872 -2.2735 -1.3102  1.1533
  237MOL    H2033532   0.506   0.729   0.994  0.5860 -0.8525 -0.2947
  237MOL    H2133533   0.409   0.761   0.698 -0.3258  0.8220  0.3854
  237MOL    H2233534   0.373   0.849   0.836 -2.7826 -0.0180 -1.7628
  237MOL    C2333535   0.298   0.530   0.788  0.3125 -0.3188  0.7931
  237MOL    C2433536   0.180   0.443   0.833 -1.5892  0.6023  0.1613
  237MOL    O2533537   0.237   0.341   0.918  0.3390  0.3557  0.2519
  237MOL    H2633538   0.282   0.558   0.684  0.7391  0.6612  0.9895
  237MOL    H2733539   0.385   0.465   0.785 -0.7174 -1.6747 -0.7326
  237MOL    H2833540   0.131   0.397   0.747  1.5890 -0.2417 -1.2647
  237MOL    H2933541   0.108   0.493   0.898  1.1176  1.3228  2.6758
  237MOL    C3033542   0.142   0.245   0.964  0.0258  0.5420  0.7595
  237MOL    C3133543   0.189   0.155   1.077  0.1711  0.2981  0.0109
  237MOL    O3233544   0.294   0.087   1.010 -0.1999 -0.3176 -0.4020
  237MOL    H3333545   0.053   0.298   0.996 -1.1563 -0.2960 -1.0527
  237MOL    H3433546   0.110   0.183   0.880  0.8798  2.1774 -0.8196
  237MOL    H3533547   0.109   0.090   1.111 -0.1083 -0.4991 -2.0741
  237MOL    H3633548   0.226   0.224   1.153 -2.0797  2.4420 -0.7856
  237MOL    C3733549   0.348   7.768   1.109 -0.1167  1.0008  0.7209
  237MOL    C3833550   0.449   7.680   1.031  0.4345 -0.0636  0.3435
  237MOL    O3933551   0.378   7.598   0.939 -0.5831  0.9920 -0.0682
  237MOL    H4033552   0.406   0.055   1.181  1.3385  0.5630 -0.0759
  237MOL    H4133553   0.276   7.711   1.167  1.0005 -1.7701 -0.5530
  237MOL    H4233554   0.515   7.631   1.103  1.1020 -2.1716 -1.6599
  237MOL    H4333555   0.523   7.734   0.971 -1.5080 -1.1867 -3.2125
  237MOL    C4433556   0.468   7.519   0.857 -0.6306  0.0929  1.2226
  237MOL    C4533557   0.377   7.423   0.787 -0.1805 -0.8170 -0.2001
  237MOL    O4633558   0.350   7.328   0.888 -0.0130  0.0910  0.0652
  237MOL    H4733559   0.507   7.595   0.789 -3.9895  0.7919 -0.0255
  237MOL    H4833560   0.543   7.475   0.923 -0.1949  0.5950  1.0638
  237MOL    H4933561   0.438   7.383   0.706  0.4395  0.9825 -0.6454
  237MOL    H5033562   0.282   7.456   0.747 -0.0122 -2.0368 -1.6287
  237MOL    C5133563   0.316   7.193   0.842 -0.2910 -0.0954  0.0663
  237MOL    C5233564   0.315   7.091   0.961 -0.0160  0.4447 -0.4463
  237MOL    O5333565   0.208   7.133   1.038  0.3340  0.0008  0.2685
  237MOL    H5433566   0.228   7.193   0.778 -0.0655 -4.0073 -0.3348
  237MOL    H5533567   0.399   7.153   0.785  1.2741  1.7452  0.9597
  237MOL    H5633568   0.408   7.095   1.017  0.6188 -0.0118 -1.4536
  237MOL    H5733569   0.303   6.990   0.923 -0.4779  1.4954 -3.2798
  237MOL    C5833570   0.183   7.033   1.132  1.0258  0.1067  0.0156
  237MOL    C5933571   0.106   7.096   1.250 -0.5680  0.2279 -0.3040
  237MOL    O6033572   0.062   6.982   1.321  0.4313 -0.5831  0.4207
  237MOL    H6133573   0.125   6.954   1.084  0.5997 -0.7106  1.8163
  237MOL    H6233574   0.271   6.986   1.175  0.3623 -0.9279  0.2679
  237MOL    H6333575   0.013   7.146   1.224  0.4874  1.3810 -1.9348
  237MOL    H6433576   0.170   7.161   1.310  3.3424 -2.4744 -1.3659
  237MOL    C6533577   0.028   7.030   1.451  0.9226  0.5369  0.7254
  237MOL    C6633578   7.732   6.922   1.535 -0.4708 -0.1230 -0.4080
  237MOL    O6733579   7.600   6.915   1.480 -0.1852  0.1425 -0.3552
  237MOL    H6833580   0.117   7.055   1.508  0.0763 -0.0923  2.3763
  237MOL    H6933581   7.737   7.119   1.455  0.9937  0.6214 -0.0651
  237MOL    H7033582   7.715   6.947   1.640  2.4711  1.6155 -0.2774
  237MOL    H7133583   0.016   6.828   1.539 -0.8798 -0.3497 -0.0861
  237MOL    C7233584   7.538   6.793   1.510  0.0487 -0.2620 -0.0980
  237MOL    C7333585   7.395   6.786   1.457  0.4091  0.0149 -0.0104
  237MOL    O7433586   7.309   6.840   1.546  0.2884 -0.3019 -0.1495
  237MOL    H7533587   7.606   6.725   1.459  2.3177 -0.0798  2.5143
  237MOL    H7633588   7.555   6.763   1.614  0.0530  0.7525  0.2016
  237MOL    H7733589   7.371   6.679   1.457 -0.9171  0.3037  0.7252
  237MOL    H7833590   7.390   6.837   1.361 -1.2347  0.6406  0.3917
  237MOL    C7933591   7.170   6.849   1.524  0.8609  0.3529 -0.6198
  237MOL    C8033592   7.127   6.938   1.408 -0.3818 -0.4071 -0.6532
  237MOL    O8133593   7.138   6.856   1.289  0.2967  1.0407 -0.0981
  237MOL    H8233594   7.129   6.750   1.503  1.1656 -0.3099  1.7119
  237MOL    H8333595   7.118   6.875   1.617 -1.2240 -0.5314 -1.5094
  237MOL    H8433596   7.183   7.031   1.421 -0.9147  0.1266 -2.0781
  237MOL    H8533597   7.022   6.967   1.409 -0.2575  0.0662 -1.0785
  237MOL    C8633598   7.090   6.928   1.176 -0.4348  0.2802 -0.2107
  237MOL    C8733599   7.110   6.851   1.045 -0.0743 -0.3779 -1.0862
  237MOL    O8833600   7.025   6.738   1.034  0.5814  0.2270 -0.5889
  237MOL    H8933601   6.982   6.940   1.187 -0.2775 -0.0199  1.7109
  237MOL    H9033602   7.144   7.022   1.163 -0.0082  0.0739  0.0841
  237MOL    H9133603   7.214   6.821   1.038  0.4586  0.6496  1.6795
  237MOL    H9233604   7.079   6.913   0.961 -0.4827  0.9146  0.0015
  237MOL    C9333605   7.057   6.661   0.920  0.5966  0.0647 -0.3444
  237MOL    C9433606   6.952   6.554   0.901  0.5433 -0.9658  0.3013
  237MOL    O9533607   6.972   6.451   1.003  0.2644 -1.0552 -0.4988
  237MOL    H9633608   7.055   6.730   0.836  0.5850  1.1838  0.5521
  237MOL    H9733609   7.160   6.626   0.928  0.6979  0.3463 -0.3932
  237MOL    H9833610   6.969   6.507   0.805  2.2651 -1.3073  0.7660
  237MOL    H9933611   6.854   6.601   0.893  1.5163  0.8804 -0.9997
  237MOL   C10033612   6.881   6.340   0.999 -0.4583  0.9565  0.1106
  237MOL   C10133613   6.954   6.220   1.054  0.2419  0.4694  0.5060
  237MOL   O10233614   6.917   6.187   1.186 -0.1669 -0.1428 -0.1873
  237MOL   H10333615   6.788   6.355   1.054 -0.4503  2.6290 -0.3131
  237MOL   H10433616   6.863   6.316   0.894 -1.7651  3.8131 -0.3622
  237MOL   H10533617   7.061   6.237   1.051  0.3510 -0.2457  0.3688
  237MOL   H10633618   6.926   6.127   1.004 -0.6084  0.0588  1.6919
  237MOL   C10733619   6.985   6.075   1.242 -0.5725  0.4436 -0.1480
  237MOL   C10833620   6.928   6.045   1.382  0.0369 -0.5933 -0.8745
  237MOL   O10933621   7.026   6.034   1.485  0.1510  0.2991 -0.5889
  237MOL   H11033622   6.979   5.984   1.182 -0.8665  1.4648 -1.7075
  237MOL   H11133623   7.089   6.103   1.257 -0.3401 -0.1699 -0.6260
  237MOL   H11233624   6.858   5.963   1.367  0.6857 -1.0104 -1.6916
  237MOL   H11333625   6.877   6.140   1.397  1.0702 -0.1304 -0.2039
  237MOL   C11433626   6.966   6.059   1.612 -0.5558 -0.0549  0.5210
  237MOL   C11533627   7.071   6.024   1.715 -0.2076  0.1739 -0.7369
  237MOL   O11633628   7.070   5.881   1.735 -0.2119  0.7477 -0.1395
  237MOL   H11733629   6.949   6.165   1.629 -0.5028  0.6071 -3.1170
  237MOL   H11833630   6.873   6.006   1.633 -1.1648  0.6266 -0.4536
  237MOL   H11933631   7.042   6.082   1.803  0.0405 -0.8955  0.0657
  237MOL   H12033632   7.171   6.057   1.688 -0.4432  3.5684  2.1629
  237MOL   C12133633   7.183   5.830   1.801  0.8216  0.2089 -0.3999
  237MOL   C12233634   7.148   5.691   1.855  0.2159 -1.0589  0.6350
  237MOL   O12333635   7.067   5.705   1.974 -0.1203 -0.1539  0.7000
  237MOL   H12433636   7.255   5.826   1.720 -0.6508 -0.4542 -1.6934
  237MOL   H12533637   7.216   5.895   1.882  0.7073 -0.9331  0.5747
  237MOL   H12633638   7.242   5.642   1.880  0.4659 -1.3440 -0.8220
  237MOL   H12733639   7.092   5.628   1.786  0.3038 -0.3123 -0.1304
  237MOL   C12833640   7.033   5.575   2.030 -0.2993 -0.7388  0.4713
  237MOL   C12933641   6.989   5.591   2.177  0.4546  0.0665 -0.6320
  237MOL   O13033642   6.866   5.660   2.190  0.0884  1.0983  0.6221
  237MOL   H13133643   6.950   5.539   1.970  0.9984  0.4447 -2.0849
  237MOL   H13233644   7.117   5.505   2.026  1.6818  1.6587 -1.1511
  237MOL   H13333645   7.074   5.632   2.232  0.4127 -0.7723  0.0834
  237MOL   H13433646   6.978   5.488   2.213  1.8734 -0.3553 -1.3397
  237MOL   C13533647   6.870   5.752   2.297 -0.1375 -0.6668 -0.8535
  237MOL   C13633648   6.945   5.879   2.244  0.1115 -0.9625  0.0772
  237MOL   O13733649   7.004   5.957   2.353 -0.0232  0.3124  0.4023
  237MOL   H13833650   6.768   5.785   2.317  0.9564  1.8903  0.7176
  237MOL   H13933651   6.914   5.714   2.389 -1.7079 -2.6836 -0.8806
  237MOL   H14033652   6.871   5.932   2.184  4.2340  0.2396 -4.2009
  237MOL   H14133653   7.015   5.848   2.166  0.1751  1.2281 -0.7686
  237MOL   H14233654   6.930   5.999   2.393  1.0945  2.1115  0.6310
  238MOL     C133655   5.287   2.581   0.995  0.3293  0.4558  0.0859
  238MOL     C233656   5.315   2.453   1.085 -0.0686 -0.0661  1.0853
  238MOL     O333657   5.218   2.446   1.185  0.0373  0.6140  0.9489
  238MOL     H433658   5.193   2.570   0.941 -0.4425  1.3289  1.2283
  238MOL     H533659   5.366   2.586   0.920  1.1003  1.2909  0.9299
  238MOL     H633660   5.416   2.463   1.124  0.0354  1.9424  0.3433
  238MOL     H733661   5.310   2.373   1.011 -0.9688  0.1631  0.8889
  238MOL     H833662   5.281   2.670   1.057  0.4097 -0.2869  1.1804
  238MOL     C933663   5.259   2.375   1.295  0.3017  1.1089 -0.4939
  238MOL    C1033664   5.149   2.349   1.397  0.1080 -0.3607  0.0299
  238MOL    O1133665   5.063   2.242   1.350 -0.0146 -0.2817 -0.0801
  238MOL    H1233666   5.296   2.281   1.253 -2.3524  0.6641 -1.9656
  238MOL    H1333667   5.336   2.431   1.347 -0.7758  1.5240  0.6846
  238MOL    H1433668   5.096   2.443   1.414 -2.7173 -2.1370  1.3632
  238MOL    H1533669   5.197   2.333   1.494 -0.1563 -0.5673  0.1272
  238MOL    C1633670   4.971   2.200   1.446  0.2807  0.1430  0.2612
  238MOL    C1733671   4.894   2.073   1.414 -0.2851  0.1053 -0.5032
  238MOL    O1833672   4.799   2.100   1.313  0.1089  0.2941 -0.0173
  238MOL    H1933673   5.042   2.169   1.523  0.6175 -1.7130 -0.7795
  238MOL    H2033674   4.901   2.277   1.478 -0.6172 -0.3193 -0.5756
  238MOL    H2133675   4.843   2.029   1.499 -2.4114  0.3130 -1.6150
  238MOL    H2233676   4.967   2.002   1.375  1.9156  1.6534  0.7284
  238MOL    C2333677   4.723   1.995   1.261 -1.0259  0.4303  0.5766
  238MOL    C2433678   4.620   2.051   1.157 -0.0245 -0.7875  0.0957
  238MOL    O2533679   4.606   1.965   1.046  0.5661  0.7763  0.0329
  238MOL    H2633680   4.787   1.923   1.210 -0.9661 -0.7459  2.2547
  238MOL    H2733681   4.683   1.954   1.353  0.4146 -0.3922  0.8467
  238MOL    H2833682   4.648   2.154   1.133 -1.9518 -0.7302 -2.0634
  238MOL    H2933683   4.525   2.048   1.209  0.4827  0.1499  1.1128
  238MOL    C3033684   4.528   2.020   0.934 -0.4734  0.4187 -0.1739
  238MOL    C3133685   4.465   1.897   0.867  0.3605  0.8716  0.1043
  238MOL    O3233686   4.401   1.814   0.960 -0.1800  0.5739  0.0328
  238MOL    H3333687   4.448   2.080   0.977 -1.9049 -0.9845 -0.8450
  238MOL    H3433688   4.591   2.083   0.872 -1.1477  1.2851  0.0176
  238MOL    H3533689   4.548   1.846   0.817 -0.7514  0.1347 -1.0438
  238MOL    H3633690   4.389   1.931   0.798  0.4553  1.4887  0.3033
  238MOL    C3733691   4.319   1.715   0.904  0.2350  0.2273  1.5924
  238MOL    C3833692   4.233   1.651   1.013 -0.8230 -0.0662 -0.7783
  238MOL    O3933693   4.300   1.534   1.057 -0.1097 -0.8580 -0.5102
  238MOL    H4033694   4.244   1.760   0.839  1.5050 -1.5253 -1.1606
  238MOL    H4133695   4.371   1.640   0.845 -2.5386 -0.8901  0.4963
  238MOL    H4233696   4.130   1.626   0.988 -0.1693 -0.9654 -2.6368
  238MOL    H4333697   4.224   1.720   1.097 -1.0228 -0.3879 -0.5361
  238MOL    C4433698   4.253   1.493   1.184 -0.3021  1.5501 -0.2572
  238MOL    C4533699   4.284   1.346   1.191  0.2455 -0.4164 -0.2467
  238MOL    O4633700   4.416   1.349   1.245  0.1137  0.0111  0.4071
  238MOL    H4733701   4.289   1.545   1.273 -1.5616 -1.5086  2.1193
  238MOL    H4833702   4.145   1.483   1.177  0.1817 -3.6276 -2.8361
  238MOL    H4933703   4.279   1.286   1.100 -1.3693 -0.1539 -0.3454
  238MOL    H5033704   4.212   1.299   1.257 -0.1605  0.6665  0.1027
  238MOL    C5133705   4.459   1.215   1.266 -0.1053  0.0492  0.0123
  238MOL    C5233706   4.606   1.217   1.315  0.3257  0.1975 -0.9149
  238MOL    O5333707   4.624   1.197   1.453  0.2935  0.1741 -0.0562
  238MOL    H5433708   4.384   1.168   1.330 -0.8135  1.6156  0.3665
  238MOL    H5533709   4.457   1.179   1.163 -1.2477  1.4313 -0.4675
  238MOL    H5633710   4.662   1.305   1.282  0.6511 -0.5458 -2.3769
  238MOL    H5733711   4.653   1.130   1.270 -0.4996 -0.9292  0.3848
  238MOL    C5833712   4.756   1.171   1.497 -0.7089  0.3925 -0.4295
  238MOL    C5933713   4.766   1.190   1.654 -0.7359  0.4047  0.6750
  238MOL    O6033714   4.756   1.068   1.727  0.2999  0.1377 -0.0805
  238MOL    H6133715   4.779   1.067   1.475 -0.8044  0.3608 -0.3799
  238MOL    H6233716   4.831   1.228   1.442  0.6610  0.3403  1.3749
  238MOL    H6333717   4.701   1.267   1.695 -1.0409  0.0305  0.9029
  238MOL    H6433718   4.867   1.226   1.672  0.4382 -3.0882  1.4703
  238MOL    C6533719   4.756   1.098   1.862 -0.1505 -0.0987 -0.0650
  238MOL    C6633720   4.673   0.991   1.929  0.2814  0.0785 -0.2032
  238MOL    O6733721   4.535   1.017   1.911 -0.5965 -0.0043  0.3637
  238MOL    H6833722   4.860   1.083   1.891 -0.6335  1.3643  2.6967
  238MOL    H6933723   4.740   1.199   1.902 -1.9142 -0.4560  0.1719
  238MOL    H7033724   4.696   1.001   2.035  1.5924 -2.3569 -0.2167
  238MOL    H7133725   4.713   0.893   1.903  1.3041  0.7155 -1.0864
  238MOL    C7233726   4.461   0.919   1.842 -0.2817  0.3062  0.4081
  238MOL    C7333727   4.482   0.947   1.695 -0.6721 -0.7620  0.2018
  238MOL    O7433728   4.370   0.897   1.617 -0.2929  0.6460  0.0654
  238MOL    H7533729   4.494   0.816   1.858  1.1244  0.3295 -2.0136
  238MOL    H7633730   4.354   0.924   1.858 -0.8046 -2.8200 -1.5354
  238MOL    H7733731   4.579   0.912   1.657 -0.0700  0.1402  0.8830
  238MOL    H7833732   4.483   1.055   1.686  0.9448 -0.5587  2.2171
  238MOL    C7933733   4.390   0.917   1.478 -0.3254  0.2213 -0.3136
  238MOL    C8033734   4.257   0.875   1.413  0.3193 -0.6343  0.5356
  238MOL    O8133735   4.217   0.965   1.312  0.0724 -0.4468 -0.1088
  238MOL    H8233736   4.407   1.024   1.465 -2.4089  0.2746 -3.1934
  238MOL    H8333737   4.477   0.862   1.442  0.2105 -0.2882  1.6668
  238MOL    H8433738   4.174   0.849   1.479 -1.7214  1.7371 -0.9772
  238MOL    H8533739   4.283   0.785   1.359 -1.1744  0.6343 -2.4479
  238MOL    C8633740   4.126   0.925   1.209  0.4230  0.2523 -0.4122
  238MOL    C8733741   4.065   1.030   1.117  0.0937  0.1307 -0.2752
  238MOL    O8833742   4.152   1.073   1.016 -0.0708  0.5690  0.1571
  238MOL    H8933743   4.178   0.856   1.142 -0.6707 -2.1188  1.1024
  238MOL    H9033744   4.043   0.867   1.248 -0.9767 -0.3031 -3.9756
  238MOL    H9133745   4.040   1.113   1.183 -0.7518  0.4926 -1.0512
  238MOL    H9233746   3.977   0.992   1.065 -0.0509  0.3648 -0.2001
  238MOL    C9333747   4.163   0.996   0.896 -0.8092 -0.5400 -0.5808
  238MOL    C9433748   4.299   1.039   0.837 -0.1094  0.8466  0.0139
  238MOL    O9533749   4.278   1.124   0.733  0.1906  0.2617 -0.1145
  238MOL    H9633750   4.183   0.891   0.913 -0.8090 -0.5143 -0.4220
  238MOL    H9733751   4.076   1.013   0.833  0.3869  0.2155 -2.0751
  238MOL    H9833752   4.337   0.944   0.799 -2.1130 -0.3664  0.9108
  238MOL    H9933753   4.372   1.070   0.912 -0.5571  0.5626  0.5771
  238MOL   C10033754   4.396   1.140   0.663 -0.0472 -0.1744  0.5039
  238MOL   C10133755   4.378   1.253   0.570  0.1041 -0.6725  0.4146
  238MOL   O10233756   4.295   1.212   0.459 -0.3515  0.4499  0.0048
  238MOL   H10333757   4.479   1.158   0.730  1.1461 -3.0817 -0.1240
  238MOL   H10433758   4.420   1.052   0.602 -1.2387 -0.2845  0.1822
  238MOL   H10533759   4.478   1.283   0.539  0.1896 -2.2326 -0.9000
  238MOL   H10633760   4.335   1.340   0.620 -0.6009 -0.7171 -0.1059
  238MOL   C10733761   4.293   1.305   0.353 -0.5176  0.3761 -0.7026
  238MOL   C10833762   4.230   1.243   0.228 -0.1000 -0.5699  0.1039
  238MOL   O10933763   4.312   1.170   0.141 -0.2721  0.0206  0.4727
  238MOL   H11033764   4.251   1.401   0.384  1.6260  1.3846 -0.8411
  238MOL   H11133765   4.395   1.319   0.318  0.5011 -1.3285  1.4392
  238MOL   H11233766   4.184   1.329   0.178 -1.0386 -1.4795 -0.6062
  238MOL   H11333767   4.145   1.182   0.257 -3.0991  3.4127  0.1410
  238MOL   C11433768   4.264   1.169   0.003  0.5052 -0.1393  0.6245
  238MOL   C11533769   4.331   1.057   7.693  0.4076  0.7762  0.5518
  238MOL   O11633770   4.265   0.929   7.724 -0.3159 -0.6260  0.3444
  238MOL   H11733771   4.157   1.161   7.758  0.8236 -0.7586 -1.3230
  238MOL   H11833772   4.301   1.263   7.732 -0.3863 -0.6007 -1.2442
  238MOL   H11933773   4.439   1.061   7.707  0.5335 -0.8028  0.1499
  238MOL   H12033774   4.316   1.085   7.588  2.4345 -0.3916 -0.0801
  238MOL   C12133775   4.276   0.827   7.620 -1.2725  0.2593 -0.2889
  238MOL   C12233776   4.403   0.750   7.627  0.0259  0.3227 -0.1937
  238MOL   O12333777   4.508   0.838   7.590 -0.5108 -0.3088 -0.6790
  238MOL   H12433778   4.193   0.762   7.648  0.0534 -1.5790 -0.5641
  238MOL   H12533779   4.266   0.854   7.515  1.7130 -0.3941 -0.7807
  238MOL   H12633780   4.389   0.665   7.560 -1.5274 -0.0844  0.6094
  238MOL   H12733781   4.422   0.725   7.731 -4.3489 -0.2762  0.5507
  238MOL   C12833782   4.634   0.787   7.617  0.2335  0.0983  0.6228
  238MOL   C12933783   4.737   0.886   7.568 -0.5587  0.2004 -0.4351
  238MOL   O13033784   4.719   0.995   7.643  0.0149 -0.2309  0.3132
  238MOL   H13133785   4.640   0.762   7.723 -2.4464  1.0905  1.0629
  238MOL   H13233786   4.656   0.706   7.549  1.1808  0.5294  0.4086
  238MOL   H13333787   4.730   0.904   7.461 -0.4124 -2.4118 -0.9083
  238MOL   H13433788   4.838   0.847   7.581 -2.1929 -3.6784  1.3600
  238MOL   C13533789   4.825   1.084   7.643  0.8234  0.6392 -0.1601
  238MOL   C13633790   4.790   1.222   7.701 -0.2397 -0.0639 -0.8771
  238MOL   O13733791   4.710   1.299   7.616 -0.5289 -0.2349  0.1450
  238MOL   H13833792   4.908   1.036   7.695  1.0256  0.5819 -0.5344
  238MOL   H13933793   4.867   1.103   7.544  0.0608 -0.8462 -0.7934
  238MOL   H14033794   4.883   1.279   7.710 -0.1594  0.1233 -2.7157
  238MOL   H14133795   4.734   1.217   0.023  0.6318 -2.0051 -0.4249
  238MOL   H14233796   4.727   1.265   7.530 -1.4417 -0.7602  0.1687
  239MOL     C133797   2.702   1.814   3.435  0.1973  0.5457  0.1347
  239MOL     C233798   2.661   1.668   3.443  0.0883 -0.3014  0.3102
  239MOL     O333799   2.600   1.642   3.566 -0.1234  0.5610 -0.4280
  239MOL     H433800   2.777   1.820   3.356 -1.1243  1.6059 -1.0573
  239MOL     H533801   2.742   1.846   3.531  1.3866 -0.3543 -0.0472
  239MOL     H633802   2.745   1.598   3.437  1.2312  0.9721  1.1189
  239MOL     H733803   2.598   1.641   3.359  0.1120 -2.2182  0.8888
  239MOL     H833804   2.620   1.877   3.400 -1.2591 -1.5308 -0.2923
  239MOL     C933805   2.557   1.507   3.582 -0.1212 -0.2849  0.5255
  239MOL    C1033806   2.470   1.489   3.704 -0.0711 -0.0209 -0.5701
  239MOL    O1133807   2.336   1.528   3.691 -0.0677  0.3400 -0.7534
  239MOL    H1233808   2.504   1.485   3.489  0.4930  2.5679 -0.5532
  239MOL    H1333809   2.644   1.440   3.589  0.1172 -0.1457 -0.8283
  239MOL    H1433810   2.504   1.540   3.794  0.4875 -0.7998 -0.3348
  239MOL    H1533811   2.467   1.383   3.731 -0.0484  0.5649  1.8758
  239MOL    C1633812   2.311   1.666   3.707  0.2432 -0.2785 -0.1743
  239MOL    C1733813   2.162   1.696   3.738  0.4769 -0.5227 -0.0475
  239MOL    O1833814   2.074   1.675   3.631 -0.0030 -0.3579  0.7006
  239MOL    H1933815   2.375   1.707   3.785  3.4311 -0.2786 -2.7206
  239MOL    H2033816   2.333   1.728   3.620 -1.1801  1.6589  0.7964
  239MOL    H2133817   2.156   1.800   3.770  0.1844 -0.2449 -0.9685
  239MOL    H2233818   2.122   1.646   3.826 -0.5201  1.4697  0.6743
  239MOL    C2333819   1.936   1.677   3.666  0.3948  0.6800 -0.2125
  239MOL    C2433820   1.841   1.691   3.553 -0.1443 -0.1067 -0.0450
  239MOL    O2533821   1.775   1.819   3.562  0.8299  0.1743  0.5414
  239MOL    H2633822   1.928   1.578   3.711  0.7027  0.4242 -0.7143
  239MOL    H2733823   1.903   1.743   3.747 -0.0245 -0.0471  0.2214
  239MOL    H2833824   1.754   1.625   3.557 -1.1183  1.1542 -0.0073
  239MOL    H2933825   1.888   1.689   3.455 -0.6849 -3.5239 -0.2972
  239MOL    C3033826   1.710   1.846   3.441 -0.3151  0.1559 -0.1571
  239MOL    C3133827   1.604   1.958   3.466  0.2285  0.8048 -0.3267
  239MOL    O3233828   1.679   2.082   3.505  0.4194 -0.7609 -0.0232
  239MOL    H3333829   1.782   1.872   3.363 -1.5707 -2.1906 -2.2082
  239MOL    H3433830   1.663   1.753   3.406  4.2513 -2.4792  0.3617
  239MOL    H3533831   1.535   1.912   3.538 -1.2382  1.0958 -1.5199
  239MOL    H3633832   1.554   1.983   3.372  0.2614 -0.1725 -0.6129
  239MOL    C3733833   1.592   2.173   3.560  0.0472 -0.6825 -0.9055
  239MOL    C3833834   1.665   2.301   3.606  0.1074 -0.0709 -0.3320
  239MOL    O3933835   1.659   2.385   3.494  0.6099  0.3861  0.4540
  239MOL    H4033836   1.510   2.205   3.496  1.0126  2.5122 -0.6043
  239MOL    H4133837   1.555   2.138   3.656  0.7543  1.1810  0.0699
  239MOL    H4233838   1.766   2.284   3.643  0.3258  1.3001 -0.2673
  239MOL    H4333839   1.609   2.340   3.691 -0.2103  0.3827 -0.7479
  239MOL    C4433840   1.702   2.517   3.529  0.1256 -0.3904 -0.4013
  239MOL    C4533841   1.704   2.598   3.400  0.6673 -0.2532  0.6036
  239MOL    O4633842   1.588   2.668   3.367  0.0113  0.2834  0.2282
  239MOL    H4733843   1.654   2.573   3.610  0.3562  0.3112 -0.7505
  239MOL    H4833844   1.805   2.515   3.565 -0.1295  0.2162  0.3886
  239MOL    H4933845   1.734   2.533   3.317  0.4762 -1.7695  1.7045
  239MOL    H5033846   1.784   2.672   3.398 -0.9078  1.5660  2.5445
  239MOL    C5133847   1.585   2.708   3.233 -0.5082  0.4707 -0.2024
  239MOL    C5233848   1.488   2.829   3.227 -0.2132 -0.1358 -0.3430
  239MOL    O5333849   1.353   2.806   3.265  0.2148  0.2543 -0.6178
  239MOL    H5433850   1.683   2.732   3.190 -0.3630 -1.2253 -0.8466
  239MOL    H5533851   1.541   2.632   3.169  0.8409  0.4859 -1.1729
  239MOL    H5633852   1.492   2.860   3.123 -1.2264 -0.5868 -0.5258
  239MOL    H5733853   1.544   2.907   3.278 -1.5493  0.7413 -0.1858
  239MOL    C5833854   1.285   2.926   3.299  0.3101  0.2438  0.4266
  239MOL    C5933855   1.136   2.881   3.334  0.9611  0.0604  0.5209
  239MOL    O6033856   1.070   2.839   3.213 -0.6884 -0.2245 -0.1647
  239MOL    H6133857   1.326   2.977   3.386 -0.8924  0.7300  0.7167
  239MOL    H6233858   1.303   2.997   3.218 -1.5843 -2.1229 -2.1782
  239MOL    H6333859   1.083   2.967   3.376 -0.5068 -0.1702 -0.8390
  239MOL    H6433860   1.132   2.794   3.400 -0.9641  0.4676  0.9901
  239MOL    C6533861   0.952   2.917   3.188 -0.0179 -0.4429 -0.8331
  239MOL    C6633862   0.982   3.043   3.109 -0.3843  0.3781 -0.2131
  239MOL    O6733863   1.036   3.146   3.188 -0.1905 -0.2565  0.1327
  239MOL    H6833864   0.894   2.842   3.133  0.4619 -0.5609 -1.1847
  239MOL    H6933865   0.898   2.930   3.282  0.3359  1.6364 -0.8922
  239MOL    H7033866   0.892   3.074   3.055  1.0813  2.7957 -1.3590
  239MOL    H7133867   1.056   3.011   3.035  0.1662 -0.8576  0.8677
  239MOL    C7233868   1.044   3.273   3.113 -0.1493 -0.0731  0.2235
  239MOL    C7333869   1.159   3.269   3.008 -0.4572  0.7371 -0.3681
  239MOL    O7433870   1.278   3.294   3.071  0.1070 -0.6946  0.5058
  239MOL    H7533871   0.951   3.293   3.060 -0.0238 -1.2631 -0.4705
  239MOL    H7633872   1.072   3.358   3.176 -0.0978  1.3348 -1.6413
  239MOL    H7733873   1.141   3.357   2.947 -1.3831  0.2480 -0.8027
  239MOL    H7833874   1.166   3.178   2.948 -1.9982  1.3826 -1.5566
  239MOL    C7933875   1.388   3.285   2.981  0.3686 -0.1438  0.5829
  239MOL    C8033876   1.515   3.333   3.049 -0.2671 -0.4487 -0.1569
  239MOL    O8133877   1.559   3.234   3.147 -0.5923  0.2200  0.0192
  239MOL    H8233878   1.397   3.183   2.944 -0.9457  0.1189 -0.4745
  239MOL    H8333879   1.372   3.354   2.898 -0.7794  0.6945  1.4791
  239MOL    H8433880   1.497   3.427   3.100 -2.8811 -2.2791  2.4224
  239MOL    H8533881   1.587   3.352   2.969 -0.0909 -0.5620 -0.0235
  239MOL    C8633882   1.667   3.286   3.223 -0.1718 -0.6610  0.0783
  239MOL    C8733883   1.711   3.183   3.328 -0.3247  0.0865  0.1414
  239MOL    O8833884   1.818   3.100   3.283  0.4700 -0.4756  0.3000
  239MOL    H8933885   1.746   3.320   3.156 -0.7225 -1.5230 -1.0181
  239MOL    H9033886   1.643   3.373   3.285 -0.4977 -1.1697  0.6714
  239MOL    H9133887   1.625   3.130   3.368 -0.0358  0.1177  0.8080
  239MOL    H9233888   1.738   3.230   3.422  0.4271  1.0245 -0.5214
  239MOL    C9333889   1.847   2.993   3.362 -0.8325  0.4062 -0.2718
  239MOL    C9433890   1.959   2.900   3.309 -0.2785 -0.0275 -0.2789
  239MOL    O9533891   1.985   2.790   3.391 -0.0164 -0.7527  0.4349
  239MOL    H9633892   1.880   3.042   3.453 -1.9134  0.5109  0.0757
  239MOL    H9733893   1.756   2.933   3.373  0.6822 -1.7107  1.1426
  239MOL    H9833894   2.053   2.955   3.303  0.2416 -0.9588 -0.7527
  239MOL    H9933895   1.940   2.869   3.207  1.5122 -1.5955 -0.1615
  239MOL   C10033896   2.062   2.678   3.333 -0.2578 -0.0883  0.0934
  239MOL   C10133897   2.135   2.628   3.458 -0.4810  0.8797 -0.4128
  239MOL   O10233898   2.224   2.527   3.413  0.0922 -0.3641  0.1254
  239MOL   H10333899   1.993   2.607   3.289 -0.5401 -1.4849  2.7152
  239MOL   H10433900   2.132   2.708   3.255  0.3147  2.0468  1.3745
  239MOL   H10533901   2.077   2.601   3.546  3.7928 -1.0181  1.9399
  239MOL   H10633902   2.206   2.704   3.491 -0.6735  0.0452  1.9607
  239MOL   C10733903   2.285   2.461   3.530 -0.4608 -0.1887 -1.0982
  239MOL   C10833904   2.364   2.335   3.502 -0.3085 -0.2471  0.2411
  239MOL   O10933905   2.384   2.260   3.620  0.0383  0.1447 -0.3536
  239MOL   H11033906   2.341   2.540   3.581  0.9323 -0.5953 -1.9632
  239MOL   H11133907   2.203   2.435   3.597 -1.6454  0.6590 -2.1935
  239MOL   H11233908   2.459   2.363   3.458 -0.1977  1.0614  1.2856
  239MOL   H11333909   2.309   2.281   3.424  0.3646  0.6764 -0.8870
  239MOL   C11433910   2.465   2.143   3.605 -0.1242  0.2614 -0.0581
  239MOL   C11533911   2.457   2.063   3.742  0.6250 -0.2915 -0.7199
  239MOL   O11633912   2.545   2.117   3.837 -0.2886 -0.2988  0.7065
  239MOL   H11733913   2.410   2.081   3.535 -1.3496 -1.4820  2.3575
  239MOL   H11833914   2.569   2.155   3.575  0.2257 -2.2496  0.0380
  239MOL   H11933915   2.492   1.961   3.730 -1.2159 -1.4713  2.9879
  239MOL   H12033916   2.358   2.051   3.787  1.0852 -1.8680 -0.0871
  239MOL   C12133917   2.497   2.235   3.904  0.4594  0.6547  0.8922
  239MOL   C12233918   2.578   2.247   4.030 -0.3547  1.0979 -0.6233
  239MOL   O12333919   2.701   2.303   3.993  0.7637  0.8103 -0.7113
  239MOL   H12433920   2.512   2.328   3.849 -1.3667 -0.3184 -1.3400
  239MOL   H12533921   2.392   2.234   3.932  0.6592  3.1564  1.8295
  239MOL   H12633922   2.581   2.154   4.087 -1.0896  2.0109  0.9539
  239MOL   H12733923   2.526   2.319   4.093 -0.7489 -0.1525  0.5001
  239MOL   C12833924   2.787   2.322   4.098  0.2039 -0.0433 -0.0843
  239MOL   C12933925   2.917   2.365   4.042 -0.4035  0.3902  0.3846
  239MOL   O13033926   2.979   2.260   3.971  0.1052 -0.1751  0.3324
  239MOL   H13133927   2.744   2.395   4.166  1.5028 -1.2846  2.1250
  239MOL   H13233928   2.807   2.226   4.146 -0.2618 -0.4427 -0.6797
  239MOL   H13333929   2.989   2.385   4.121 -0.5722 -0.6438  0.8156
  239MOL   H13433930   2.903   2.448   3.973 -0.2397  0.8483  0.9040
  239MOL   C13533931   3.107   2.296   3.918 -0.2768 -0.1481  0.5653
  239MOL   C13633932   3.178   2.177   3.859 -0.3088 -0.2144  0.1494
  239MOL   O13733933   3.148   2.158   3.724 -0.1130  0.2990 -0.3836
  239MOL   H13833934   3.101   2.371   3.839  0.0377 -1.1658 -0.4483
  239MOL   H13933935   3.165   2.341   3.997 -2.1156  1.6591  0.9311
  239MOL   H14033936   3.154   2.092   3.923  0.9812 -0.2096  0.6610
  239MOL   H14133937   3.285   2.197   3.867 -0.5209  1.7011 -1.4777
  239MOL   H14233938   3.074   2.098   3.720  1.8890 -2.1382 -3.3580
  240MOL     C133939   0.251   1.812   1.127  0.7381 -0.4341  0.5476
  240MOL     C233940   0.169   1.695   1.166  0.4516  0.2259  0.1038
  240MOL     O333941   0.235   1.610   1.259  0.2685 -0.2593  0.5193
  240MOL     H433942   0.225   1.857   1.031  1.1805 -0.6775  0.3146
  240MOL     H533943   0.354   1.783   1.110  0.3499 -1.9396  0.7222
  240MOL     H633944   0.151   1.637   1.076  0.9593 -0.4154  0.4114
  240MOL     H733945   0.069   1.726   1.198 -0.0249 -1.6730  0.4929
  240MOL     H833946   0.230   1.885   1.206  3.2929  0.9958 -0.0566
  240MOL     C933947   0.257   1.662   1.391  0.0243  0.7556  0.7332
  240MOL    C1033948   0.294   1.539   1.470  0.3947 -0.2657  0.0529
  240MOL    O1133949   0.318   1.578   1.603  0.6730  0.0682  0.0872
  240MOL    H1233950   0.335   1.737   1.381 -1.1219  1.4479 -3.8598
  240MOL    H1333951   0.166   1.709   1.428 -1.4225 -0.9529 -0.5992
  240MOL    H1433952   0.384   1.492   1.433  1.6283  0.9454  1.4187
  240MOL    H1533953   0.220   1.460   1.458  0.2571 -0.0864 -0.2717
  240MOL    C1633954   0.368   1.475   1.690 -0.7159 -0.3191 -0.4250
  240MOL    C1733955   0.405   1.537   1.826  0.3287  0.2238 -0.0197
  240MOL    O1833956   0.295   1.519   1.915 -0.5135  0.3165  0.2446
  240MOL    H1933957   0.283   1.408   1.694  0.0147 -1.1949  0.6513
  240MOL    H2033958   0.455   1.426   1.645  1.9473  2.6168  1.2910
  240MOL    H2133959   0.444   1.638   1.829 -1.7067  1.0329 -0.3818
  240MOL    H2233960   0.476   1.478   1.885 -0.3382 -0.7418 -0.1666
  240MOL    C2333961   0.194   1.623   1.916  0.5686 -0.2751  0.1525
  240MOL    C2433962   0.073   1.560   1.991 -0.2818 -0.0966  0.4561
  240MOL    O2533963   0.079   1.553   2.131 -0.2968  0.6916  0.5413
  240MOL    H2633964   0.211   1.725   1.951  0.5800 -0.2012 -0.0657
  240MOL    H2733965   0.169   1.633   1.810 -1.1397 -2.6863  0.2766
  240MOL    H2833966   0.064   1.461   1.946  0.9225 -0.2403  0.5112
  240MOL    H2933967   7.761   1.624   1.962 -1.6237 -0.3786  3.4883
  240MOL    C3033968   7.740   1.504   2.200 -0.5849 -0.0828 -0.1112
  240MOL    C3133969   0.030   1.482   2.343 -0.1505  0.5534  0.3916
  240MOL    O3233970   0.041   1.598   2.422  0.2327 -0.0318  0.0162
  240MOL    H3333971   7.655   1.572   2.193 -0.1387  0.2829 -2.7692
  240MOL    H3433972   7.706   1.409   2.158 -1.8977  1.3231 -2.3002
  240MOL    H3533973   0.114   1.412   2.339  1.9253  2.9819  0.4539
  240MOL    H3633974   7.730   1.417   2.394 -0.3459  0.8390  0.4896
  240MOL    C3733975   0.127   1.565   2.531 -0.1875  0.1581 -0.5123
  240MOL    C3833976   0.141   1.698   2.616 -0.3026 -0.1134 -0.0939
  240MOL    O3933977   0.055   1.681   2.729 -0.7487 -0.0896  0.1894
  240MOL    H4033978   0.093   1.471   2.575  1.1717  0.1164  0.4783
  240MOL    H4133979   0.227   1.535   2.501  0.5174  2.2717 -0.3941
  240MOL    H4233980   0.107   1.788   2.564 -1.3400 -0.1315  0.5548
  240MOL    H4333981   0.248   1.711   2.638 -0.3839 -1.9969  1.5266
  240MOL    C4433982   0.070   1.789   2.821 -0.3887  0.2140 -0.2359
  240MOL    C4533983   7.753   1.760   2.934 -0.0149 -0.4416 -0.5182
  240MOL    O4633984   0.033   1.667   3.034  0.0501  0.4366  0.8020
  240MOL    H4733985   0.172   1.800   2.858 -0.3583 -0.8296  0.0053
  240MOL    H4833986   0.034   1.882   2.777 -0.2124 -0.0874 -1.0180
  240MOL    H4933987   7.665   1.715   2.889 -0.4212 -0.3499  0.1784
  240MOL    H5033988   7.702   1.848   2.974  0.9169 -0.2810  0.3437
  240MOL    C5133989   7.718   1.645   3.144 -0.4415 -0.3407  0.0617
  240MOL    C5233990   0.027   1.616   3.275 -0.1132  0.0194  0.2549
  240MOL    O5333991   7.714   1.585   3.385 -0.4719  0.1335 -0.0263
  240MOL    H5433992   7.654   1.731   3.166 -1.1907 -1.2546  1.6010
  240MOL    H5533993   7.645   1.570   3.112 -0.5738  0.6984 -2.1241
  240MOL    H5633994   0.102   1.689   3.305 -0.0145  0.5055 -1.1435
  240MOL    H5733995   0.093   1.530   3.262 -1.1094 -0.6214 -0.7037
  240MOL    C5833996   7.660   1.688   3.462 -0.3124 -0.2655  0.3568
  240MOL    C5933997   7.571   1.631   3.577  0.1948 -0.8300 -0.4112
  240MOL    O6033998   7.644   1.571   3.680 -0.1466 -0.0394 -0.2604
  240MOL    H6133999   7.747   1.745   3.495 -0.8695  1.2970 -0.8047
  240MOL    H6234000   7.602   1.757   3.400  0.5131 -0.3161 -0.4817
  240MOL    H6334001   7.512   1.544   3.551 -0.9648  0.1161 -0.9739
  240MOL    H6434002   7.491   1.700   3.605  1.1933  0.5968 -0.9683
  240MOL    C6534003   7.711   1.670   3.757 -1.0683 -0.4640  0.1059
  240MOL    C6634004   0.027   1.608   3.867 -0.2886 -0.2639 -0.7950
  240MOL    O6734005   0.123   1.706   3.896 -0.3022  0.1701  0.4359
  240MOL    H6834006   0.001   1.736   3.696  0.5392 -0.9369  1.1634
  240MOL    H6934007   7.627   1.720   3.805 -1.4253 -1.5223  0.5856
  240MOL    H7034008   0.077   1.522   3.821  1.4926  0.1916  0.2358
  240MOL    H7134009   7.740   1.566   3.949  1.8601  2.1381  2.0440
  240MOL    C7234010   0.211   1.656   4.006  0.3643  0.7652 -0.0090
  240MOL    C7334011   0.327   1.757   4.033 -0.6396 -0.9548  0.8988
  240MOL    O7434012   0.426   1.723   3.931  0.2468  0.7773  0.1959
  240MOL    H7534013   0.158   1.641   4.100  0.3406 -1.8240 -0.4041
  240MOL    H7634014   0.253   1.557   3.992 -2.1651 -0.8967  3.4793
  240MOL    H7734015   0.367   1.744   4.134  0.3225  2.8674  1.0963
  240MOL    H7834016   0.289   1.859   4.033 -1.1615 -1.1340 -0.5806
  240MOL    C7934017   0.515   1.815   3.867 -0.6003  0.1240  0.0888
  240MOL    C8034018   0.436   1.919   3.785  0.1955 -0.0598 -0.5575
  240MOL    O8134019   0.522   1.973   3.682  0.0537  0.3609 -0.0505
  240MOL    H8234020   0.580   1.860   3.942  0.8427 -0.8752 -0.5596
  240MOL    H8334021   0.570   1.754   3.795 -1.5512 -0.4725 -0.1397
  240MOL    H8434022   0.392   1.998   3.846 -0.7447  0.0173 -1.3299
  240MOL    H8534023   0.354   1.876   3.728  1.3340 -0.1926 -2.1221
  240MOL    C8634024   0.450   2.061   3.594 -0.0060 -0.5728 -0.7590
  240MOL    C8734025   0.543   2.152   3.504 -0.2989 -0.4663 -0.2774
  240MOL    O8834026   0.610   2.071   3.405 -0.0707 -0.0404  0.0127
  240MOL    H8934027   0.382   2.000   3.535 -0.8924 -1.2632  0.9513
  240MOL    H9034028   0.377   2.125   3.644 -0.9196  0.1858 -2.9812
  240MOL    H9134029   0.602   2.206   3.577  1.1239 -0.8042 -1.1461
  240MOL    H9234030   0.468   2.219   3.460  0.2688  0.0127 -0.5153
  240MOL    C9334031   0.701   2.144   3.326  0.0048 -0.0991 -0.3576
  240MOL    C9434032   0.810   2.207   3.408  0.2202  0.5336  0.6591
  240MOL    O9534033   0.780   2.343   3.436 -0.5500 -0.0400 -0.9934
  240MOL    H9634034   0.755   2.075   3.260  0.8823  0.7978 -0.5821
  240MOL    H9734035   0.642   2.208   3.260  0.0456  0.6691  0.3476
  240MOL    H9834036   0.900   2.196   3.347 -0.7503 -2.1694 -0.3556
  240MOL    H9934037   0.835   2.148   3.496 -1.1984 -0.3917  0.4449
  240MOL   C10034038   0.883   2.401   3.511 -0.4875  0.4024 -0.1397
  240MOL   C10134039   0.910   2.550   3.473 -0.0632  0.4823  0.5291
  240MOL   O10234040   0.811   2.632   3.524  0.3146  0.1577 -0.3814
  240MOL   H10334041   0.855   2.389   3.616 -0.5894  2.5285  0.1055
  240MOL   H10434042   0.977   2.348   3.495 -1.3496 -0.8590 -1.1112
  240MOL   H10534043   0.931   2.554   3.367 -0.0221 -3.4753  0.3213
  240MOL   H10634044   0.995   2.579   3.536 -0.3556  0.5342  0.9074
  240MOL   C10734045   0.709   2.650   3.429  1.2221 -0.1779  0.6585
  240MOL   C10834046   0.602   2.751   3.479 -0.9458  0.1693  0.9981
  240MOL   O10934047   0.535   2.696   3.591 -0.3770 -0.4889 -0.1780
  240MOL   H11034048   0.747   2.680   3.332  2.7772  1.6125  1.7729
  240MOL   H11134049   0.656   2.559   3.402  0.3466  0.0806  1.4848
  240MOL   H11234050   0.528   2.757   3.400  0.3135 -1.8667 -0.3700
  240MOL   H11334051   0.637   2.850   3.508  2.9048 -0.0963 -2.1882
  240MOL   C11434052   0.429   2.776   3.633  0.7065 -0.4675 -0.5655
  240MOL   C11534053   0.330   2.667   3.676  0.3410  0.6444 -0.6002
  240MOL   O11634054   0.254   2.621   3.565 -0.1633  0.1882  0.1255
  240MOL   H11734055   0.456   2.844   3.714 -2.6313  1.2748 -0.8530
  240MOL   H11834056   0.384   2.841   3.558  1.1152  0.2714 -0.1794
  240MOL   H11934057   0.267   2.716   3.750  1.1640 -0.4768  0.8863
  240MOL   H12034058   0.374   2.590   3.741  0.3142  0.1585 -1.1559
  240MOL   C12134059   0.311   2.514   3.498 -0.1917  0.2051 -0.4491
  240MOL   C12234060   0.216   2.443   3.400  0.2750 -0.0510  0.1365
  240MOL   O12334061   0.197   2.525   3.280  0.4346  0.5418  0.8414
  240MOL   H12434062   0.399   2.541   3.439 -0.1323  2.3030  0.5451
  240MOL   H12534063   0.342   2.445   3.577  0.9486  0.2186 -0.8764
  240MOL   H12634064   0.128   2.419   3.459  0.2895 -1.6386 -0.4771
  240MOL   H12734065   0.252   2.345   3.368 -2.5546 -0.7312 -1.0672
  240MOL   C12834066   0.074   2.605   3.289 -0.4085 -0.0655 -0.0800
  240MOL   C12934067   7.740   2.540   3.199 -0.2133  0.1453  0.1710
  240MOL   O13034068   7.681   2.437   3.277 -0.0576 -0.0952 -0.0963
  240MOL   H13134069   0.045   2.637   3.389  0.4461  0.5228 -0.0082
  240MOL   H13234070   0.103   2.700   3.244 -1.1419 -1.1866 -3.0483
  240MOL   H13334071   0.012   2.504   3.105  0.9832 -1.2317  1.2122
  240MOL   H13434072   7.668   2.619   3.181 -0.1004  0.0806 -0.5743
  240MOL   C13534073   7.596   2.347   3.202 -0.1912 -0.1215 -0.1904
  240MOL   C13634074   7.551   2.229   3.293  0.5886 -0.6908 -0.1492
  240MOL   O13734075   7.629   2.114   3.255  0.3270  0.0987  0.0615
  240MOL   H13834076   7.519   2.407   3.154  1.0674  1.4885 -0.2475
  240MOL   H13934077   7.656   2.308   3.121 -1.0490 -1.0175 -0.4021
  240MOL   H14034078   7.444   2.218   3.274  0.0013 -0.2853  2.6588
  240MOL   H14134079   7.568   2.245   3.400  0.8976 -1.7363 -0.0393
  240MOL   H14234080   7.718   2.145   3.246  0.5445  0.1339  2.0276
  241MOL     C134081   7.135   7.650   2.620 -0.9451  0.3348  0.6630
  241MOL     C234082   7.251   7.595   2.714  0.1257  0.2105  0.0633
  241MOL     O334083   7.317   7.704   2.775 -0.6457  0.2001 -0.3592
  241MOL     H434084   7.086   7.563   2.578 -1.1929  0.4824  0.6495
  241MOL     H534085   7.182   7.709   2.541  0.8918 -2.3658 -0.3195
  241MOL     H634086   7.321   7.531   2.662  0.2659  0.2010  0.2632
  241MOL     H734087   7.205   7.531   2.789  1.6251 -0.0562  0.7617
  241MOL     H834088   7.055   7.705   2.669 -0.7040  3.2598 -2.0733
  241MOL     C934089   7.411   7.672   2.875 -0.3749  0.0930 -0.4708
  241MOL    C1034090   7.520   0.013   2.881 -0.6729  0.4293 -0.3524
  241MOL    O1134091   7.628   7.755   2.789  0.1886  0.3919  0.3686
  241MOL    H1234092   7.367   7.671   2.974  0.7463  2.1008  0.0644
  241MOL    H1334093   7.465   7.578   2.861  1.0238  0.9858 -1.2022
  241MOL    H1434094   7.567   0.029   2.978  2.0086 -0.7916 -1.3793
  241MOL    H1534095   7.482   0.111   2.856  0.1867  0.7417 -0.4615
  241MOL    C1634096   7.732   0.081   2.788  0.5708 -0.2924 -0.4563
  241MOL    C1734097   0.094   0.013   2.785 -0.0775  0.1756  0.0234
  241MOL    O1834098   0.117   7.730   2.915  0.2209  0.0806  0.3242
  241MOL    H1934099   7.731   0.143   2.698 -3.3912  1.0949  0.4451
  241MOL    H2034100   7.730   0.138   2.882 -0.3749  0.2926 -0.8272
  241MOL    H2134101   0.163   0.093   2.758 -2.9831  2.4044 -0.9823
  241MOL    H2234102   0.098   7.701   2.715 -0.5930  0.3430 -0.2041
  241MOL    C2334103   0.256   7.706   2.945  0.4488 -0.1599  0.3315
  241MOL    C2434104   0.281   7.633   3.079  0.2647  0.2320 -0.6147
  241MOL    O2534105   0.408   7.578   3.086 -0.4417 -0.0431  0.2322
  241MOL    H2634106   0.296   7.646   2.863 -1.7248 -0.2516 -0.7155
  241MOL    H2734107   0.307   0.031   2.947 -2.4707  1.4393  0.8643
  241MOL    H2834108   0.219   7.546   3.100 -1.6391  1.2668 -1.8112
  241MOL    H2934109   0.255   7.701   3.161  1.2954  0.6770 -0.6562
  241MOL    C3034110   0.502   7.673   3.137 -0.5734  0.2931 -0.4334
  241MOL    C3134111   0.652   7.640   3.115 -0.3344 -0.2855 -0.3993
  241MOL    O3234112   0.668   7.682   2.978  0.1918  0.7278 -0.8962
  241MOL    H3334113   0.483   7.771   3.093  0.7605  1.0893  0.7328
  241MOL    H3434114   0.485   7.679   3.245 -0.9509 -1.2701 -0.3920
  241MOL    H3534115   0.677   7.538   3.144 -0.9600  0.2060  1.9778
  241MOL    H3634116   0.709   7.714   3.172 -2.0608  1.1162 -0.4304
  241MOL    C3734117   0.677   7.572   2.880  0.3414 -1.2828 -0.2772
  241MOL    C3834118   0.808   7.507   2.887  0.2120 -0.0197 -0.0824
  241MOL    O3934119   0.828   7.412   2.987 -0.0185 -0.9495 -0.4679
  241MOL    H4034120   0.588   7.508   2.884  0.0778 -0.9217 -0.3633
  241MOL    H4134121   0.667   7.624   2.785  1.9047  0.6380  0.5815
  241MOL    H4234122   0.886   7.582   2.883 -1.3465  1.8213  2.6319
  241MOL    H4334123   0.815   7.457   2.790  0.9377 -1.0120  0.4734
  241MOL    C4434124   0.957   7.356   2.971 -0.5879 -0.1419  0.1830
  241MOL    C4534125   0.974   7.213   3.031  0.3254 -0.2428 -0.6321
  241MOL    O4634126   1.033   7.230   3.158 -0.4889  0.3023 -0.1268
  241MOL    H4734127   0.979   7.335   2.866  3.5346  0.4322  0.8558
  241MOL    H4834128   1.023   7.433   3.011 -0.4217 -1.7352  3.1152
  241MOL    H4934129   1.024   7.150   2.957 -0.3094 -0.6817 -0.6934
  241MOL    H5034130   0.885   7.150   3.041 -0.2349  0.8260  1.2197
  241MOL    C5134131   1.044   7.106   3.225 -0.0348 -0.2505 -0.1399
  241MOL    C5234132   1.133   7.137   3.350  0.0822  0.1664  1.0296
  241MOL    O5334133   1.078   7.228   3.450  0.9021  0.8589  0.4867
  241MOL    H5434134   0.948   7.061   3.248  1.1092 -1.9859  1.3562
  241MOL    H5534135   1.105   7.033   3.171  1.7026 -0.2812  1.7903
  241MOL    H5634136   1.231   7.178   3.328  0.3642 -0.7056  0.6523
  241MOL    H5734137   1.160   7.042   3.396  0.5978  0.0501  0.4861
  241MOL    C5834138   1.162   7.246   3.560 -0.0548 -0.5356  0.1338
  241MOL    C5934139   1.120   7.161   3.673  0.2477  0.3240  0.0332
  241MOL    O6034140   1.145   7.027   3.647 -0.3370 -0.1649 -0.2006
  241MOL    H6134141   1.266   7.223   3.535  0.3411  0.6601  0.6370
  241MOL    H6234142   1.165   7.351   3.590 -1.2348 -0.8544  1.3766
  241MOL    H6334143   1.013   7.172   3.684  0.2475 -0.5370  0.9390
  241MOL    H6434144   1.164   7.194   3.767  1.0184  0.0796 -0.2349
  241MOL    C6534145   1.100   6.927   3.739 -0.5045 -0.1336  0.0138
  241MOL    C6634146   1.134   6.931   3.891 -0.2306  0.0181  0.5587
  241MOL    O6734147   1.047   7.031   3.943  0.1713 -0.3198  0.0513
  241MOL    H6834148   0.992   6.932   3.732 -0.3411  1.7302 -1.6935
  241MOL    H6934149   1.122   6.832   3.689 -0.1501  0.7267 -1.4870
  241MOL    H7034150   1.240   6.950   3.909 -0.1493 -1.8515  2.1848
  241MOL    H7134151   1.104   6.840   3.942 -0.6630 -0.1248  0.0496
  241MOL    C7234152   1.090   7.071   4.072 -0.1648  0.8767  0.4470
  241MOL    C7334153   1.191   7.188   4.055  0.3455  0.4508  0.9106
  241MOL    O7434154   1.126   7.309   4.022  0.2550  0.3424  0.2196
  241MOL    H7534155   0.999   7.088   4.130 -0.7629 -0.5688 -0.0445
  241MOL    H7634156   1.146   6.988   4.117 -1.7600 -0.1746  0.5359
  241MOL    H7734157   1.271   7.168   3.984 -1.2683 -0.1810 -0.7780
  241MOL    H7834158   1.239   7.217   4.149 -0.1960  2.2735  0.6510
  241MOL    C7934159   1.209   7.423   3.989 -0.1131  0.1083  0.2925
  241MOL    C8034160   1.119   7.539   3.938  0.0404  0.3422  0.4002
  241MOL    O8134161   1.069   7.512   3.803 -0.4583  0.4741 -0.4334
  241MOL    H8234162   1.261   7.448   4.081  0.3134  1.5084 -0.3257
  241MOL    H8334163   1.277   7.403   3.906  1.1410  2.4390  0.7387
  241MOL    H8434164   1.178   7.630   3.934  0.8023 -0.2397 -2.3291
  241MOL    H8534165   1.037   7.554   4.008  0.9938  0.5872  1.4811
  241MOL    C8634166   0.935   7.464   3.807 -0.0398  0.2236 -0.1326
  241MOL    C8734167   0.829   7.564   3.855  0.1432  0.0547  0.2224
  241MOL    O8834168   0.704   7.500   3.831 -0.8660  0.0722 -0.5785
  241MOL    H8934169   0.909   7.421   3.710  0.5686 -0.6209  0.0700
  241MOL    H9034170   0.935   7.380   3.876  1.6392  0.9162  0.7523
  241MOL    H9134171   0.832   7.661   3.806 -0.6892 -0.4685 -0.9043
  241MOL    H9234172   0.826   7.587   3.961  1.3077  1.7415 -0.0831
  241MOL    C9334173   0.591   7.587   3.858 -0.2177 -0.0865  0.2565
  241MOL    C9434174   0.464   7.542   3.779 -0.0184 -0.1787 -0.2113
  241MOL    O9534175   0.431   7.617   3.664 -0.0086  0.3183  0.0887
  241MOL    H9634176   0.567   7.588   3.965  0.0556  2.2316  0.3358
  241MOL    H9734177   0.614   7.691   3.836 -2.1953  0.5766  1.1047
  241MOL    H9834178   0.375   7.546   3.842  0.4645 -3.7547  0.8277
  241MOL    H9934179   0.490   7.437   3.765  1.3298 -0.0618  1.3269
  241MOL   C10034180   0.509   7.588   3.553  0.1602 -0.2670  0.0676
  241MOL   C10134181   0.508   7.441   3.504  0.7550  0.6974  0.2175
  241MOL   O10234182   0.605   7.366   3.573  0.4030 -0.1653  0.2990
  241MOL   H10334183   0.473   7.640   3.464  0.2555 -1.1360 -0.4790
  241MOL   H10434184   0.609   7.627   3.573  0.4938 -0.9286 -0.3112
  241MOL   H10534185   0.548   7.456   3.404 -1.2735  1.0591 -0.5701
  241MOL   H10634186   0.405   7.406   3.501 -0.2473  3.6393 -1.6767
  241MOL   C10734187   0.605   7.223   3.559 -0.7622 -0.0581  0.0328
  241MOL   C10834188   0.656   7.176   3.419 -0.3502 -0.0641  0.4453
  241MOL   O10934189   0.556   7.197   3.320  0.6912  0.0399 -0.1991
  241MOL   H11034190   0.666   7.181   3.639 -0.1233 -0.5192 -0.6919
  241MOL   H11134191   0.509   7.177   3.580 -0.1980 -1.5039 -0.4545
  241MOL   H11234192   0.678   7.070   3.415  0.9880  0.2409 -0.5659
  241MOL   H11334193   0.744   7.230   3.385  1.7957 -3.3691  0.5779
  241MOL   C11434194   0.616   7.233   3.195  0.0529 -0.1090  0.0408
  241MOL   C11534195   0.512   7.267   3.086 -0.1878 -0.2384 -0.6898
  241MOL   O11634196   0.410   7.175   3.066  0.6373 -0.0943  0.6476
  241MOL   H11734197   0.688   7.314   3.212  0.2917 -0.2651 -0.2283
  241MOL   H11834198   0.675   7.148   3.160 -0.5119 -0.0642 -1.0269
  241MOL   H11934199   0.560   7.295   2.992  0.7610  0.4016 -0.0302
  241MOL   H12034200   0.471   7.362   3.122  1.2769  0.4985 -0.8850
  241MOL   C12134201   0.304   7.242   2.993  0.5814 -0.3057  0.1883
  241MOL   C12234202   0.215   7.139   2.927  0.0908 -0.1882 -0.0343
  241MOL   O12334203   0.290   7.075   2.827 -0.2913  0.2132  0.3346
  241MOL   H12434204   0.229   7.287   3.058  0.5623  1.3054 -0.9180
  241MOL   H12534205   0.337   7.317   2.920 -0.8814  0.3826  0.2062
  241MOL   H12634206   0.148   7.200   2.865  1.6253  1.5933  0.0251
  241MOL   H12734207   0.163   7.069   2.992  0.0381 -0.7781 -0.6962
  241MOL   C12834208   0.207   6.966   2.780  0.2147 -0.1558 -0.1533
  241MOL   C12934209   0.281   6.867   2.694  0.0359 -0.1911 -0.2402
  241MOL   O13034210   0.290   6.916   2.561  0.6044 -0.0599  0.7336
  241MOL   H13134211   0.184   6.905   2.867 -0.4239 -0.9823 -0.8875
  241MOL   H13234212   0.114   6.996   2.732 -1.4191 -3.2390  0.9278
  241MOL   H13334213   0.234   6.768   2.694  0.5639 -0.4624  1.1818
  241MOL   H13434214   0.377   6.857   2.746 -0.2186 -3.2702 -0.2789
  241MOL   C13534215   0.353   6.816   2.469 -0.7793  0.2274  0.1116
  241MOL   C13634216   0.406   6.901   2.358 -0.4377 -0.4277 -0.0420
  241MOL   O13734217   0.490   6.997   2.417 -0.1046 -0.2890 -0.0197
  241MOL   H13834218   0.438   6.772   2.520 -1.1025 -0.7623 -0.1881
  241MOL   H13934219   0.296   6.728   2.440  1.3273 -1.2018  0.2814
  241MOL   H14034220   0.323   6.930   2.294  0.5093 -1.4510 -1.7714
  241MOL   H14134221   0.462   6.830   2.298  2.1166  1.3819  0.1205
  241MOL   H14234222   0.442   7.039   2.486  2.1244  1.2213  0.6583
  242MOL     C134223   6.740   7.211   1.192  0.1976 -0.2262  0.5387
  242MOL     C234224   6.828   7.262   1.309 -0.3548 -0.2489 -0.5245
  242MOL     O334225   6.893   7.382   1.273  0.1152 -0.3127 -0.0548
  242MOL     H434226   6.788   7.211   1.094 -0.0783  1.2816  0.3904
  242MOL     H534227   6.653   7.272   1.166 -0.7793 -1.7689  0.1271
  242MOL     H634228   6.892   7.187   1.356  0.0451 -0.6782 -1.7376
  242MOL     H734229   6.758   7.290   1.387 -0.2294 -1.2888 -0.0288
  242MOL     H834230   6.697   7.112   1.207 -0.1207  0.0201  1.3078
  242MOL     C934231   6.969   7.442   1.384  0.1996 -0.3757 -0.2154
  242MOL    C1034232   7.013   7.582   1.332 -0.3366  0.5017 -0.3665
  242MOL    O1134233   6.918   7.675   1.383 -0.6457  0.3050 -0.3345
  242MOL    H1234234   6.912   7.449   1.476  2.0143 -0.4142  0.9278
  242MOL    H1334235   7.061   7.386   1.399  1.3323  1.0723 -1.5390
  242MOL    H1434236   7.016   7.583   1.223  1.4801  0.5396 -0.3318
  242MOL    H1534237   7.107   7.615   1.376  0.4344 -0.8139 -0.9722
  242MOL    C1634238   6.808   7.696   1.302 -0.6672  0.5109  0.3415
  242MOL    C1734239   6.697   0.003   1.377  0.2469 -0.3757  0.5475
  242MOL    O1834240   6.572   7.751   1.322  0.6062 -0.4491  0.0282
  242MOL    H1934241   6.830   7.749   1.210 -1.0434 -0.7382 -0.4884
  242MOL    H2034242   6.769   7.600   1.269 -0.8823  0.4551  0.7438
  242MOL    H2134243   6.718   0.110   1.382 -1.3693 -0.0782  1.4239
  242MOL    H2234244   6.707   7.743   1.481 -0.5533  0.3961  0.8528
  242MOL    C2334245   6.465   0.035   1.396  0.3171 -0.0493 -0.4419
  242MOL    C2434246   6.439   0.172   1.334  0.2176 -0.4021  0.0523
  242MOL    O2534247   6.534   0.271   1.358  0.5459 -0.0679 -0.0860
  242MOL    H2634248   6.380   7.738   1.390 -0.4449  0.7838  0.7035
  242MOL    H2734249   6.485   0.029   1.503 -0.9370 -2.6280 -0.2983
  242MOL    H2834250   6.337   0.208   1.336  0.1212 -0.6259 -0.8467
  242MOL    H2934251   6.455   0.156   1.228  1.4497  0.8465  0.0435
  242MOL    C3034252   6.522   0.344   1.476 -0.2016 -0.5154  0.0464
  242MOL    C3134253   6.616   0.471   1.475 -0.7286 -0.1549 -0.0216
  242MOL    O3234254   6.720   0.429   1.553 -0.2832  0.7430 -0.2907
  242MOL    H3334255   6.419   0.378   1.474 -0.8004 -2.2028  1.2497
  242MOL    H3434256   6.539   0.284   1.566  0.1115  0.0147  0.3421
  242MOL    H3534257   6.564   0.561   1.509 -1.2832  0.1759 -1.7262
  242MOL    H3634258   6.636   0.494   1.371 -2.8140 -1.5448 -0.7581
  242MOL    C3734259   6.814   0.538   1.576 -0.5491  0.1373 -0.0250
  242MOL    C3834260   6.928   0.489   1.670  0.6361 -0.3001  0.8375
  242MOL    O3934261   7.033   0.426   1.596  0.6719 -0.4975  0.0882
  242MOL    H4034262   6.849   0.580   1.482  0.7811 -0.0462  0.3823
  242MOL    H4134263   6.770   0.625   1.624 -0.6632  0.9029 -1.5079
  242MOL    H4234264   6.900   0.431   1.758  1.5319 -0.6258  0.9142
  242MOL    H4334265   6.977   0.580   1.706  0.8145 -0.1452  0.2086
  242MOL    C4434266   7.110   0.336   1.672 -0.1013 -0.0506  0.3412
  242MOL    C4534267   7.235   0.275   1.605 -0.3282  0.3007  1.2391
  242MOL    O4634268   7.347   0.365   1.622  0.1269  0.6322  0.0493
  242MOL    H4734269   7.142   0.383   1.765 -0.6954 -0.1090  0.5758
  242MOL    H4834270   7.046   0.252   1.699  0.4749 -0.0826  1.6236
  242MOL    H4934271   7.217   0.248   1.501  0.2804  1.7133  0.7599
  242MOL    H5034272   7.257   0.178   1.649  0.4672 -0.9361 -1.7799
  242MOL    C5134273   7.349   0.470   1.532  0.3620  0.3805 -0.7222
  242MOL    C5234274   7.456   0.570   1.574 -0.0005 -0.4934 -0.4227
  242MOL    O5334275   7.420   0.637   1.697  0.2156  0.1221  0.3651
  242MOL    H5434276   7.370   0.424   1.435  1.0237 -2.7354  0.8461
  242MOL    H5534277   7.254   0.519   1.513  1.4290  3.3143  1.1909
  242MOL    H5634278   7.464   0.652   1.502  1.3037  1.1397  1.5318
  242MOL    H5734279   7.552   0.519   1.581 -0.0925 -0.5363  0.6405
  242MOL    C5834280   7.523   0.716   1.757 -0.5917  0.1413 -0.2127
  242MOL    C5934281   7.462   0.782   1.880 -0.2442  0.5984  0.4620
  242MOL    O6034282   7.479   0.694   1.993  0.3287 -0.3254  1.0131
  242MOL    H6134283   7.603   0.644   1.773  2.1714  2.9888 -0.6242
  242MOL    H6234284   7.547   0.784   1.675 -3.3686  1.4554  0.0053
  242MOL    H6334285   7.356   0.797   1.859 -0.0699  1.7660  0.4037
  242MOL    H6434286   7.511   0.878   1.892 -0.2011  0.6251  0.0859
  242MOL    C6534287   7.603   0.704   2.057  0.3337  0.2975 -0.1022
  242MOL    C6634288   7.630   0.580   2.138  0.4639 -0.1452  0.2306
  242MOL    O6734289   7.571   0.581   2.269 -0.4764 -0.1051 -0.8593
  242MOL    H6834290   7.684   0.707   1.984  2.0565  1.1526  1.7946
  242MOL    H6934291   7.620   0.795   2.115  0.6513  0.8691 -1.0879
  242MOL    H7034292   7.738   0.569   2.152  0.8717 -0.1347 -2.5407
  242MOL    H7134293   7.601   0.489   2.086 -0.5342 -0.1378  0.7601
  242MOL    C7234294   7.431   0.598   2.261  0.0973  0.4127 -1.2480
  242MOL    C7334295   7.357   0.564   2.393  0.1913 -0.0697  0.4055
  242MOL    O7434296   7.371   0.426   2.427  0.0086 -0.2245 -0.4232
  242MOL    H7534297   7.408   0.700   2.228  2.2416  1.5054  0.5592
  242MOL    H7634298   7.392   0.525   2.189 -0.2556 -0.2584 -0.3847
  242MOL    H7734299   7.250   0.588   2.393  0.5293  1.5456 -0.0074
  242MOL    H7834300   7.405   0.627   2.468  0.9361 -2.5589  2.0594
  242MOL    C7934301   7.305   0.382   2.542 -0.7397 -0.2032 -0.0079
  242MOL    C8034302   7.380   0.410   2.670  0.1418  0.5201 -0.0530
  242MOL    O8134303   7.357   0.547   2.711 -0.2356 -0.0858  0.2608
  242MOL    H8234304   7.200   0.411   2.545 -0.9736 -1.0322 -0.0137
  242MOL    H8334305   7.302   0.274   2.527 -1.2725  0.0097 -1.5280
  242MOL    H8434306   7.488   0.403   2.660  0.0487 -1.9569  0.4003
  242MOL    H8534307   7.359   0.340   2.751  0.0858  0.6989  0.0851
  242MOL    C8634308   7.243   0.570   2.788  0.4007 -0.1557 -0.2222
  242MOL    C8734309   7.233   0.718   2.808 -0.3082  0.6003 -0.2358
  242MOL    O8834310   7.151   0.783   2.713 -0.2377 -0.4600 -0.2029
  242MOL    H8934311   7.157   0.543   2.726  0.5303  1.6407 -1.2228
  242MOL    H9034312   7.255   0.516   2.882  1.8259  0.6909  0.0917
  242MOL    H9134313   7.331   0.762   2.827 -0.1468 -0.1265  0.6272
  242MOL    H9234314   7.180   0.720   2.903 -2.0756 -0.6339 -1.1733
  242MOL    C9334315   7.215   0.843   2.602 -0.0201  0.2105  0.0853
  242MOL    C9434316   7.105   0.912   2.521  0.7592 -0.2648 -0.0139
  242MOL    O9534317   7.164   1.015   2.436 -0.3472  0.4026  0.6568
  242MOL    H9634318   7.278   0.922   2.641  2.2611 -0.7256 -1.6119
  242MOL    H9734319   7.257   0.763   2.542  0.4554 -0.4303  1.2642
  242MOL    H9834320   7.034   0.962   2.586  1.4898  1.1091 -0.2487
  242MOL    H9934321   7.055   0.839   2.458 -0.4168  0.5981 -0.1033
  242MOL   C10034322   7.083   1.121   2.391 -0.2855  0.6182 -0.8744
  242MOL   C10134323   7.100   1.238   2.484  0.6360  0.0237 -0.2660
  242MOL   O10234324   7.024   1.223   2.602 -0.5076 -0.1287 -0.0975
  242MOL   H10334325   7.124   1.161   2.298  1.4958 -0.0456 -0.3857
  242MOL   H10434326   6.978   1.096   2.374 -0.5440 -0.0050  1.5905
  242MOL   H10534327   7.069   1.324   2.426 -0.6450 -0.0098  0.3532
  242MOL   H10634328   7.201   1.256   2.520 -0.1476  2.1965  0.9655
  242MOL   C10734329   7.020   1.339   2.687  0.2953  0.0362  0.3295
  242MOL   C10834330   6.960   1.303   2.824  0.3944 -1.0330  0.3049
  242MOL   O10934331   6.966   1.423   2.907  0.1593 -0.3585  0.6804
  242MOL   H11034332   7.125   1.365   2.697  0.4326  0.4835 -1.9464
  242MOL   H11134333   6.967   1.415   2.630 -1.4574 -1.1160  0.3896
  242MOL   H11234334   7.021   1.220   2.859  2.5304  0.2399 -0.2818
  242MOL   H11334335   6.858   1.264   2.820  0.5771 -1.7799  2.5474
  242MOL   C11434336   6.942   1.384   3.043 -0.1041 -0.0554  0.5717
  242MOL   C11534337   6.936   1.511   3.137  0.0404 -0.1912  0.2166
  242MOL   O11634338   6.817   1.583   3.114  0.0311  0.3165 -0.1902
  242MOL   H11734339   6.846   1.334   3.052 -0.6915  1.0120  0.3019
  242MOL   H11834340   7.023   1.319   3.077 -0.0694 -0.1494  0.3140
  242MOL   H11934341   7.030   1.563   3.119  0.0030 -0.2396 -0.1366
  242MOL   H12034342   6.939   1.474   3.239  1.1635  0.1845  0.3276
  242MOL   C12134343   6.827   1.713   3.152 -0.4549 -0.6886 -0.6133
  242MOL   C12234344   6.794   1.744   3.299  0.6313 -0.8929 -0.1703
  242MOL   O12334345   6.824   1.886   3.326  0.1409 -0.0195  0.2141
  242MOL   H12434346   6.919   1.758   3.115 -0.2334  0.2921  1.0864
  242MOL   H12534347   6.751   1.764   3.092 -1.0191  1.4196  1.7860
  242MOL   H12634348   6.851   1.681   3.368  1.3438  0.0179  0.0826
  242MOL   H12734349   6.688   1.730   3.316  0.6145 -0.4749  0.0709
  242MOL   C12834350   6.732   1.933   3.427 -1.0264  0.8193  0.2851
  242MOL   C12934351   6.789   2.068   3.481 -0.1420  0.6621 -0.0474
  242MOL   O13034352   6.755   2.174   3.392  0.0582  0.1111  0.1791
  242MOL   H13134353   6.633   1.950   3.384 -0.7365  0.6148 -0.4779
  242MOL   H13234354   6.731   1.862   3.509 -0.2767  0.6154  0.1185
  242MOL   H13334355   6.897   2.074   3.492 -0.1275  1.7869 -0.7448
  242MOL   H13434356   6.748   2.082   3.582  1.9808 -0.5298  1.0020
  242MOL   C13534357   6.728   2.301   3.444  0.3524 -0.4633  0.3076
  242MOL   C13634358   6.706   2.387   3.314  0.1114  0.2218  0.5562
  242MOL   O13734359   6.824   2.389   3.236 -0.1781 -0.1787  0.0375
  242MOL   H13834360   6.658   2.305   3.527  0.9426 -0.2127  0.7998
  242MOL   H13934361   6.822   2.332   3.489  0.5705  1.4998 -1.4168
  242MOL   H14034362   6.691   2.492   3.339 -1.4508  0.1629 -0.0550
  242MOL   H14134363   6.614   2.360   3.261  0.1017  4.1320 -1.6302
  242MOL   H14234364   6.859   2.303   3.254  0.5650  0.1876  0.3585
  243MOL     C134365   7.462   5.194   0.822  0.2486  0.1719 -0.0721
  243MOL     C234366   7.344   5.258   0.897  0.1233 -0.4520  0.7757
  243MOL     O334367   7.397   5.375   0.956 -0.2827 -0.2146  0.0334
  243MOL     H434368   7.554   5.185   0.880  0.8338 -0.5124 -1.1046
  243MOL     H534369   7.485   5.244   0.729  1.7046 -2.0300 -0.9526
  243MOL     H634370   7.322   5.192   0.981  1.1387  1.1077  2.2839
  243MOL     H734371   7.252   5.270   0.839 -0.1241  0.8862  1.4491
  243MOL     H834372   7.422   5.098   0.788 -1.1035  1.0958 -1.1091
  243MOL     C934373   7.296   5.459   1.008  0.0918 -0.7836  0.3852
  243MOL    C1034374   7.265   5.411   1.146 -0.1151  0.3304 -0.3623
  243MOL    O1134375   7.172   5.303   1.148  0.4228  0.4262  0.0093
  243MOL    H1234376   7.356   5.550   1.013 -1.1439  0.0051  1.4492
  243MOL    H1334377   7.213   5.475   0.938  0.2368 -1.1844  0.1206
  243MOL    H1434378   7.216   5.490   1.202 -0.8797 -0.3243 -0.0857
  243MOL    H1534379   7.349   5.388   1.212 -0.6867  1.6422  0.8405
  243MOL    C1634380   7.153   5.251   1.277 -0.4313  0.0343  0.4822
  243MOL    C1734381   7.056   5.135   1.261  0.9156  0.8688 -0.5332
  243MOL    O1834382   6.927   5.191   1.258  0.1052  0.3299  0.1503
  243MOL    H1934383   7.243   5.204   1.318 -0.5811 -0.5006  0.2024
  243MOL    H2034384   7.129   5.329   1.349  1.3237 -0.5036  1.6872
  243MOL    H2134385   7.074   5.070   1.347  0.0395  1.0516 -0.1979
  243MOL    H2234386   7.082   5.086   1.168  1.3840  0.4251 -0.1644
  243MOL    C2334387   6.827   5.095   1.219  0.3927 -0.1613  0.1538
  243MOL    C2434388   6.692   5.172   1.229 -0.8385  0.2942  0.2638
  243MOL    O2534389   6.675   5.191   1.369 -0.2320  0.5744  0.2066
  243MOL    H2634390   6.849   5.051   1.122  1.1676  0.3898  0.0751
  243MOL    H2734391   6.821   5.007   1.283  2.0664 -1.0166 -0.8462
  243MOL    H2834392   6.610   5.109   1.194 -1.1300  1.1389 -0.6030
  243MOL    H2934393   6.688   5.264   1.171 -2.0351 -0.9536 -1.6932
  243MOL    C3034394   6.572   5.281   1.400  0.1445 -0.4786 -0.4001
  243MOL    C3134395   6.512   5.281   1.545 -0.0932  0.4665 -0.0066
  243MOL    O3234396   6.433   5.399   1.589 -0.0928  0.1416  0.6222
  243MOL    H3334397   6.608   5.381   1.375  0.6636 -0.6302 -0.2510
  243MOL    H3434398   6.485   5.258   1.337 -0.4749 -1.2912  0.7365
  243MOL    H3534399   6.598   5.261   1.608  1.2528  0.3715 -1.8345
  243MOL    H3634400   6.449   5.193   1.556 -0.6680  0.6732 -1.4629
  243MOL    C3734401   6.360   5.392   1.706  0.5020 -0.1337  0.2116
  243MOL    C3834402   6.443   5.412   1.837 -0.7572 -1.0574 -0.0967
  243MOL    O3934403   6.545   5.321   1.855 -0.1296  0.3075  0.2192
  243MOL    H4034404   6.279   5.465   1.706 -0.5643 -1.2990  0.5962
  243MOL    H4134405   6.293   5.306   1.716 -0.0090  0.4247  1.7547
  243MOL    H4234406   6.393   5.417   1.934 -0.5482  2.4432 -0.0736
  243MOL    H4334407   6.489   5.510   1.824  0.7195 -1.6622  0.4987
  243MOL    C4434408   6.644   5.368   1.953  0.2510 -0.7929 -1.0557
  243MOL    C4534409   6.745   5.258   1.985 -0.1546  0.2178  0.7676
  243MOL    O4634410   6.735   5.195   2.115  0.3665 -0.0790 -0.1252
  243MOL    H4734411   6.695   5.459   1.922 -0.4858  0.7268  1.9472
  243MOL    H4834412   6.592   5.407   2.041  3.0435  0.8672 -0.0725
  243MOL    H4934413   6.842   5.307   1.980  0.6880 -1.3000  1.8066
  243MOL    H5034414   6.743   5.178   1.911 -1.5444  1.8873 -1.0637
  243MOL    C5134415   6.858   5.147   2.167  0.3366 -0.0729  0.0545
  243MOL    C5234416   6.827   5.074   2.304  0.0762 -0.0366  0.9485
  243MOL    O5334417   6.892   5.147   2.407  0.3332  0.2255 -0.1339
  243MOL    H5434418   6.887   5.074   2.090  0.1379  1.1267 -1.1781
  243MOL    H5534419   6.932   5.226   2.181 -3.5822  3.3591  2.1817
  243MOL    H5634420   6.862   4.971   2.302  1.8266  0.5676 -1.4611
  243MOL    H5734421   6.721   5.053   2.323 -0.6448  3.0743  0.5553
  243MOL    C5834422   6.888   5.072   2.528 -0.3959  0.3877  0.1031
  243MOL    C5934423   7.009   5.108   2.616 -0.8953  0.7626 -0.3129
  243MOL    O6034424   6.991   5.226   2.688  0.2026 -0.3654  0.7653
  243MOL    H6134425   6.799   5.102   2.584 -0.6061 -1.4531  0.8025
  243MOL    H6234426   6.883   4.963   2.531 -0.3202  0.3733 -0.2923
  243MOL    H6334427   7.093   5.100   2.547 -0.5681 -1.1923  0.2847
  243MOL    H6434428   7.033   5.021   2.678  1.3257  0.7936 -1.1019
  243MOL    C6534429   7.110   5.292   2.724  0.2240  0.1044 -0.5657
  243MOL    C6634430   7.223   5.212   2.783  0.3661 -0.0715 -0.5067
  243MOL    O6734431   7.314   5.174   2.677  0.4090  0.5393 -0.2749
  243MOL    H6834432   7.134   5.358   2.641 -0.4717  1.0275 -0.0439
  243MOL    H6934433   7.080   5.368   2.795 -0.9757 -1.2224  0.3846
  243MOL    H7034434   7.192   5.115   2.824 -0.6321  1.2978  2.0979
  243MOL    H7134435   7.276   5.265   2.862  0.8009  1.6283 -1.9193
  243MOL    C7234436   7.418   5.102   2.723 -0.1651  0.7192  0.4272
  243MOL    C7334437   7.518   5.082   2.610  0.5234 -0.2018  0.4026
  243MOL    O7434438   7.595   5.194   2.578  0.5906  0.0927 -0.2509
  243MOL    H7534439   7.453   5.153   2.812 -3.4908 -0.0376  2.2438
  243MOL    H7634440   7.380   5.004   2.753 -1.9710  1.4219  0.4583
  243MOL    H7734441   7.478   5.053   2.513 -0.6393  1.7164  0.2907
  243MOL    H7834442   7.586   5.004   2.645  0.1297 -0.4537  0.6077
  243MOL    C7934443   7.723   5.182   2.524 -1.0513  0.4797  0.3836
  243MOL    C8034444   7.723   5.137   2.373  0.4266 -1.1432  0.7401
  243MOL    O8134445   7.686   5.000   2.367  0.2028  0.0767 -0.7822
  243MOL    H8234446   7.769   5.281   2.519 -0.8309  0.3365 -0.4525
  243MOL    H8334447   0.021   5.113   2.574 -0.6400  0.8602  0.3510
  243MOL    H8434448   0.059   5.145   2.350  0.2825 -1.6273 -0.1241
  243MOL    H8534449   7.665   5.198   2.303  1.0854 -0.5171  0.7254
  243MOL    C8634450   7.677   4.962   2.227  0.2411 -0.4319  0.4902
  243MOL    C8734451   7.644   4.814   2.212 -0.5965  0.1007 -0.0333
  243MOL    O8834452   7.635   4.764   2.079  0.3072  0.3648  0.2197
  243MOL    H8934453   7.603   5.024   2.178 -0.4226 -0.7505  1.0736
  243MOL    H9034454   7.766   4.982   2.167  0.8571 -1.7045  0.9393
  243MOL    H9134455   7.539   4.799   2.236 -0.7876  1.9553  0.3783
  243MOL    H9234456   7.701   4.752   2.280 -1.3425 -2.8914 -2.0297
  243MOL    C9334457   7.718   4.647   2.063 -0.0262 -0.6244 -0.0859
  243MOL    C9434458   7.662   4.528   2.144  0.0812 -0.4333  0.2800
  243MOL    O9534459   7.744   4.410   2.134 -0.6665  0.1948  0.1680
  243MOL    H9634460   7.719   4.621   1.957  0.4062 -1.7034  0.1749
  243MOL    H9734461   0.054   4.652   2.081  0.7755 -1.6141 -3.9995
  243MOL    H9834462   7.564   4.501   2.104 -0.6334  3.9784 -1.2645
  243MOL    H9934463   7.655   4.555   2.250 -2.3800 -0.3279  0.1277
  243MOL   C10034464   7.691   4.295   2.202  0.2998  0.2926 -1.0963
  243MOL   C10134465   7.668   4.310   2.356  0.1433 -0.1632 -0.5457
  243MOL   O10234466   7.539   4.351   2.411 -0.3884  0.1385 -0.8779
  243MOL   H10334467   7.609   4.249   2.147 -0.1128 -0.0560 -0.1918
  243MOL   H10434468   7.769   4.219   2.201  2.3407  2.1659  3.6836
  243MOL   H10534469   7.747   4.374   2.395  0.6722 -1.0629 -0.1059
  243MOL   H10634470   7.699   4.210   2.388  0.0669 -0.3600 -1.0718
  243MOL   C10734471   7.533   4.316   2.547 -0.2843  0.3477  0.9095
  243MOL   C10834472   7.396   4.361   2.595  0.0028 -0.8567 -0.1707
  243MOL   O10934473   7.410   4.498   2.636 -0.1077 -0.6267 -0.1203
  243MOL   H11034474   7.552   4.209   2.557 -2.1962  0.0264  1.4019
  243MOL   H11134475   7.599   4.380   2.605 -3.2993  2.0136  2.6435
  243MOL   H11234476   7.369   4.298   2.680 -3.2903  1.3494  0.5069
  243MOL   H11334477   7.323   4.343   2.516  0.0930 -2.8654  0.1911
  243MOL   C11434478   7.294   4.555   2.693  0.2210 -0.0726  0.1577
  243MOL   C11534479   7.307   4.699   2.730 -0.1714  0.0380  0.0348
  243MOL   O11634480   7.342   4.726   2.868  0.0842 -0.2689 -0.0188
  243MOL   H11734481   7.209   4.540   2.626 -0.1940 -0.5261  0.7737
  243MOL   H11834482   7.268   4.502   2.785  0.0964  1.2145  0.8823
  243MOL   H11934483   7.215   4.757   2.720  0.1601  0.4598 -0.6675
  243MOL   H12034484   7.376   4.751   2.663  0.3828  1.4016  1.6297
  243MOL   C12134485   7.474   4.688   2.903 -0.5555 -0.3918  0.1749
  243MOL   C12234486   7.487   4.670   3.055  0.4024 -0.1751 -1.0566
  243MOL   O12334487   7.545   4.548   3.082  0.1588 -0.4429 -0.7122
  243MOL   H12434488   7.510   4.598   2.853  0.6286  0.7454 -1.0648
  243MOL   H12534489   7.529   4.772   2.860  1.5886 -0.5552  2.4559
  243MOL   H12634490   7.393   4.684   3.108  1.0623 -1.6721  0.5725
  243MOL   H12734491   7.554   4.746   3.095 -1.1446  0.2720  0.7196
  243MOL   C12834492   7.562   4.536   3.224 -0.0239  0.0127  0.0755
  243MOL   C12934493   7.596   4.397   3.262  0.3240 -0.6296 -0.3240
  243MOL   O13034494   7.730   4.388   3.227 -0.0740 -0.3124  0.4483
  243MOL   H13134495   7.636   4.609   3.259  1.4150 -1.1737 -0.4639
  243MOL   H13234496   7.468   4.560   3.273  0.3468 -0.8849  1.2396
  243MOL   H13334497   7.540   4.325   3.201 -1.9962  0.9467 -0.1310
  243MOL   H13434498   7.583   4.367   3.366  0.2400 -0.1353 -0.1908
  243MOL   C13534499   0.041   4.285   3.283 -0.4296  0.2965  0.2117
  243MOL   C13634500   0.137   4.222   3.178  0.0628 -0.5203 -0.2482
  243MOL   O13734501   0.223   4.122   3.231  0.3902 -0.7398  0.4751
  243MOL   H13834502   0.111   4.326   3.356  1.3486 -1.0169 -0.7171
  243MOL   H13934503   7.745   4.208   3.323 -1.4759  0.4106 -1.3202
  243MOL   H14034504   0.195   4.294   3.121 -0.3148 -1.3757 -1.7486
  243MOL   H14134505   0.078   4.175   3.100 -1.9526  0.8491  0.3997
  243MOL   H14234506   0.267   4.156   3.307 -1.6285  1.4879  0.7330
  244MOL     C134507   7.403   4.880   4.310  0.1609  0.3425  0.1269
  244MOL     C234508   7.509   4.852   4.199  0.0114 -0.2266  0.2440
  244MOL     O334509   7.597   4.956   4.177 -0.5181 -0.1591  0.1305
  244MOL     H434510   7.361   4.981   4.310  3.3799  1.7512  0.2712
  244MOL     H534511   7.451   4.871   4.407 -2.1619 -0.0015  1.2787
  244MOL     H634512   7.455   4.841   4.105  0.0986 -0.5425  0.2298
  244MOL     H734513   7.566   4.764   4.230  1.1577  0.7048  0.7917
  244MOL     H834514   7.316   4.817   4.295  0.7454 -0.1661 -1.2027
  244MOL     C934515   7.725   4.915   4.109  0.0179 -0.1486 -0.1927
  244MOL    C1034516   0.042   5.042   4.101 -0.1224 -0.1707 -0.6623
  244MOL    O1134517   7.754   5.128   4.014 -0.2398 -0.0842  0.1261
  244MOL    H1234518   0.014   4.833   4.147  0.3634 -0.8966 -2.2815
  244MOL    H1334519   7.691   4.895   4.007 -0.8102  1.3444 -0.2283
  244MOL    H1434520   0.141   5.014   4.067 -0.2120 -0.3924 -0.7394
  244MOL    H1534521   0.064   5.089   4.197  1.9103 -2.8914  0.2485
  244MOL    C1634522   0.050   5.252   3.980  1.0615  0.1354 -0.0754
  244MOL    C1734523   7.716   5.353   3.921 -0.4038  0.7208 -0.2109
  244MOL    O1834524   0.008   5.483   3.910 -0.1347 -0.3852  0.9743
  244MOL    H1934525   0.095   5.299   4.067  2.5381 -0.2423 -0.6154
  244MOL    H2034526   0.128   5.242   3.905 -0.4817  0.7786 -1.7841
  244MOL    H2134527   7.630   5.371   3.986  2.3283 -0.8119  4.1023
  244MOL    H2234528   7.683   5.321   3.823 -0.1905 -0.6726  0.1560
  244MOL    C2334529   7.694   5.577   3.848  0.2093 -0.0599 -0.1471
  244MOL    C2434530   7.758   5.705   3.814  0.3249  0.0149 -0.6375
  244MOL    O2534531   7.682   5.767   3.710  0.1366  0.2035 -0.2718
  244MOL    H2634532   7.651   5.533   3.757  1.4317 -2.0362  0.2024
  244MOL    H2734533   7.605   5.601   3.907  1.1161 -1.4116  1.8117
  244MOL    H2834534   0.093   5.697   3.789  1.3090  1.4466  2.8184
  244MOL    H2934535   7.754   5.765   3.905 -0.1182 -0.8080 -0.1037
  244MOL    C3034536   7.741   5.866   3.634  0.2465 -0.5821 -0.5994
  244MOL    C3134537   0.085   5.807   3.551  0.5178  0.5559 -0.0658
  244MOL    O3234538   0.038   5.711   3.460 -0.2902 -0.4991 -0.2761
  244MOL    H3334539   7.667   5.924   3.580 -1.6228 -0.8118  1.6472
  244MOL    H3434540   7.769   5.929   3.719  0.2512 -0.1759 -0.9008
  244MOL    H3534541   0.166   5.777   3.618  0.1291  1.5791  0.8834
  244MOL    H3634542   0.121   5.897   3.501  1.5722 -0.8808 -1.9505
  244MOL    C3734543   0.141   5.679   3.363  0.1439  0.4551  0.6139
  244MOL    C3834544   0.085   5.569   3.266  0.2933 -0.4649 -0.0975
  244MOL    O3934545   0.039   5.634   3.148 -0.2459 -0.7790 -0.3251
  244MOL    H4034546   0.181   5.769   3.316  0.8030  0.7781  1.7939
  244MOL    H4134547   0.225   5.637   3.418 -0.3897 -0.3928  0.7856
  244MOL    H4234548   0.013   5.502   3.313  1.4336 -1.1058  0.7803
  244MOL    H4334549   0.164   5.502   3.233 -0.0324 -1.1398  0.4597
  244MOL    C4434550   7.695   5.714   3.157 -0.5100 -0.3878  0.6397
  244MOL    C4534551   7.563   5.637   3.136 -0.1356  0.6020  0.4536
  244MOL    O4634552   7.533   5.611   2.999  0.2254  0.0282 -0.0537
  244MOL    H4734553   7.695   5.770   3.251  2.7669 -1.2637  1.2413
  244MOL    H4834554   7.690   5.796   3.086 -2.2906 -2.0188 -1.1542
  244MOL    H4934555   7.482   5.693   3.183  1.6224  1.5579  2.4343
  244MOL    H5034556   7.561   5.548   3.199  1.4015 -0.5478 -1.0741
  244MOL    C5134557   7.398   5.567   2.992 -0.3382 -0.9687  0.2105
  244MOL    C5234558   7.323   5.634   2.876  0.0174 -0.0907  0.0425
  244MOL    O5334559   7.331   5.551   2.772  0.0404  0.1588 -0.1537
  244MOL    H5434560   7.386   5.459   2.990  0.5450 -1.0692  0.4526
  244MOL    H5534561   7.336   5.597   3.077 -0.0615 -0.5128  0.2533
  244MOL    H5634562   7.362   5.734   2.860  1.5065 -1.0895 -2.9953
  244MOL    H5734563   7.223   5.644   2.918  0.8530  0.4401  1.9872
  244MOL    C5834564   7.460   5.560   2.708  0.2087  0.3583 -0.9312
  244MOL    C5934565   7.438   5.508   2.568  0.2373 -0.4110 -0.4310
  244MOL    O6034566   7.389   5.625   2.502 -0.2582 -0.1833  0.4597
  244MOL    H6134567   7.520   5.651   2.715  2.0641 -0.8622 -0.6136
  244MOL    H6234568   7.516   5.483   2.761  0.1044 -0.2117 -1.6377
  244MOL    H6334569   7.366   5.427   2.565  1.2031 -1.2864 -0.1809
  244MOL    H6434570   7.534   5.463   2.542  1.2695  0.8109  1.1351
  244MOL    C6534571   7.322   5.581   2.383  0.4755 -0.2233  0.0413
  244MOL    C6634572   7.405   5.615   2.259  0.7764 -0.1968 -0.1051
  244MOL    O6734573   7.507   5.524   2.232  0.2134  0.5789  0.1948
  244MOL    H6834574   7.291   5.477   2.379  0.3377 -0.1911  0.2599
  244MOL    H6934575   7.230   5.639   2.372  0.8938  0.7714  1.6227
  244MOL    H7034576   7.460   5.708   2.267  0.3513  0.0317  0.1412
  244MOL    H7134577   7.350   5.622   2.165  3.1049 -1.8573 -1.6365
  244MOL    C7234578   7.600   5.570   2.131  0.1167 -0.6280 -0.4702
  244MOL    C7334579   7.705   5.464   2.110 -0.2317 -0.6058 -0.0118
  244MOL    O7434580   0.015   5.441   2.221  0.1234 -0.1003 -0.5508
  244MOL    H7534581   7.549   5.581   2.036  2.0336 -0.1234 -1.4532
  244MOL    H7634582   7.651   5.663   2.154 -0.6436 -0.2539 -0.2943
  244MOL    H7734583   7.767   5.491   2.025  0.9527 -1.1939  0.6580
  244MOL    H7834584   7.653   5.375   2.075 -1.0456 -0.1508  0.0152
  244MOL    C7934585   0.098   5.548   2.262 -0.0045  0.0566 -0.1798
  244MOL    C8034586   0.041   5.617   2.386  0.5159 -0.5239  0.2228
  244MOL    O8134587   0.074   5.553   2.507 -0.2903 -0.1391  0.1980
  244MOL    H8234588   0.197   5.508   2.285 -0.0339 -0.5653 -1.0820
  244MOL    H8334589   0.116   5.620   2.181 -0.1486 -0.2261 -0.4643
  244MOL    H8434590   7.706   5.624   2.363 -0.1614  0.3921  3.4206
  244MOL    H8534591   0.080   5.719   2.373 -0.7250 -0.2070 -1.2131
  244MOL    C8634592   0.032   5.635   2.617  0.2865 -0.1583 -0.1950
  244MOL    C8734593   0.045   5.566   2.747  0.3202 -0.1052 -0.0575
  244MOL    O8834594   0.184   5.577   2.791  0.4504  0.4223 -0.4253
  244MOL    H8934595   0.079   5.734   2.611  0.1331 -0.0544  0.3321
  244MOL    H9034596   7.695   5.640   2.607  0.2206  2.1308  1.2334
  244MOL    H9134597   0.010   5.463   2.739  0.8381 -0.2617 -0.3154
  244MOL    H9234598   7.751   5.618   2.818  0.9074  0.4447  0.0796
  244MOL    C9334599   0.213   5.494   2.906  0.4687  0.2888 -0.1446
  244MOL    C9434600   0.333   5.547   2.991  0.6265 -0.4773 -0.0830
  244MOL    O9534601   0.458   5.483   2.963 -0.4681  0.2710 -0.8100
  244MOL    H9634602   0.129   5.482   2.974  0.8493 -0.1658  0.2492
  244MOL    H9734603   0.244   5.394   2.872  1.2680  0.6611 -0.5238
  244MOL    H9834604   0.328   5.555   3.100  2.6086 -1.7884  0.1230
  244MOL    H9934605   0.347   5.649   2.956 -1.4550 -0.3332 -0.5639
  244MOL   C10034606   0.467   5.368   3.039  0.3390 -0.4987  0.2571
  244MOL   C10134607   0.600   5.290   3.019  0.1005  0.0024  0.2188
  244MOL   O10234608   0.577   5.204   2.906  0.1064 -0.7755 -0.0025
  244MOL   H10334609   0.455   5.395   3.144 -1.2159 -0.1648  0.0055
  244MOL   H10434610   0.381   5.305   3.014  0.0657 -0.3410  0.7981
  244MOL   H10534611   0.625   5.223   3.102  1.6747  1.4051  0.9210
  244MOL   H10634612   0.679   5.363   3.004  0.7207 -1.2819 -3.1431
  244MOL   C10734613   0.693   5.115   2.896 -0.3548  0.0850  0.4920
  244MOL   C10834614   0.681   5.051   2.753  0.3370  1.0875 -0.1318
  244MOL   O10934615   0.800   4.990   2.704 -0.1231  0.3357  0.1946
  244MOL   H11034616   0.785   5.173   2.894 -0.8094  0.8433  1.2506
  244MOL   H11134617   0.710   5.049   2.981 -0.1505 -0.1998  0.2303
  244MOL   H11234618   0.660   5.135   2.687 -0.1466  1.0989  0.0358
  244MOL   H11334619   0.599   4.980   2.742  0.8045  0.9564 -3.2443
  244MOL   C11434620   0.801   4.962   2.565 -0.5409  0.0971 -0.3497
  244MOL   C11534621   0.945   4.927   2.515 -0.2361  0.5767 -0.6545
  244MOL   O11634622   0.988   4.794   2.548 -0.0996  0.4416 -0.0571
  244MOL   H11734623   0.734   4.877   2.550 -1.0888  0.2448  1.1247
  244MOL   H11834624   0.759   5.045   2.507 -1.7026  0.1686  0.5659
  244MOL   H11934625   1.015   4.999   2.558 -0.6855  0.6969 -0.1288
  244MOL   H12034626   0.951   4.934   2.407 -0.6203 -0.2287 -0.7304
  244MOL   C12134627   1.074   4.797   2.661 -0.4648  0.4372  0.3207
  244MOL   C12234628   1.108   4.660   2.715 -0.0145  0.1707 -0.2006
  244MOL   O12334629   1.177   4.586   2.625  1.0136 -0.5660 -0.6367
  244MOL   H12434630   1.165   4.851   2.636  0.2349 -0.5711  0.6560
  244MOL   H12534631   1.019   4.845   2.742 -1.3485 -0.2359  0.1200
  244MOL   H12634632   1.028   4.599   2.758 -0.0962 -1.2337 -2.2692
  244MOL   H12734633   1.183   4.682   2.791 -0.3037  1.5355 -0.3083
  244MOL   C12834634   1.203   4.449   2.653 -0.4485  0.5473 -0.4020
  244MOL   C12934635   1.285   4.397   2.540 -0.3745 -0.3617  0.3247
  244MOL   O13034636   1.407   4.473   2.529 -0.6105 -0.6116  0.8771
  244MOL   H13134637   1.267   4.447   2.741 -1.2939 -1.9380  0.1799
  244MOL   H13234638   1.113   4.388   2.660  1.7192 -2.7919 -0.6706
  244MOL   H13334639   1.229   4.408   2.447 -1.3062  0.5380  0.9746
  244MOL   H13434640   1.308   4.291   2.540 -0.3626 -0.4583 -4.3084
  244MOL   C13534641   1.498   4.423   2.424 -0.9921 -0.2889  0.0271
  244MOL   C13634642   1.578   4.544   2.378  0.0352  0.8032 -0.6761
  244MOL   O13734643   1.680   4.520   2.284  0.1155  0.1293  0.6166
  244MOL   H13834644   1.556   4.339   2.461  0.5876 -0.0228 -1.7316
  244MOL   H13934645   1.431   4.396   2.342  0.3981 -0.9782 -0.9059
  244MOL   H14034646   1.624   4.601   2.459  0.2709  0.3765 -0.5052
  244MOL   H14134647   1.507   4.619   2.342 -1.0139  0.9886  1.6661
  244MOL   H14234648   1.633   4.500   2.205  1.6786 -0.3308 -0.2091
  245MOL     C134649   6.517   1.494   1.138 -0.4386  0.8357  0.0559
  245MOL     C234650   6.571   1.366   1.209 -0.1352  0.0761 -0.7703
  245MOL     O334651   6.692   1.397   1.270 -0.2106  0.0592 -0.2966
  245MOL     H434652   6.591   1.571   1.115 -0.5515  0.6731 -0.8409
  245MOL     H534653   6.440   1.548   1.193 -1.0603  0.8230 -0.7894
  245MOL     H634654   6.594   1.297   1.128 -1.9753  0.6348 -1.7958
  245MOL     H734655   6.511   1.301   1.273 -0.1897 -1.3539 -2.2530
  245MOL     H834656   6.495   1.466   1.035  1.0003 -1.5391  0.3772
  245MOL     C934657   6.779   1.289   1.303  1.4057  0.2085  0.4004
  245MOL    C1034658   6.904   1.324   1.389 -0.1675  0.4713 -0.1992
  245MOL    O1134659   6.880   1.309   1.529  0.2715 -0.1068 -0.3333
  245MOL    H1234660   6.727   1.209   1.356  2.4476 -1.0616 -0.4603
  245MOL    H1334661   6.800   1.242   1.207  0.1200  0.0506  0.1957
  245MOL    H1434662   6.936   1.425   1.362 -0.8249  0.7646  0.1082
  245MOL    H1534663   6.989   1.263   1.361 -0.9185  0.1043 -1.7967
  245MOL    C1634664   6.995   1.347   1.605 -0.0518 -0.2735 -0.1757
  245MOL    C1734665   6.991   1.475   1.687  0.5446 -0.3167 -0.2781
  245MOL    O1834666   7.028   1.581   1.596 -0.0355 -0.1850 -0.3342
  245MOL    H1934667   7.008   1.264   1.675  1.7785 -1.8783 -2.3241
  245MOL    H2034668   7.090   1.342   1.552  0.1991  0.5794  0.1858
  245MOL    H2134669   7.076   1.463   1.754 -0.5327 -0.5344  1.0560
  245MOL    H2234670   6.904   1.481   1.751 -0.2776  0.4314 -1.4420
  245MOL    C2334671   6.917   1.668   1.562 -0.4360 -0.1892 -0.0576
  245MOL    C2434672   6.965   1.760   1.436  0.1541 -0.0187  0.1466
  245MOL    O2534673   6.970   1.685   1.319 -0.5731 -0.5023  0.5912
  245MOL    H2634674   6.832   1.608   1.529 -1.2019  2.0053 -2.2152
  245MOL    H2734675   6.907   1.721   1.656  1.3115  0.1067 -0.0208
  245MOL    H2834676   7.067   1.797   1.452  0.6751 -1.2732 -0.1829
  245MOL    H2934677   6.908   1.850   1.418 -0.9112 -0.9279 -1.0936
  245MOL    C3034678   6.850   1.683   1.245 -0.4787 -0.4003 -0.2514
  245MOL    C3134679   6.841   1.794   1.137 -0.0155 -0.1738  0.3058
  245MOL    O3234680   6.807   1.920   1.198  0.2326  0.2345 -0.0934
  245MOL    H3334681   6.871   1.584   1.205 -1.1865 -1.2479  1.4335
  245MOL    H3434682   6.758   1.675   1.302 -1.8383 -1.4385 -2.5028
  245MOL    H3534683   6.764   1.775   1.062 -0.5787 -0.3767  0.9283
  245MOL    H3634684   6.937   1.816   1.091  0.0001  0.8286  0.8055
  245MOL    C3734685   6.798   2.018   1.097 -0.2732  0.0476  0.0366
  245MOL    C3834686   6.788   2.164   1.154 -0.2689 -0.4217  0.1383
  245MOL    O3934687   6.658   2.191   1.212  0.9279 -0.5639  0.5403
  245MOL    H4034688   6.885   2.014   1.031  0.1875  3.0602  0.3901
  245MOL    H4134689   6.709   2.005   1.036 -1.0670  0.9698  0.9776
  245MOL    H4234690   6.813   2.235   1.075 -0.3165 -3.2374 -2.4648
  245MOL    H4334691   6.865   2.171   1.232  0.0140 -2.2963  0.0603
  245MOL    C4434692   6.633   2.118   1.331  0.2699 -0.3342  0.3424
  245MOL    C4534693   6.523   2.191   1.408  0.5453 -0.2176 -0.2855
  245MOL    O4634694   6.591   2.277   1.505 -0.0422 -0.1218  0.9166
  245MOL    H4734695   6.591   2.028   1.287 -2.0626  0.6819  0.3924
  245MOL    H4834696   6.727   2.107   1.386 -0.0139  0.2411  0.9545
  245MOL    H4934697   6.458   2.126   1.466 -2.8058  1.3420 -2.1649
  245MOL    H5034698   6.464   2.251   1.339  2.5536  1.0784 -0.9350
  245MOL    C5134699   6.492   2.360   1.574  0.0824 -0.9945  0.3325
  245MOL    C5234700   6.566   2.443   1.678 -0.5595  0.1837  0.0167
  245MOL    O5334701   6.582   2.365   1.802 -0.2155  0.6280 -0.0124
  245MOL    H5434702   6.432   2.425   1.510  0.9902 -0.1251  0.3410
  245MOL    H5534703   6.422   2.294   1.624  0.4788 -1.2461  0.5603
  245MOL    H5634704   6.504   2.526   1.710 -1.1394 -0.6139  1.0033
  245MOL    H5734705   6.664   2.485   1.655 -1.0662  0.9431 -0.7863
  245MOL    C5834706   6.622   2.450   1.914 -0.9408 -0.0815 -0.1490
  245MOL    C5934707   6.503   2.531   1.969 -0.6758  0.2884 -0.4679
  245MOL    O6034708   6.530   2.560   2.105 -0.1703  0.5891  0.4893
  245MOL    H6134709   6.669   2.384   1.987  1.4270  0.7626 -0.8515
  245MOL    H6234710   6.705   2.517   1.890  1.2601 -2.7605 -0.2054
  245MOL    H6334711   6.412   2.471   1.967  0.1735 -1.0382 -0.1696
  245MOL    H6434712   6.479   2.626   1.922  0.2647  0.4791 -0.5590
  245MOL    C6534713   6.416   2.620   2.164  0.3229  0.3772 -0.1410
  245MOL    C6634714   6.432   2.623   2.322 -0.8165  0.4964  0.4078
  245MOL    O6734715   6.556   2.680   2.356 -0.4052 -0.2792  0.5220
  245MOL    H6834716   6.424   2.723   2.131  0.0967  0.1864 -0.7898
  245MOL    H6934717   6.322   2.582   2.126  0.0854  0.1321  0.6703
  245MOL    H7034718   6.450   2.521   2.356  1.7392  1.3552  1.7712
  245MOL    H7134719   6.358   2.678   2.382 -0.9722  2.2529 -1.3563
  245MOL    C7234720   6.580   2.695   2.499 -0.2278  0.1421 -0.2829
  245MOL    C7334721   6.596   2.568   2.583  0.0248  0.1907 -0.3885
  245MOL    O7434722   6.694   2.480   2.532  0.5566  0.2464 -0.3778
  245MOL    H7534723   6.679   2.739   2.506 -0.9513  1.5698  1.1561
  245MOL    H7634724   6.517   2.770   2.546  1.8445  2.1575 -0.6477
  245MOL    H7734725   6.510   2.501   2.591  2.0211 -2.3910 -0.0453
  245MOL    H7834726   6.610   2.593   2.689 -1.0266  1.2135 -0.4849
  245MOL    C7934727   6.738   2.381   2.628 -0.1548  0.0459  0.2086
  245MOL    C8034728   6.796   2.267   2.548 -0.5644 -0.0719  0.2142
  245MOL    O8134729   6.783   2.143   2.616  0.0465 -0.4025 -0.0822
  245MOL    H8234730   6.815   2.412   2.699  1.2498 -0.3975 -1.0848
  245MOL    H8334731   6.658   2.329   2.679 -1.1332  0.7252 -0.6085
  245MOL    H8434732   6.901   2.289   2.526 -0.5839 -0.7803 -0.6138
  245MOL    H8534733   6.746   2.249   2.453  1.0876 -1.4439 -0.4191
  245MOL    C8634734   6.821   2.026   2.544 -0.1107  0.5313 -0.1357
  245MOL    C8734735   6.832   1.907   2.641  0.1751  0.2008 -0.7383
  245MOL    O8834736   6.965   1.883   2.693 -0.2660 -0.0454 -0.5371
  245MOL    H8934737   6.750   2.001   2.465 -0.5289 -1.0502  0.7014
  245MOL    H9034738   6.920   2.034   2.500  0.2070 -0.7750  0.3051
  245MOL    H9134739   6.798   1.816   2.591 -0.2487 -1.1779  1.9495
  245MOL    H9234740   6.760   1.928   2.721 -0.8427  2.4988 -2.2182
  245MOL    C9334741   6.956   1.782   2.797  0.2987 -0.6276  0.0227
  245MOL    C9434742   7.097   1.732   2.803  0.0943 -0.3705 -0.2388
  245MOL    O9534743   7.172   1.836   2.875 -0.3835 -0.6655 -0.5731
  245MOL    H9634744   6.909   1.836   2.879  0.8883 -1.1925  0.7321
  245MOL    H9734745   6.885   1.706   2.762 -2.8177 -0.0694  4.7043
  245MOL    H9834746   7.138   1.721   2.702  2.5240  1.8166  0.4315
  245MOL    H9934747   7.100   1.641   2.863 -0.3351  0.4138  0.9680
  245MOL   C10034748   7.313   1.823   2.865 -0.2303  0.4436 -0.3997
  245MOL   C10134749   7.395   1.923   2.940 -0.3021  0.7409  0.1133
  245MOL   O10234750   7.441   2.025   2.854 -0.1013  0.0970  0.0678
  245MOL   H10334751   7.325   1.722   2.904 -1.1648  2.0953  4.4869
  245MOL   H10434752   7.352   1.819   2.763  1.3605 -0.0715  0.2109
  245MOL   H10534753   7.487   1.886   2.986 -1.2699  0.1674  1.6192
  245MOL   H10634754   7.326   1.966   3.012 -0.1645  0.3794  0.4693
  245MOL   C10734755   7.494   2.129   2.930  0.6140  0.5052  0.4739
  245MOL   C10834756   7.518   2.258   2.846 -0.2789 -1.0873 -0.1926
  245MOL   O10934757   7.642   2.239   2.783  0.0282  0.0582  0.0765
  245MOL   H11034758   7.431   2.162   3.012  0.0453 -0.6934  0.5342
  245MOL   H11134759   7.589   2.098   2.974  0.1160 -1.8803 -0.0896
  245MOL   H11234760   7.528   2.341   2.916 -0.5561  0.3605 -1.8374
  245MOL   H11334761   7.437   2.281   2.776 -0.2427 -0.0396  0.1015
  245MOL   C11434762   7.638   2.175   2.653  0.2096  0.4305  0.5008
  245MOL   C11534763   7.759   2.216   2.563 -0.0936 -0.1931 -0.5352
  245MOL   O11634764   0.075   2.115   2.562  0.3217  0.7007 -0.5178
  245MOL   H11734765   7.632   2.067   2.666 -0.1731  0.2607 -1.0260
  245MOL   H11834766   7.545   2.198   2.601  0.7272  1.4677  0.0195
  245MOL   H11934767   0.027   2.311   2.600  1.7233 -1.8979  2.0942
  245MOL   H12034768   7.723   2.232   2.461 -0.4155 -0.3851 -0.4537
  245MOL   C12134769   0.195   2.164   2.509  0.0385 -0.5500 -0.4235
  245MOL   C12234770   0.302   2.047   2.531  0.6434 -0.4294 -0.0199
  245MOL   O12334771   0.275   1.945   2.444  0.2774  0.4342 -0.3282
  245MOL   H12434772   0.185   2.183   2.402 -0.7088  1.5279  0.0073
  245MOL   H12534773   0.228   2.259   2.549  1.0212 -1.6683  1.4889
  245MOL   H12634774   0.296   2.012   2.634 -0.0596  1.5944  0.6555
  245MOL   H12734775   0.401   2.091   2.530  0.6266 -0.3504  0.9194
  245MOL   C12834776   0.373   1.935   2.343  0.5839  0.1664  0.3153
  245MOL   C12934777   0.365   1.804   2.272 -0.0499  0.8737 -0.4924
  245MOL   O13034778   0.422   1.697   2.343  0.3619 -0.3085 -0.3520
  245MOL   H13134779   0.357   2.021   2.279  0.4088 -0.2586 -0.2058
  245MOL   H13234780   0.469   1.947   2.394 -0.9981  1.6083  3.1044
  245MOL   H13334781   0.419   1.819   2.178  0.7357 -1.6302 -0.4651
  245MOL   H13434782   0.263   1.780   2.241 -0.3863  0.4580  0.8858
  245MOL   C13534783   0.405   1.581   2.265  0.5492 -0.0760 -0.2524
  245MOL   C13634784   0.479   1.459   2.332  0.2955 -0.1659  0.7364
  245MOL   O13734785   0.614   1.441   2.299  0.4124 -0.0662 -0.5849
  245MOL   H13834786   0.298   1.560   2.270  0.4266  1.1498  3.0956
  245MOL   H13934787   0.441   1.602   2.164 -1.7692  0.2514 -1.0590
  245MOL   H14034788   0.430   1.366   2.301  2.0388 -0.9805  0.3512
  245MOL   H14134789   0.474   1.446   2.440 -0.9699 -1.1417  0.5675
  245MOL   H14234790   0.663   1.509   2.341 -2.9700  1.6094  0.8199
  246MOL     C134791   2.683   7.331   2.589 -0.6689  0.0875 -0.7939
  246MOL     C234792   2.686   7.449   2.689 -0.0137 -0.1625 -0.3687
  246MOL     O334793   2.728   7.565   2.624 -0.2996 -0.8909 -0.1934
  246MOL     H434794   2.599   7.338   2.520 -1.1724 -0.2555 -0.2257
  246MOL     H534795   2.666   7.237   2.643  3.6179 -0.2492  0.1071
  246MOL     H634796   2.745   7.417   2.775  0.7357 -2.1387 -1.5916
  246MOL     H734797   2.594   7.464   2.747  1.3056  0.6686  1.5894
  246MOL     H834798   2.771   7.325   2.525 -1.1009 -0.0274 -1.3837
  246MOL     C934799   2.643   7.616   2.525 -0.4149  0.0837  0.2224
  246MOL    C1034800   2.510   7.662   2.580  0.1280 -0.1835 -0.0832
  246MOL    O1134801   2.402   7.566   2.577  0.1323  0.4654 -0.6246
  246MOL    H1234802   2.698   7.705   2.493  0.5529  0.1291  1.9587
  246MOL    H1334803   2.633   7.551   2.438 -0.3928  1.9307 -1.1847
  246MOL    H1434804   2.475   7.747   2.520  0.7945 -0.6985 -1.2131
  246MOL    H1534805   2.529   7.704   2.679  1.3874 -1.2023  0.1167
  246MOL    C1634806   2.291   7.616   2.652 -0.5169 -0.0697 -0.1216
  246MOL    C1734807   2.155   7.534   2.651  0.0935 -0.2095  0.1054
  246MOL    O1834808   2.137   7.441   2.749 -0.2506 -0.8158 -0.5799
  246MOL    H1934809   2.318   7.617   2.758  0.4355 -0.3821 -0.3541
  246MOL    H2034810   2.275   7.717   2.616 -2.3921  0.0272  0.9321
  246MOL    H2134811   2.130   7.493   2.554 -0.2810 -0.6528  0.3876
  246MOL    H2234812   2.075   7.607   2.659  1.4588  1.3728 -0.3575
  246MOL    C2334813   2.222   7.328   2.731 -0.4495  0.0637  0.8438
  246MOL    C2434814   2.209   7.240   2.856 -0.0994 -0.8881  0.1191
  246MOL    O2534815   2.293   7.129   2.830 -0.5991 -0.2242  0.1444
  246MOL    H2634816   2.191   7.265   2.647 -4.2140  2.9835 -0.1216
  246MOL    H2734817   2.329   7.345   2.719 -0.3127  0.3797  2.4357
  246MOL    H2834818   2.110   7.202   2.883  0.0862 -1.0080  0.6475
  246MOL    H2934819   2.232   7.300   2.944  0.8886 -0.2311 -0.5787
  246MOL    C3034820   2.295   7.036   2.935  0.0391 -0.5347 -0.6970
  246MOL    C3134821   2.398   6.919   2.938  0.0454  0.1644 -0.4568
  246MOL    O3234822   2.527   6.970   2.955 -0.0756 -0.5144 -0.5108
  246MOL    H3334823   2.302   7.101   3.022 -0.1004 -1.4330 -0.0058
  246MOL    H3434824   2.200   6.985   2.950 -0.5191  1.4708  3.0987
  246MOL    H3534825   2.393   6.853   2.851  1.0545 -0.0026 -0.3921
  246MOL    H3634826   2.385   6.855   3.025 -2.1544  1.2588  0.0592
  246MOL    C3734827   2.598   7.005   2.844 -0.1294  0.7166 -0.2698
  246MOL    C3834828   2.736   7.059   2.875 -0.0792  0.3763  0.0575
  246MOL    O3934829   2.728   7.193   2.919 -0.3276  0.4611 -0.1846
  246MOL    H4034830   2.604   6.906   2.797  1.7575  1.1611 -0.9882
  246MOL    H4134831   2.541   7.072   2.780  0.1589  0.8557 -0.3810
  246MOL    H4234832   2.792   7.057   2.782 -2.7132 -1.1060 -1.5507
  246MOL    H4334833   2.790   6.988   2.937  2.2633  1.5951 -0.5404
  246MOL    C4434834   2.739   7.216   3.061  0.3255 -0.2277 -0.3291
  246MOL    C4534835   2.768   7.367   3.080  0.7111  0.5898  0.5558
  246MOL    O4634836   2.667   7.449   3.027  0.1387  0.0567  0.2276
  246MOL    H4734837   2.644   7.186   3.104 -0.0864  0.9847 -0.3736
  246MOL    H4834838   2.818   7.158   3.108  0.0596 -1.1557 -1.0108
  246MOL    H4934839   2.856   7.391   3.021 -0.5464 -0.8083 -1.9542
  246MOL    H5034840   2.772   7.395   3.186  0.9865  1.8013  0.2291
  246MOL    C5134841   2.534   7.423   3.080  0.5333  0.4246 -0.5338
  246MOL    C5234842   2.447   7.539   3.036 -0.2678 -0.3994  0.4436
  246MOL    O5334843   2.342   7.549   3.126 -0.3889  0.0416 -0.1570
  246MOL    H5434844   2.498   7.324   3.052 -0.3277 -0.0401  2.0266
  246MOL    H5534845   2.536   7.438   3.188 -1.1005 -0.0919 -0.4206
  246MOL    H5634846   2.406   7.520   2.937 -3.2608 -0.3128  1.5959
  246MOL    H5734847   2.506   7.630   3.023 -2.0194  0.7755  0.5213
  246MOL    C5834848   2.238   7.638   3.077 -0.0238  0.1630 -0.5320
  246MOL    C5934849   2.153   7.687   3.192  0.2944 -0.3554  0.0047
  246MOL    O6034850   2.223   0.017   3.268  0.8341 -0.6277 -0.3155
  246MOL    H6134851   2.286   7.724   3.030  1.7859 -0.3544  0.2967
  246MOL    H6234852   2.180   7.580   3.005 -0.1691  0.2745 -0.5038
  246MOL    H6334853   2.107   7.607   3.249  2.0189 -0.8295  0.7790
  246MOL    H6434854   2.066   7.739   3.154  3.0575  1.3318 -4.4039
  246MOL    C6534855   2.293   7.741   3.380  0.0043 -0.2518 -0.7971
  246MOL    C6634856   2.201   7.713   3.502 -0.1687 -0.1927  0.1476
  246MOL    O6734857   2.113   7.601   3.479 -0.0219 -0.2374 -0.0148
  246MOL    H6834858   2.351   7.651   3.364 -3.5780 -2.1684 -3.5736
  246MOL    H6934859   2.362   0.049   3.412 -1.6255  0.1820  1.8420
  246MOL    H7034860   2.147   0.031   3.533 -0.4020 -0.5322  0.7081
  246MOL    H7134861   2.267   7.693   3.586 -1.3324  0.0423  1.1222
  246MOL    C7234862   2.035   7.577   3.593  0.9268  0.5830  0.2896
  246MOL    C7334863   1.962   7.440   3.578 -0.0332  0.4287 -0.0275
  246MOL    O7434864   2.044   7.332   3.622  0.7688 -0.7618  0.4097
  246MOL    H7534865   2.097   7.581   3.683 -1.8208 -1.2914  2.3476
  246MOL    H7634866   1.960   7.653   3.614 -0.1796 -0.5322  0.4348
  246MOL    H7734867   1.921   7.419   3.479 -1.4579  0.4325  0.5470
  246MOL    H7834868   1.875   7.449   3.644  1.9332  0.9714  2.5553
  246MOL    C7934869   1.970   7.208   3.641  0.2499  0.0343 -0.7388
  246MOL    C8034870   2.055   7.084   3.645  0.1257  0.4050  0.4872
  246MOL    O8134871   2.102   7.046   3.770  0.0125 -0.4435  0.4292
  246MOL    H8234872   1.910   7.214   3.732 -0.2599 -0.1151 -1.0655
  246MOL    H8334873   1.898   7.193   3.561 -0.3982  1.7552 -0.4989
  246MOL    H8434874   2.143   7.078   3.580  0.0491 -0.1973  0.4430
  246MOL    H8534875   1.993   6.999   3.617  1.8185 -0.5188 -0.5774
  246MOL    C8634876   2.208   7.123   3.821 -0.1656  0.3684 -0.4768
  246MOL    C8734877   2.251   7.077   3.958 -0.6057  0.1808 -0.8483
  246MOL    O8834878   2.158   7.117   4.059 -0.3249 -0.1402  0.0349
  246MOL    H8934879   2.293   7.133   3.753 -0.8831 -1.2530 -1.6552
  246MOL    H9034880   2.185   7.228   3.835 -0.6656  0.3150 -0.8764
  246MOL    H9134881   2.345   7.127   3.980 -0.2074 -1.4211  1.2877
  246MOL    H9234882   2.270   6.969   3.955 -1.2597 -0.0003  1.0396
  246MOL    C9334883   2.194   7.075   4.191 -0.6561 -0.6681 -0.4512
  246MOL    C9434884   2.108   7.130   4.302  0.5997 -0.1545  0.3585
  246MOL    O9534885   2.124   7.272   4.305  0.1636 -0.0220 -0.1777
  246MOL    H9634886   2.189   6.966   4.185  1.1425 -0.7744 -0.2718
  246MOL    H9734887   2.301   7.088   4.208 -0.5369 -0.5925 -1.2165
  246MOL    H9834888   2.132   7.074   4.392 -1.9663 -5.0693 -1.8502
  246MOL    H9934889   2.009   7.099   4.270  0.0722  0.6265  1.2169
  246MOL   C10034890   2.039   7.345   4.394  0.0046 -0.1701  0.2301
  246MOL   C10134891   2.090   7.489   4.411  0.2805 -0.0223  0.3504
  246MOL   O10234892   2.212   7.487   4.480  0.0349 -0.2884  0.0890
  246MOL   H10334893   1.937   7.343   4.354  0.5156 -0.0504 -1.1221
  246MOL   H10434894   2.030   7.292   4.489  0.3900 -0.1596  0.2715
  246MOL   H10534895   2.011   7.541   4.466  0.0368  0.3588 -0.3595
  246MOL   H10634896   2.110   7.539   4.316  0.6820  0.7677  0.8411
  246MOL   C10734897   2.245   7.618   4.528 -0.2713 -0.5680 -0.4458
  246MOL   C10834898   2.369   7.628   4.613  0.4307 -0.2605 -0.0201
  246MOL   O10934899   2.414   7.759   4.617  0.3413 -0.1289  0.6062
  246MOL   H11034900   2.241   7.691   4.448 -0.8503 -0.5086 -0.3652
  246MOL   H11134901   2.158   7.654   4.583  0.5947  0.1814  0.4593
  246MOL   H11234902   2.449   7.571   4.564  0.6439  1.2375 -1.4765
  246MOL   H11334903   2.350   7.583   4.710 -2.4872 -0.2504 -0.5546
  246MOL   C11434904   2.544   7.770   4.680  0.2329 -0.0738  0.1158
  246MOL   C11534905   2.660   7.764   4.574 -0.2883 -0.5962  0.6150
  246MOL   O11634906   2.712   7.634   4.563  0.0845  0.1799 -0.4046
  246MOL   H11734907   2.546   0.100   4.721 -0.3555 -0.1345  0.2976
  246MOL   H11834908   2.553   7.692   4.755 -2.0991 -0.6777 -0.2178
  246MOL   H11934909   2.746   0.055   4.599  0.1429 -0.7805 -0.4064
  246MOL   H12034910   2.617   0.029   4.481  0.3947  1.6847  1.1512
  246MOL   C12134911   2.783   7.624   4.441  0.3481  0.2289 -0.6770
  246MOL   C12234912   2.894   7.514   4.434  1.3124 -1.1285 -0.3540
  246MOL   O12334913   2.962   7.527   4.310  0.3465 -0.2748 -0.5497
  246MOL   H12434914   2.721   7.611   4.352  0.4427  0.0668 -0.7184
  246MOL   H12534915   2.850   7.709   4.427  0.0884  0.6395  0.5210
  246MOL   H12634916   2.850   7.415   4.449 -0.8061  0.1143  2.0385
  246MOL   H12734917   2.962   7.524   4.518  2.5141  0.9850 -1.5453
  246MOL   C12834918   3.077   7.445   4.300  0.0531  0.8082 -0.0048
  246MOL   C12934919   3.127   7.446   4.150  0.7784 -0.2297 -0.3693
  246MOL   O13034920   3.190   7.563   4.105  0.1832  0.6277 -0.1327
  246MOL   H13134921   3.154   7.483   4.368  0.9194  2.1152 -1.6893
  246MOL   H13234922   3.047   7.344   4.325  0.3099  0.8366  0.4286
  246MOL   H13334923   3.043   7.423   4.085  0.8559 -0.1150 -0.5107
  246MOL   H13434924   3.191   7.360   4.168  0.8744 -0.0281  0.2886
  246MOL   C13534925   3.318   7.576   4.166 -0.1708  0.3426 -0.0102
  246MOL   C13634926   3.373   7.694   4.094 -0.0818  0.0151 -0.4140
  246MOL   O13734927   3.514   7.677   4.068  0.1948  0.5357  0.3338
  246MOL   H13834928   3.310   7.603   4.271 -0.8536  1.2268 -0.2869
  246MOL   H13934929   3.381   7.488   4.155 -0.1589  0.1426  1.6258
  246MOL   H14034930   3.360   0.007   4.162 -0.0510  0.0045 -0.3963
  246MOL   H14134931   3.334   7.722   3.996  1.1728  1.5577 -0.5000
  246MOL   H14234932   3.557   7.666   4.151 -0.0025  0.2065  0.3955
  247MOL     C134933   4.535   3.126   7.432  0.0443 -0.7622  0.1317
  247MOL     C234934   4.428   3.036   7.493  0.3334 -1.0324  0.0088
  247MOL     O334935   4.300   3.080   7.435  0.2288 -0.6662  0.6382
  247MOL     H434936   4.638   3.103   7.462  0.6535  0.1525 -1.2031
  247MOL     H534937   4.519   3.230   7.461  1.8986 -0.2811 -0.4757
  247MOL     H634938   4.419   3.036   7.602 -0.8517  1.4395 -0.0723
  247MOL     H734939   4.438   2.938   7.445  0.7002 -0.8852 -0.2127
  247MOL     H834940   4.536   3.129   7.323  0.3748  0.8609  0.1747
  247MOL     C934941   4.234   3.195   7.496  0.3872 -0.2500 -0.2124
  247MOL    C1034942   4.098   3.228   7.428 -1.0650  0.3409  0.4665
  247MOL    O1134943   4.125   3.299   7.303 -0.2028 -0.5983 -0.3131
  247MOL    H1234944   4.220   3.172   7.601  2.8298 -2.6733 -0.3649
  247MOL    H1334945   4.305   3.276   7.480  0.0051 -0.2117 -1.8163
  247MOL    H1434946   4.047   3.296   7.497  0.8239  2.9999 -0.6378
  247MOL    H1534947   4.044   3.134   7.420  1.3265 -1.0435 -0.0315
  247MOL    C1634948   4.018   3.358   7.230 -0.2446  0.8890 -0.3325
  247MOL    C1734949   4.079   3.427   7.103 -0.0222 -0.8244 -0.1179
  247MOL    O1834950   4.186   3.522   7.134 -0.6357  0.1364 -0.3509
  247MOL    H1934951   3.947   3.276   7.217  3.6126 -2.5985 -0.4637
  247MOL    H2034952   3.974   3.431   7.297 -0.1654  2.1460 -1.6286
  247MOL    H2134953   4.008   3.479   7.040 -1.9994 -1.3634  1.5959
  247MOL    H2234954   4.112   3.345   7.039 -0.6046 -1.9130  0.9368
  247MOL    C2334955   4.234   3.581   7.012  0.3440  0.0819  0.2076
  247MOL    C2434956   4.336   3.700   7.022  0.1242  0.2611 -0.8290
  247MOL    O2534957   4.402   3.709   6.895 -0.0733  0.3753  0.0501
  247MOL    H2634958   4.297   3.514   6.953  1.6604  1.3691  0.1067
  247MOL    H2734959   4.152   3.630   6.959  1.7569 -1.0426 -3.1563
  247MOL    H2834960   4.421   3.694   7.090 -0.0946 -0.3550 -0.6054
  247MOL    H2934961   4.287   3.792   7.051  2.2040  1.2972 -0.4858
  247MOL    C3034962   4.492   3.820   6.900  0.8297 -0.0636 -0.6867
  247MOL    C3134963   4.538   3.852   6.754  0.9979 -0.4405 -0.5202
  247MOL    O3234964   4.633   3.754   6.712  0.1814 -0.5794 -0.1007
  247MOL    H3334965   4.436   3.910   6.926  0.5231 -0.5381  0.2935
  247MOL    H3434966   4.580   3.819   6.965  1.0399 -0.0705 -0.9684
  247MOL    H3534967   4.580   3.952   6.758 -0.1059 -0.0101  0.3962
  247MOL    H3634968   4.450   3.851   6.690 -0.0273 -1.6204  0.8705
  247MOL    C3734969   4.737   3.798   6.632  0.6947  0.5084 -0.0548
  247MOL    C3834970   4.803   3.685   6.550 -0.0666  0.4830  0.2606
  247MOL    O3934971   4.734   3.655   6.433  0.1464  0.7745 -0.2391
  247MOL    H4034972   4.704   3.872   6.560  2.6574 -0.0753 -1.6106
  247MOL    H4134973   4.818   3.843   6.690 -0.5898  1.9627  0.6333
  247MOL    H4234974   4.815   3.600   6.617 -1.7831 -0.8198 -1.0494
  247MOL    H4334975   4.899   3.726   6.518  0.3397 -0.6321  0.0508
  247MOL    C4434976   4.780   3.539   6.367  0.3233 -0.3988  0.7609
  247MOL    C4534977   4.888   3.584   6.263 -0.3252 -0.1109 -0.2429
  247MOL    O4634978   4.922   3.471   6.188  0.3839 -0.6427  0.4048
  247MOL    H4734979   4.813   3.452   6.424  1.4011 -0.2996  0.3184
  247MOL    H4834980   4.688   3.503   6.321  1.1851  2.5685 -3.6558
  247MOL    H4934981   4.981   3.615   6.311  0.6246 -0.9763 -1.5089
  247MOL    H5034982   4.857   3.665   6.197  0.2471  0.7685  0.5514
  247MOL    C5134983   5.056   3.473   6.131 -0.0278  0.0054 -0.5883
  247MOL    C5234984   5.090   3.363   6.035  0.2498 -0.8162 -0.4204
  247MOL    O5334985   5.197   3.395   5.951 -0.7444 -0.4837 -0.3811
  247MOL    H5434986   5.079   3.567   6.081  3.0708 -0.2717  0.2126
  247MOL    H5534987   5.126   3.479   6.213 -0.7578 -2.5716  0.2682
  247MOL    H5634988   5.004   3.332   5.977 -0.0354 -2.1357  0.6985
  247MOL    H5734989   5.117   3.274   6.091  0.8719 -1.4484 -1.7101
  247MOL    C5834990   5.259   3.293   5.882 -0.4647 -0.6600  0.2815
  247MOL    C5934991   5.396   3.337   5.831 -0.2556 -0.0923 -0.5069
  247MOL    O6034992   5.406   3.405   5.710 -0.3632  0.0681  0.3429
  247MOL    H6134993   5.276   3.210   5.951 -0.4901 -0.5294  0.4457
  247MOL    H6234994   5.192   3.248   5.809 -1.0361  0.9209 -0.1864
  247MOL    H6334995   5.450   3.244   5.814  1.6835  0.6954  1.1179
  247MOL    H6434996   5.451   3.395   5.904  0.6337 -1.2992 -0.1922
  247MOL    C6534997   5.539   3.412   5.659  0.6312 -0.1129 -0.1070
  247MOL    C6634998   5.528   3.536   5.565  0.2133 -0.0120 -0.1855
  247MOL    O6734999   5.500   3.497   5.431 -0.1264 -0.7866 -0.8882
  247MOL    H6835000   5.614   3.429   5.737  1.3456  0.2677 -0.8661
  247MOL    H6935001   5.569   3.325   5.601 -1.9170  0.0174 -1.6735
  247MOL    H7035002   5.621   3.592   5.561  1.2999 -1.8967 -1.8966
  247MOL    H7135003   5.458   3.611   5.603  1.5679  1.4062 -0.4048
  247MOL    C7235004   5.535   3.599   5.338 -0.8762 -0.5007  0.3906
  247MOL    C7335005   5.491   3.566   5.197  0.3388 -0.0468 -0.1119
  247MOL    O7435006   5.519   3.675   5.112 -0.5360  0.3920 -0.3408
  247MOL    H7535007   5.498   3.698   5.366  3.0613  0.5245  2.3437
  247MOL    H7635008   5.643   3.613   5.337 -1.0423  0.7890  0.1435
  247MOL    H7735009   5.385   3.544   5.205  0.5713 -0.3947  2.7457
  247MOL    H7835010   5.546   3.476   5.168  0.4393 -0.3359  0.9308
  247MOL    C7935011   5.521   3.638   4.975 -0.1468 -0.2693  0.5413
  247MOL    C8035012   5.373   3.630   4.934 -0.1678  0.1129 -0.0456
  247MOL    O8135013   5.333   3.497   4.907 -0.1391  0.3129  0.0536
  247MOL    H8235014   5.571   3.715   4.917 -1.3477 -1.4661 -2.1670
  247MOL    H8335015   5.572   3.546   4.946 -2.6700 -1.7451  0.6390
  247MOL    H8435016   5.366   3.685   4.840 -0.5725 -0.0683 -0.1187
  247MOL    H8535017   5.303   3.683   4.999 -0.2609  1.8335 -1.4932
  247MOL    C8635018   5.223   3.484   4.821 -0.0626 -0.0998  0.5920
  247MOL    C8735019   5.079   3.497   4.888  0.3050  0.3178  0.0986
  247MOL    O8835020   4.987   3.505   4.781 -0.0072  0.1129 -0.3853
  247MOL    H8935021   5.236   3.555   4.739  1.1606  1.0642  1.7788
  247MOL    H9035022   5.250   3.391   4.770  0.2854  0.1541  0.3120
  247MOL    H9135023   5.081   3.595   4.933 -0.4186  0.0825  0.6474
  247MOL    H9235024   5.076   3.415   4.960  3.3443 -1.0975 -1.2847
  247MOL    C9335025   4.855   3.475   4.824  0.1957  0.6743  0.2686
  247MOL    C9435026   4.790   3.606   4.872 -0.0082  0.3883 -0.1598
  247MOL    O9535027   4.661   3.570   4.930  0.2598  0.0826  0.7316
  247MOL    H9635028   4.789   3.432   4.748  1.7311 -0.4317 -0.4466
  247MOL    H9735029   4.858   3.407   4.909  0.1338  0.2988 -0.0262
  247MOL    H9835030   4.779   3.687   4.799 -1.4130 -0.4200 -0.8741
  247MOL    H9935031   4.848   3.632   4.960 -0.7842 -0.9888  0.7700
  247MOL   C10035032   4.591   3.668   5.006  0.1448  0.0184  0.3487
  247MOL   C10135033   4.524   3.767   4.907  0.0295 -0.2992  0.7647
  247MOL   O10235034   4.389   3.722   4.884  0.3143 -0.2586  0.1892
  247MOL   H10335035   4.514   3.625   5.069  0.9303  0.2768  1.5002
  247MOL   H10435036   4.668   3.718   5.066 -0.0373  1.7778 -0.8568
  247MOL   H10535037   4.582   3.777   4.816  1.0880  0.1142  1.4716
  247MOL   H10635038   4.530   3.864   4.956 -1.1947  1.2098 -1.9447
  247MOL   C10735039   4.338   3.784   4.765 -0.9309  0.5290 -0.3198
  247MOL   C10835040   4.275   3.925   4.788 -0.4598 -0.3498  0.3826
  247MOL   O10935041   4.374   4.027   4.824  0.2321 -0.7868  0.0199
  247MOL   H11035042   4.408   3.785   4.682  1.4333  1.4576  1.6481
  247MOL   H11135043   4.252   3.722   4.737 -2.0364  2.2088 -0.7667
  247MOL   H11235044   4.195   3.930   4.861  0.0347  1.0640  0.8425
  247MOL   H11335045   4.226   3.965   4.699  0.9049 -2.4295 -1.3719
  247MOL   C11435046   4.323   4.151   4.878 -0.1285 -0.3913  1.1499
  247MOL   C11535047   4.447   4.205   4.953 -0.6441  0.7501 -0.7194
  247MOL   O11635048   4.420   4.336   5.007 -0.0769 -0.5297 -0.5341
  247MOL   H11735049   4.281   4.218   4.803  1.3788 -1.0022 -0.2664
  247MOL   H11835050   4.251   4.138   4.959 -0.5729 -3.5183  0.3199
  247MOL   H11935051   4.541   4.194   4.898 -0.5140 -1.9541  0.0050
  247MOL   H12035052   4.463   4.126   5.027 -1.1609 -0.7954 -2.2354
  247MOL   C12135053   4.496   4.382   5.120  0.1997  0.2730  0.2586
  247MOL   C12235054   4.506   4.534   5.103 -0.4152  0.1237  0.1657
  247MOL   O12335055   4.383   4.591   5.135  0.2987  0.3788 -0.5151
  247MOL   H12435056   4.462   4.353   5.219 -1.7710  3.2977  0.5284
  247MOL   H12535057   4.602   4.357   5.111  0.2601  1.2046 -1.9469
  247MOL   H12635058   4.541   4.561   5.004 -1.0401  0.4829  0.0397
  247MOL   H12735059   4.574   4.574   5.178 -2.2988  0.6732  1.6553
  247MOL   C12835060   4.402   4.741   5.142 -0.2682  0.6328  0.4941
  247MOL   C12935061   4.264   4.800   5.179 -0.7466  0.0260  0.4877
  247MOL   O13035062   4.270   4.931   5.232 -0.4157 -0.5242 -0.0342
  247MOL   H13135063   4.460   4.759   5.232 -0.9277  1.0382  0.8462
  247MOL   H13235064   4.448   4.792   5.058  0.7284 -0.7286  0.1945
  247MOL   H13335065   4.206   4.740   5.249  0.0942 -0.2150  0.9845
  247MOL   H13435066   4.207   4.789   5.087  0.5831  2.1222 -0.6149
  247MOL   C13535067   4.151   5.009   5.215 -0.0980 -1.1895 -0.5069
  247MOL   C13635068   4.168   5.136   5.282 -0.4638  0.0731  0.2051
  247MOL   O13735069   4.064   5.221   5.247  0.4183  0.6666  0.4935
  247MOL   H13835070   4.131   5.030   5.110 -3.3726 -1.8224 -0.0751
  247MOL   H13935071   4.069   4.950   5.256  1.7502 -3.2228  0.4033
  247MOL   H14035072   4.250   5.194   5.240 -0.9205 -0.2975 -1.1919
  247MOL   H14135073   4.175   5.119   5.390 -0.9507 -0.3910  0.1656
  247MOL   H14235074   3.992   5.208   5.307  0.8691  1.5830  1.2427
  248MOL     C135075   1.167   2.622   0.279 -0.2032  0.5744  0.5404
  248MOL     C235076   1.155   2.504   0.371  0.1772 -0.6387  0.0078
  248MOL     O335077   1.017   2.485   0.402  0.1628  0.2199 -0.1981
  248MOL     H435078   1.097   2.605   0.198  0.8683  2.8282 -0.9221
  248MOL     H535079   1.265   2.630   0.232 -0.8398  2.1222 -0.5588
  248MOL     H635080   1.224   2.515   0.455 -0.8351  0.2965  0.7132
  248MOL     H735081   1.193   2.414   0.322 -1.8884 -1.3631 -0.3141
  248MOL     H835082   1.143   2.714   0.333  3.4082  1.9073  0.0441
  248MOL     C935083   0.995   2.367   0.477  0.6213  0.5001  0.1792
  248MOL    C1035084   0.878   2.407   0.568 -1.0154  0.2459  0.0924
  248MOL    O1135085   0.765   2.396   0.478 -0.3558  0.5728 -0.2957
  248MOL    H1235086   0.958   2.274   0.435  1.2930 -0.3826  1.4949
  248MOL    H1335087   1.079   2.349   0.544 -1.1696 -0.2382  2.3071
  248MOL    H1435088   0.886   2.509   0.604  3.6053 -0.2743  0.8536
  248MOL    H1535089   0.886   2.344   0.657  2.7537  0.0386 -0.2929
  248MOL    C1635090   0.647   2.398   0.553 -0.0537  0.2471 -0.3754
  248MOL    C1735091   0.523   2.387   0.456 -0.5702 -0.0198  0.3888
  248MOL    O1835092   0.483   2.253   0.453 -0.3274  0.3196  0.0678
  248MOL    H1935093   0.647   2.317   0.626  2.2239  0.8434  0.3287
  248MOL    H2035094   0.653   2.491   0.608  0.9152 -0.6629  1.1048
  248MOL    H2135095   0.556   2.413   0.355 -1.8852  0.5159  0.0895
  248MOL    H2235096   0.453   2.456   0.504 -0.8880  0.4873 -0.7868
  248MOL    C2335097   0.385   2.223   0.353  0.4327  0.3191  0.0009
  248MOL    C2435098   0.244   2.278   0.398 -0.0729 -0.4320 -0.3485
  248MOL    O2535099   0.238   2.424   0.376 -0.2513 -0.5039  0.5083
  248MOL    H2635100   0.420   2.251   0.253  1.2221  1.7754  0.6589
  248MOL    H2735101   0.378   2.115   0.345 -0.1554  0.4376 -1.1159
  248MOL    H2835102   0.214   2.257   0.500  0.1267  0.3329 -0.1248
  248MOL    H2935103   0.165   2.240   0.333 -0.1467  0.0848 -0.5666
  248MOL    C3035104   0.117   2.486   0.409  0.0955 -0.6946  0.5169
  248MOL    C3135105   0.022   2.500   0.284 -0.2673 -0.1063 -0.0569
  248MOL    O3235106   7.728   2.372   0.275 -0.3272 -0.3436 -0.4405
  248MOL    H3335107   0.069   2.441   0.495  0.7122 -1.5329  0.4305
  248MOL    H3435108   0.144   2.589   0.431  2.0694 -0.2022 -3.7640
  248MOL    H3535109   0.083   2.532   0.200  1.4130  0.6046  1.3875
  248MOL    H3635110   7.731   2.586   0.307 -0.2204 -0.3711  1.0972
  248MOL    C3735111   7.631   2.364   0.164  1.0052  0.3896 -0.0331
  248MOL    C3835112   7.557   2.231   0.152  0.2466  0.0062 -1.1622
  248MOL    O3935113   7.447   2.254   0.069 -0.1573  0.4693  0.5664
  248MOL    H4035114   7.559   2.446   0.174  1.4036  0.5278  1.8963
  248MOL    H4135115   7.678   2.387   0.069  0.1336  0.8038 -0.3715
  248MOL    H4235116   7.527   2.200   0.252  1.5828 -0.5636 -0.9225
  248MOL    H4335117   7.624   2.153   0.116 -2.7212 -3.1442 -0.0954
  248MOL    C4435118   7.418   2.137   7.763  0.1254  0.1108 -0.3175
  248MOL    C4535119   7.311   2.168   7.657  0.0972 -0.3345 -0.2942
  248MOL    O4635120   7.297   2.048   7.579 -0.2747 -0.0388  0.5471
  248MOL    H4735121   7.507   2.096   7.715 -0.5086 -1.1235 -0.4434
  248MOL    H4835122   7.381   2.062   0.062 -1.2453  0.2193 -0.9050
  248MOL    H4935123   7.350   2.248   7.593  2.4689 -0.9716  0.2969
  248MOL    H5035124   7.211   2.195   7.692  0.7437 -0.9212  2.1008
  248MOL    C5135125   7.213   2.069   7.469 -0.0299  0.2075  0.1693
  248MOL    C5235126   7.233   1.956   7.364  0.1697  0.3097  0.0420
  248MOL    O5335127   7.161   1.837   7.393  0.3742 -0.5278  0.7455
  248MOL    H5435128   7.107   2.090   7.487 -0.2974 -0.2801 -0.8281
  248MOL    H5535129   7.239   2.160   7.415  0.2258  0.5028  0.7786
  248MOL    H5635130   7.333   1.929   7.328 -0.1312 -0.9565  0.1289
  248MOL    H5735131   7.186   1.996   7.274  2.2321 -1.3979 -1.8464
  248MOL    C5835132   7.136   1.748   7.284 -0.6479 -1.0841  0.2251
  248MOL    C5935133   7.264   1.664   7.254 -0.8038 -0.3552 -0.4342
  248MOL    O6035134   7.335   1.714   7.138  0.7144  0.6976 -0.0358
  248MOL    H6135135   7.067   1.672   7.319 -1.3762 -0.9044 -0.8047
  248MOL    H6235136   7.100   1.797   7.194  0.2896  1.0439  0.9777
  248MOL    H6335137   7.247   1.558   7.235 -1.2356  0.1722 -3.2444
  248MOL    H6435138   7.332   1.658   7.339 -1.6242 -1.7130  0.1347
  248MOL    C6535139   7.452   1.644   7.099  0.1756  0.1663  0.4961
  248MOL    C6635140   7.516   1.726   6.992 -0.2181  0.5106  0.3017
  248MOL    O6735141   7.591   1.648   6.898  0.4176 -0.2535  0.1007
  248MOL    H6835142   7.513   1.611   7.182 -0.6076  0.5415  1.2260
  248MOL    H6935143   7.409   1.554   7.055  0.3232  0.3726 -0.0793
  248MOL    H7035144   7.589   1.791   7.040  2.0801 -0.9440 -1.1292
  248MOL    H7135145   7.441   1.780   6.934  0.3256 -0.9024 -1.7440
  248MOL    C7235146   7.665   1.714   6.799  0.0922  0.0836  0.0759
  248MOL    C7335147   7.725   1.614   6.699  0.7911  0.3047  0.0840
  248MOL    O7435148   0.060   1.539   6.754  0.0807 -0.5700 -0.8504
  248MOL    H7535149   7.611   1.796   6.752  1.4647  0.4684 -0.8398
  248MOL    H7635150   7.757   1.746   6.847 -0.0417 -0.7633  0.9277
  248MOL    H7735151   7.768   1.665   6.612 -0.2737  0.3983 -0.3949
  248MOL    H7835152   7.647   1.552   6.656  1.4952 -1.4717  1.3082
  248MOL    C7935153   0.113   1.452   6.655 -0.6044 -0.4840 -0.6486
  248MOL    C8035154   0.179   1.333   6.722 -0.0446 -0.1274 -0.1095
  248MOL    O8135155   0.306   1.380   6.778  0.1759  0.2947 -0.1143
  248MOL    H8235156   0.036   1.425   6.583  0.1508  0.0667 -1.6956
  248MOL    H8335157   0.192   1.503   6.598  2.8970 -1.0628  3.4495
  248MOL    H8435158   0.194   1.252   6.651  0.1946  1.2427 -1.6656
  248MOL    H8535159   0.111   1.313   6.804  0.6439 -0.6326  0.3442
  248MOL    C8635160   0.373   1.273   6.843 -0.6093  0.3818  0.0897
  248MOL    C8735161   0.515   1.318   6.867 -0.3222  0.0849 -0.1195
  248MOL    O8835162   0.601   1.264   6.766  0.3469 -0.3443 -0.7501
  248MOL    H8935163   0.308   1.251   6.928 -0.6546 -0.3423 -0.1345
  248MOL    H9035164   0.374   1.188   6.775  1.3493 -0.2606  0.8825
  248MOL    H9135165   0.547   1.280   6.964  1.6788  0.4300 -0.6230
  248MOL    H9235166   0.517   1.427   6.871 -1.0146  0.0643  0.9583
  248MOL    C9335167   0.741   1.272   6.796  0.8486  0.8929 -0.0306
  248MOL    C9435168   0.825   1.179   6.705  0.1964 -0.0938 -0.0091
  248MOL    O9535169   0.767   1.053   6.719  1.0209  0.1780  0.1101
  248MOL    H9635170   0.774   1.374   6.778  2.0396  0.1807 -2.0176
  248MOL    H9735171   0.755   1.254   6.903  0.4046 -0.9674 -0.2702
  248MOL    H9835172   0.929   1.173   6.738  0.9273  0.2018 -2.2004
  248MOL    H9935173   0.819   1.219   6.604  0.8523 -1.2388 -0.5096
  248MOL   C10035174   0.842   0.955   6.642  0.3646  0.3338 -0.3947
  248MOL   C10135175   0.773   0.817   6.658 -0.3502  0.2548  0.5549
  248MOL   O10235176   0.646   0.822   6.600 -0.3852  0.0021  0.0751
  248MOL   H10335177   0.849   0.993   6.540 -1.2752 -1.7592 -1.3449
  248MOL   H10435178   0.948   0.951   6.665  0.8463  1.0016 -2.4209
  248MOL   H10535179   0.773   0.782   6.761  3.6201 -0.8285  0.2983
  248MOL   H10635180   0.833   0.740   6.608 -0.1742 -0.4614  1.8252
  248MOL   C10735181   0.644   0.809   6.457 -0.4072  0.2965  0.0330
  248MOL   C10835182   0.496   0.809   6.407  0.1912  0.9200  0.0757
  248MOL   O10935183   0.433   0.692   6.466 -0.1767 -0.5846  0.6695
  248MOL   H11035184   0.706   0.887   6.412  2.4283 -0.8494  1.8331
  248MOL   H11135185   0.693   0.715   6.433 -2.0264 -0.3661 -0.7133
  248MOL   H11235186   0.496   0.812   6.298 -2.9154  0.4573  0.0148
  248MOL   H11335187   0.462   0.907   6.441  2.0666  0.8521  2.2629
  248MOL   C11435188   0.289   0.702   6.466  0.0206  0.2607  0.3982
  248MOL   C11535189   0.225   0.574   6.527  0.0606 -0.4703 -0.2479
  248MOL   O11635190   0.213   0.472   6.423 -0.5674 -0.6228  0.0031
  248MOL   H11735191   0.268   0.778   6.541 -1.3102  1.6440 -1.3442
  248MOL   H11835192   0.240   0.737   6.376 -0.0440  0.9025  0.6781
  248MOL   H11935193   0.124   0.580   6.567 -0.7340  0.6688 -2.3435
  248MOL   H12035194   0.274   0.537   6.616 -0.3487 -2.2780 -0.7601
  248MOL   C12135195   0.185   0.347   6.477  0.4920 -0.0289  0.5559
  248MOL   C12235196   0.116   0.249   6.371 -0.9076 -0.7038  0.4772
  248MOL   O12335197   0.031   0.153   6.421  0.3847 -0.3942 -0.4097
  248MOL   H12435198   0.272   0.286   6.501  0.4246 -0.7750 -1.0118
  248MOL   H12535199   0.125   0.350   6.568  1.1543 -1.4865  1.0516
  248MOL   H12635200   0.184   0.200   6.302 -1.1330  0.7633 -0.7942
  248MOL   H12735201   0.061   0.308   6.298  1.1629 -1.9457 -2.1513
  248MOL   C12835202   0.091   0.052   6.512 -0.5007 -0.1083  0.0826
  248MOL   C12935203   7.761   7.710   6.538 -0.2844  0.0669 -0.2919
  248MOL   O13035204   7.694   7.730   6.658  0.5970 -0.4409  0.0364
  248MOL   H13135205   0.174   0.009   6.457 -0.1167 -1.5647  1.7801
  248MOL   H13235206   0.126   0.106   6.600 -0.5491  0.2333 -0.1054
  248MOL   H13335207   0.037   7.612   6.552 -1.1199 -0.1714  0.9929
  248MOL   H13435208   7.686   7.700   6.459  0.4649 -0.0113 -0.9988
  248MOL   C13535209   7.595   7.631   6.680 -0.4222 -0.5696  0.4101
  248MOL   C13635210   7.559   7.649   6.832  0.3070 -0.4715 -0.5715
  248MOL   O13735211   7.666   7.629   6.928  0.1642 -0.0572  0.2026
  248MOL   H13835212   7.505   7.656   6.625  0.1165  2.5329  0.8644
  248MOL   H13935213   7.629   7.530   6.656 -1.7518 -0.8156 -0.4784
  248MOL   H14035214   7.471   7.595   6.866 -0.7895  0.7451 -1.4153
  248MOL   H14135215   7.512   7.747   6.842 -1.0629 -1.0612 -1.1405
  248MOL   H14235216   7.708   7.712   6.943 -0.0140 -0.3489  2.5480
  249MOL     C135217   1.207   2.337   6.644  0.3318 -0.3223 -0.0950
  249MOL     C235218   1.258   2.424   6.759  0.3929 -0.4704  0.6971
  249MOL     O335219   1.226   2.349   6.878 -0.2918 -0.2790 -0.4763
  249MOL     H435220   1.231   2.384   6.548  1.5542 -1.5394 -0.4056
  249MOL     H535221   1.100   2.319   6.656  0.7162 -1.6136  1.4684
  249MOL     H635222   1.212   2.523   6.769 -0.6664 -0.7778 -0.9015
  249MOL     H735223   1.365   2.444   6.756  0.7308 -2.3165  0.0460
  249MOL     H835224   1.243   2.234   6.638 -0.6639 -0.5934 -2.0592
  249MOL     C935225   1.245   2.412   7.004  0.2183  0.1652 -0.5660
  249MOL    C1035226   1.192   2.321   7.112 -0.0473 -0.2884 -0.0954
  249MOL    O1135227   1.058   2.353   7.142 -0.2903  0.0750  0.1635
  249MOL    H1235228   1.349   2.440   7.024  0.1083 -0.1999  0.5056
  249MOL    H1335229   1.188   2.504   7.014 -0.2274 -0.2367  0.6808
  249MOL    H1435230   1.247   2.356   7.199 -2.0691  3.0824 -0.1179
  249MOL    H1535231   1.227   2.219   7.096 -0.5252 -0.2668 -1.3452
  249MOL    C1635232   0.962   2.286   7.069  0.1870 -0.2164  0.0093
  249MOL    C1735233   0.821   2.307   7.128 -0.0794 -0.7813 -0.1223
  249MOL    O1835234   0.731   2.244   7.044  0.1403  0.5290 -0.7691
  249MOL    H1935235   0.974   2.322   6.967  1.7461  2.1183  0.9907
  249MOL    H2035236   0.975   2.177   7.068 -0.7896 -0.3333 -0.9555
  249MOL    H2135237   0.780   2.407   7.141 -3.4584 -1.8237 -2.1527
  249MOL    H2235238   0.819   2.266   7.229 -0.8486  0.0922  0.2270
  249MOL    C2335239   0.600   2.247   7.095  0.6755 -0.2069 -0.0638
  249MOL    C2435240   0.505   2.227   6.970 -0.0610 -0.0415  0.1547
  249MOL    O2535241   0.460   2.356   6.933 -0.3620 -0.3727  0.3382
  249MOL    H2635242   0.595   2.167   7.170 -0.2176  0.8456  1.0167
  249MOL    H2735243   0.582   2.339   7.149 -1.2234 -0.3769 -0.3654
  249MOL    H2835244   0.429   2.150   6.977  1.7989 -1.7106  2.8114
  249MOL    H2935245   0.557   2.209   6.876  0.0550  0.4663  0.1235
  249MOL    C3035246   0.343   2.395   7.003 -0.4162 -0.4246 -0.1313
  249MOL    C3135247   0.217   2.326   6.965  0.6959  0.1802 -1.3332
  249MOL    O3235248   0.215   2.201   7.038  0.2426  0.8359 -0.2761
  249MOL    H3335249   0.350   2.375   7.110  1.8980 -0.4407 -0.2736
  249MOL    H3435250   0.328   2.502   6.987  2.4054  0.1139  0.5557
  249MOL    H3535251   0.204   2.302   6.859  2.4086 -1.3677 -1.2269
  249MOL    H3635252   0.145   2.396   7.007  0.1845 -0.0438 -1.8310
  249MOL    C3735253   0.098   2.122   7.024 -0.5308  0.0499  0.6295
  249MOL    C3835254   0.108   1.988   7.095 -0.1419 -0.5473  0.2368
  249MOL    O3935255   0.083   2.000   7.236  0.1364 -1.0647 -0.2864
  249MOL    H4035256   0.008   2.174   7.055  1.0811  2.0174  2.1494
  249MOL    H4135257   0.068   2.104   6.920  0.6354 -0.9469  0.4464
  249MOL    H4235258   0.210   1.951   7.086  0.7455  1.8562 -0.1761
  249MOL    H4335259   0.046   1.917   7.039  0.8450 -0.3380 -1.1589
  249MOL    C4435260   0.126   1.886   7.301 -0.2830  1.1553  0.1491
  249MOL    C4535261   0.014   1.786   7.327 -0.5595  0.0650  0.3998
  249MOL    O4635262   7.708   1.815   7.449 -0.2220 -0.4855 -0.1600
  249MOL    H4735263   0.209   1.835   7.252 -0.4089  1.0586  0.0373
  249MOL    H4835264   0.171   1.924   7.393 -0.7478 -2.6981  2.0452
  249MOL    H4935265   0.052   1.684   7.334 -0.1947  0.2737  1.5105
  249MOL    H5035266   7.718   1.810   7.245  1.4400  0.7979 -1.0659
  249MOL    C5135267   7.585   1.750   7.459  0.4884  0.4263  0.6708
  249MOL    C5235268   7.525   1.793   7.590  0.1357  0.3568 -0.1898
  249MOL    O5335269   7.405   1.719   7.590  0.3792 -0.0698  0.0096
  249MOL    H5435270   7.531   1.775   7.368  1.8642  2.6222  0.4140
  249MOL    H5535271   7.605   1.643   7.454  1.3553  0.5368  1.5559
  249MOL    H5635272   7.505   1.900   7.588  1.4057  0.6098  0.2173
  249MOL    H5735273   7.590   1.765   7.673 -0.1688 -0.3855 -0.2016
  249MOL    C5835274   7.307   1.757   7.692 -0.5784  1.2995  0.3226
  249MOL    C5935275   7.285   1.643   0.017  0.2981  0.2358  0.3259
  249MOL    O6035276   7.330   1.670   0.149  0.3706  0.6020  0.1316
  249MOL    H6135277   7.336   1.838   7.759  0.5446  1.3288 -0.1905
  249MOL    H6235278   7.215   1.792   7.646 -0.9077  1.2415  0.9244
  249MOL    H6335279   7.322   1.552   7.740 -1.7168 -0.5717  0.2806
  249MOL    H6435280   7.181   1.614   0.031 -0.1260  0.6745 -1.7658
  249MOL    C6535281   7.466   1.695   0.183  0.2031 -0.2393  0.4295
  249MOL    C6635282   7.549   1.571   0.172 -0.0535  0.2466  0.2087
  249MOL    O6735283   7.662   1.581   0.253  0.1443 -0.1317 -0.5998
  249MOL    H6835284   7.508   1.767   0.113 -0.9586  0.8005  0.7694
  249MOL    H6935285   7.474   1.732   0.285  2.8196  1.4212 -0.3405
  249MOL    H7035286   7.575   1.556   0.068 -3.2526  2.3279 -0.9668
  249MOL    H7135287   7.487   1.487   0.204  0.3591 -0.0954  0.1239
  249MOL    C7235288   7.726   1.460   0.258  0.6457 -0.2807 -0.5098
  249MOL    C7335289   0.070   1.459   0.350  0.2553 -0.3700 -0.9613
  249MOL    O7435290   0.184   1.496   0.267  0.4583 -0.4539 -0.6016
  249MOL    H7535291   7.648   1.400   0.306  1.4892 -1.1353 -0.1873
  249MOL    H7635292   7.757   1.414   0.164  1.1549  1.2968 -1.1316
  249MOL    H7735293   0.087   1.359   0.389 -0.6591 -0.1706 -0.0395
  249MOL    H7835294   0.051   1.512   0.443 -0.0346 -1.2349 -0.5328
  249MOL    C7935295   0.303   1.503   0.335  0.1697 -0.1421  0.7493
  249MOL    C8035296   0.321   1.653   0.371 -0.3289  0.5282  0.8187
  249MOL    O8135297   0.253   1.692   0.489  0.2616  0.3529 -0.3465
  249MOL    H8235298   0.310   1.436   0.421  0.7986  0.8593  1.4837
  249MOL    H8335299   0.386   1.478   0.268  1.3221  1.4812  1.5517
  249MOL    H8435300   0.287   1.715   0.287  1.0776 -0.3293 -0.4160
  249MOL    H8535301   0.428   1.670   0.383 -0.4134  0.0289  2.2755
  249MOL    C8635302   0.274   1.828   0.506 -0.5136 -0.1886 -0.1384
  249MOL    C8735303   0.398   1.859   0.588  0.3116  0.1341 -0.4200
  249MOL    O8835304   0.371   1.847   0.726  0.4674 -0.1398 -0.4421
  249MOL    H8935305   0.275   1.889   0.415 -3.5700  1.1821  0.6946
  249MOL    H9035306   0.183   1.861   0.555 -0.7938 -1.5517  0.2513
  249MOL    H9135307   0.419   1.965   0.570 -2.4948  0.7342 -0.3383
  249MOL    H9235308   0.492   1.810   0.564  1.3657  0.6976  2.3214
  249MOL    C9335309   0.457   1.928   0.803 -0.1580 -0.2274 -0.7133
  249MOL    C9435310   0.399   2.075   0.812  0.6104  0.7964  0.1135
  249MOL    O9535311   0.502   2.157   0.845  0.1592 -0.3129  0.1530
  249MOL    H9635312   0.466   1.889   0.905 -1.7692  0.0604 -0.4466
  249MOL    H9735313   0.560   1.939   0.769  0.1031 -0.2277  0.0552
  249MOL    H9835314   0.323   2.063   0.889 -1.1179  0.3852 -1.6377
  249MOL    H9935315   0.349   2.117   0.725  0.9172  0.4227 -0.2444
  249MOL   C10035316   0.462   2.293   0.842  0.0109  0.3917  0.0996
  249MOL   C10135317   0.583   2.378   0.890 -0.4555  1.4050  0.0585
  249MOL   O10235318   0.586   2.516   0.869  0.6085 -0.0175  0.1182
  249MOL   H10335319   0.437   2.333   0.744 -0.8833 -0.4396 -0.0096
  249MOL   H10435320   0.373   2.321   0.898 -1.5365 -1.4230 -1.3740
  249MOL   H10535321   0.677   2.343   0.847  0.1752  0.8258  1.8645
  249MOL   H10635322   0.607   2.362   0.995  1.3156  0.4370 -0.4735
  249MOL   C10735323   0.708   2.590   0.877  0.1548  0.1746  0.4250
  249MOL   C10835324   0.675   2.735   0.856  0.4019 -0.0685  0.0082
  249MOL   O10935325   0.636   2.744   0.719  0.2431 -0.1311  0.0819
  249MOL   H11035326   0.740   2.572   0.980  0.4895  3.1918  0.8893
  249MOL   H11135327   0.776   2.542   0.807 -1.2274 -0.6232 -0.3971
  249MOL   H11235328   0.762   2.800   0.863  0.2278  0.2212 -0.4997
  249MOL   H11335329   0.603   2.764   0.932 -0.4935  1.4319 -1.3589
  249MOL   C11435330   0.501   2.783   0.698 -0.2075  0.8753 -0.2134
  249MOL   C11535331   0.487   2.937   0.722 -0.5656  0.3469  0.0522
  249MOL   O11635332   0.520   2.991   0.598 -0.2438  0.6090  0.5062
  249MOL   H11735333   0.463   2.757   0.599 -2.1730  1.1401  0.4396
  249MOL   H11835334   0.437   2.731   0.769  1.4679  0.5280  1.0640
  249MOL   H11935335   0.550   2.980   0.799  1.6462 -0.2551 -1.3873
  249MOL   H12035336   0.385   2.966   0.748 -0.0252  0.2887  2.3006
  249MOL   C12135337   0.514   3.138   0.585 -0.2657 -0.5460 -0.5518
  249MOL   C12235338   0.373   3.175   0.564 -0.5546 -0.2171 -0.1901
  249MOL   O12335339   0.289   3.171   0.673 -0.2566  0.3744  0.0269
  249MOL   H12435340   0.550   3.193   0.672 -0.5663 -0.6956 -0.3321
  249MOL   H12535341   0.579   3.167   0.502 -0.2272 -1.8271 -0.9766
  249MOL   H12635342   0.319   3.100   0.506 -2.1918 -0.3278  1.4110
  249MOL   H12735343   0.374   3.270   0.511  0.8465 -0.1984 -0.1551
  249MOL   C12835344   0.271   3.290   0.748  1.0138  0.0547 -0.2500
  249MOL   C12935345   0.203   3.261   0.879  0.2051 -0.0891 -0.2463
  249MOL   O13035346   0.195   3.376   0.965 -0.2145  0.1806 -0.8267
  249MOL   H13135347   0.367   3.340   0.751  0.5458  1.1830 -2.7351
  249MOL   H13235348   0.216   3.361   0.686 -2.1350 -0.4618  1.8483
  249MOL   H13335349   0.260   3.185   0.933 -0.4872 -0.7544 -0.4367
  249MOL   H13435350   0.108   3.209   0.865  0.0928 -0.6329  2.1881
  249MOL   C13535351   0.095   3.464   0.937 -0.3350 -0.5472  0.4232
  249MOL   C13635352   0.121   3.588   1.025  0.1125  0.7190 -0.1300
  249MOL   O13735353   0.138   3.555   1.162 -0.8598  0.7521 -0.1666
  249MOL   H13835354   0.075   3.504   0.838  0.4084 -1.3218 -0.0567
  249MOL   H13935355   0.012   3.407   0.977  0.6039 -1.2147  1.4579
  249MOL   H14035356   0.039   3.659   1.022 -0.0584  0.6768  2.4930
  249MOL   H14135357   0.197   3.651   0.979 -1.2612 -0.0039 -3.6029
  249MOL   H14235358   0.182   3.472   1.160 -2.2638  0.0265 -3.3240
  250MOL     C135359   1.091   1.071   0.011 -0.8220  0.2283 -0.1594
  250MOL     C235360   1.247   1.078   0.033  0.0936  0.7217  0.1349
  250MOL     O335361   1.313   0.955   0.006 -0.1565 -0.1830 -0.1482
  250MOL     H435362   1.048   1.170   0.022 -0.9169  0.0541  1.1868
  250MOL     H535363   1.039   0.997   0.072 -1.1711 -0.6884 -1.5392
  250MOL     H635364   1.274   1.118   0.130 -0.9065 -2.2282  1.7073
  250MOL     H735365   1.287   1.146   7.729  0.0660  1.8907  1.1631
  250MOL     H835366   1.066   1.049   7.678  1.7689 -0.1181 -0.7518
  250MOL     C935367   1.451   0.957   0.040 -0.4526  0.6092  0.3192
  250MOL    C1035368   1.545   1.003   7.694 -0.3992 -0.5071 -0.0695
  250MOL    O1135369   1.523   1.139   7.666  0.0291 -0.7529 -0.2533
  250MOL    H1235370   1.461   1.016   0.130  1.2935  1.1982 -0.2324
  250MOL    H1335371   1.470   0.853   0.069  0.2109  0.3029 -1.1457
  250MOL    H1435372   1.542   0.936   7.607 -0.7759  0.5368 -0.8713
  250MOL    H1535373   1.648   0.988   7.725 -0.4982 -2.1596 -0.4828
  250MOL    C1635374   1.621   1.185   7.577  0.1679  0.2614 -1.0284
  250MOL    C1735375   1.576   1.189   7.429 -0.4046  0.2798  0.4080
  250MOL    O1835376   1.566   1.072   7.350 -0.1348 -0.1608 -0.1224
  250MOL    H1935377   1.642   1.288   7.606 -0.8073  0.6019 -1.4958
  250MOL    H2035378   1.714   1.132   7.601 -0.4216 -1.2107 -1.9157
  250MOL    H2135379   1.642   1.256   7.373  0.4473  0.0179  1.0865
  250MOL    H2235380   1.475   1.227   7.437  0.3889  2.5119  0.0629
  250MOL    C2335381   1.518   1.095   7.215 -0.0128  0.0584  0.6475
  250MOL    C2435382   1.549   0.986   7.119 -0.3102  0.2036  0.2516
  250MOL    O2535383   1.684   0.994   7.086  0.1617 -0.2524  0.4388
  250MOL    H2635384   1.417   1.135   7.225  0.1553  0.0344  2.4553
  250MOL    H2735385   1.562   1.190   7.186 -0.8280 -0.1348 -1.3825
  250MOL    H2835386   1.494   1.002   7.026 -1.1477 -0.5045  0.6150
  250MOL    H2935387   1.533   0.883   7.151 -2.3302  0.6462  0.7372
  250MOL    C3035388   1.738   0.899   6.996  0.1322 -0.2319  0.3760
  250MOL    C3135389   1.702   0.930   6.847  1.0241 -0.4344 -0.1241
  250MOL    O3235390   1.790   1.029   6.810  0.0010  0.0652  0.4918
  250MOL    H3335391   1.845   0.897   7.017  0.1025 -0.4475  0.5104
  250MOL    H3435392   1.711   0.802   7.038 -2.6377 -0.2195 -1.2940
  250MOL    H3535393   1.597   0.962   6.851  0.9459 -0.8086  0.9856
  250MOL    H3635394   1.715   0.839   6.789 -0.3479 -2.0253  1.9820
  250MOL    C3735395   1.738   1.107   6.700  0.2825 -0.9186 -0.3128
  250MOL    C3835396   1.715   1.258   6.742 -0.1162  0.0780 -0.3361
  250MOL    O3935397   1.845   1.325   6.747 -0.4596 -0.3274 -0.0986
  250MOL    H4035398   1.801   1.098   6.612 -0.7396  0.5110 -1.2012
  250MOL    H4135399   1.641   1.067   6.669  0.2927  0.2999 -1.9880
  250MOL    H4235400   1.671   1.268   6.841  1.9837  1.8784  0.4528
  250MOL    H4335401   1.648   1.301   6.668  1.4095  0.7057 -1.3781
  250MOL    C4435402   1.840   1.461   6.768  0.5224 -0.0991  0.0858
  250MOL    C4535403   1.975   1.543   6.762 -0.1631  0.1209  0.0946
  250MOL    O4635404   2.006   1.539   6.623 -0.3252 -0.3315 -0.0009
  250MOL    H4735405   1.768   1.503   6.698 -1.4571 -1.6368  1.1454
  250MOL    H4835406   1.792   1.482   6.864 -0.1881  0.8764 -0.4825
  250MOL    H4935407   2.056   1.494   6.816 -1.0707  0.3965  1.7416
  250MOL    H5035408   1.961   1.643   6.804  0.2166 -0.3532  1.3830
  250MOL    C5135409   2.115   1.626   6.599 -1.1163  0.1568 -0.4131
  250MOL    C5235410   2.152   1.616   6.452  0.2551  1.1277  0.2017
  250MOL    O5335411   2.199   1.494   6.410  0.4138 -0.0921  0.0520
  250MOL    H5435412   2.089   1.727   6.631  1.1356  0.4719  0.5437
  250MOL    H5535413   2.192   1.598   6.672 -1.5412 -0.5840 -0.2434
  250MOL    H5635414   2.216   1.700   6.426 -0.5655  2.2512  1.7104
  250MOL    H5735415   2.059   1.620   6.395  0.5561  0.0533 -0.3656
  250MOL    C5835416   2.340   1.488   6.441  0.3061  0.2311 -0.2197
  250MOL    C5935417   2.405   1.365   6.372 -0.3501  0.2209 -0.1005
  250MOL    O6035418   2.430   1.408   6.237 -0.3546 -0.5653  0.4577
  250MOL    H6135419   2.383   1.580   6.404 -3.3222  1.6596 -1.1308
  250MOL    H6235420   2.359   1.471   6.547 -1.6224  1.3188  0.3157
  250MOL    H6335421   2.342   1.276   6.375 -0.8087  0.5573  0.1374
  250MOL    H6435422   2.500   1.356   6.424  0.4842  1.8357 -1.2965
  250MOL    C6535423   2.333   1.362   6.149  0.0530  0.3385  0.2480
  250MOL    C6635424   2.367   1.403   6.004 -0.0084  0.1358 -0.0128
  250MOL    O6735425   2.474   1.324   5.954  0.1951  0.4679 -0.1130
  250MOL    H6835426   2.324   1.254   6.152  1.4242  0.2549  2.0491
  250MOL    H6935427   2.245   1.421   6.174  1.2803  2.9773 -1.3254
  250MOL    H7035428   2.389   1.509   6.002 -0.1579  0.1885  0.9266
  250MOL    H7135429   2.283   1.382   5.938  0.1287  0.9820 -0.4623
  250MOL    C7235430   2.505   1.357   5.820  0.1645 -0.3840 -0.0986
  250MOL    C7335431   2.657   1.324   5.805 -0.0098 -0.1676  0.1172
  250MOL    O7435432   2.675   1.186   5.768 -0.4991 -0.2146 -0.0224
  250MOL    H7535433   2.446   1.310   5.741 -0.4930  0.8082 -0.3359
  250MOL    H7635434   2.487   1.463   5.801  2.8208  0.0007 -0.7086
  250MOL    H7735435   2.712   1.338   5.898 -2.6897  0.2354  1.6817
  250MOL    H7835436   2.703   1.394   5.735  1.2722 -1.7855 -0.7126
  250MOL    C7935437   2.809   1.169   5.721  0.1850 -0.8169  0.2198
  250MOL    C8035438   2.905   1.163   5.846 -0.2974 -0.6248  0.6109
  250MOL    O8135439   2.963   1.289   5.877 -0.2313 -0.0584  0.5111
  250MOL    H8235440   2.818   1.082   5.656 -1.2552  0.1430 -1.2772
  250MOL    H8335441   2.842   1.241   5.647  1.2091 -1.1342  0.3591
  250MOL    H8435442   2.993   1.107   5.816 -1.1352 -1.8172  0.3388
  250MOL    H8535443   2.860   1.111   5.931 -2.2309  0.3079  0.1801
  250MOL    C8635444   3.015   1.291   6.009 -0.4146  0.1172 -0.3041
  250MOL    C8735445   2.904   1.319   6.118  0.1622  0.3646 -0.2329
  250MOL    O8835446   2.832   1.198   6.146 -0.0316  0.1862  0.0991
  250MOL    H8935447   3.072   1.202   6.034 -0.7434 -0.7211 -2.4460
  250MOL    H9035448   3.094   1.365   6.023 -1.8336  1.8395 -1.1338
  250MOL    H9135449   2.842   1.404   6.089 -0.7915 -0.1624  0.2295
  250MOL    H9235450   2.953   1.347   6.211  1.5025  0.9275 -1.0984
  250MOL    C9335451   2.707   1.219   6.211  0.6828  0.0894  0.5547
  250MOL    C9435452   2.650   1.089   6.267  0.1266  0.1321  0.1434
  250MOL    O9535453   2.707   1.068   6.398 -0.0069  0.0305  0.2637
  250MOL    H9635454   2.719   1.289   6.293 -1.6204  0.8006  0.3166
  250MOL    H9735455   2.623   1.249   6.148 -0.5148 -4.1519 -0.0636
  250MOL    H9835456   2.681   1.011   6.198 -0.0621  2.6217 -2.8502
  250MOL    H9935457   2.542   1.089   6.278 -0.0515  1.7595 -1.4649
  250MOL   C10035458   2.676   0.948   6.467  0.7706  0.5676 -0.0561
  250MOL   C10135459   2.545   0.946   6.553 -0.4197 -0.3207 -1.0233
  250MOL   O10235460   2.441   0.887   6.474 -0.5968  0.0318  0.3537
  250MOL   H10335461   2.687   0.859   6.404  0.5064  0.3125  0.2519
  250MOL   H10435462   2.748   0.940   6.548 -0.9387 -0.6013  1.3956
  250MOL   H10535463   2.517   1.043   6.594 -0.9422 -0.7244 -0.4215
  250MOL   H10635464   2.559   0.896   6.649 -0.7998 -1.5563 -1.5987
  250MOL   C10735465   2.328   0.978   6.467  0.7047 -0.0098 -0.9199
  250MOL   C10835466   2.251   0.934   6.338 -0.3159 -0.3907  0.4141
  250MOL   O10935467   2.326   0.962   6.221 -0.4967  0.8810  0.0056
  250MOL   H11035468   2.266   0.978   6.557 -0.0816  1.8592 -1.4242
  250MOL   H11135469   2.373   1.075   6.444 -0.1498  0.4981 -0.5121
  250MOL   H11235470   2.159   0.991   6.340  0.9612  1.7000  0.6626
  250MOL   H11335471   2.229   0.827   6.337  0.7368 -0.6085 -1.4890
  250MOL   C11435472   2.257   0.937   6.102 -0.2993 -0.2406  0.2172
  250MOL   C11535473   2.352   0.970   5.979  0.1267  0.2942 -0.3181
  250MOL   O11635474   2.303   0.893   5.868  0.5640  0.1733 -0.4238
  250MOL   H11735475   2.221   0.835   6.089 -0.5124 -0.3946  1.9838
  250MOL   H11835476   2.172   1.004   6.086  1.2081  1.1621 -2.4400
  250MOL   H11935477   2.452   0.934   6.004  0.0216  0.4166  0.2768
  250MOL   H12035478   2.370   1.076   5.959  0.7395 -0.2911 -3.0246
  250MOL   C12135479   2.381   0.906   5.754 -0.5364  0.1496 -0.2028
  250MOL   C12235480   2.321   0.848   5.628 -0.7306  0.3198  0.3093
  250MOL   O12335481   2.210   0.936   5.593 -0.0555 -0.5656 -0.0171
  250MOL   H12435482   2.399   1.013   5.744  0.9415  0.0930  1.6207
  250MOL   H12535483   2.479   0.866   5.777 -0.2922  0.4691 -0.6778
  250MOL   H12635484   2.299   0.743   5.648 -1.1397  0.5580  1.1818
  250MOL   H12735485   2.396   0.858   5.550 -1.1683 -1.2055 -0.3288
  250MOL   C12835486   2.131   0.897   5.478  0.1965 -0.5334 -0.2931
  250MOL   C12935487   2.042   0.780   5.510  0.0148 -0.1501  0.4919
  250MOL   O13035488   1.949   0.769   5.400  0.4436 -0.0883 -0.0773
  250MOL   H13135489   2.065   0.979   5.450 -0.3364 -0.8892 -0.0845
  250MOL   H13235490   2.195   0.883   5.391  0.1869 -1.0365 -0.2216
  250MOL   H13335491   1.972   0.793   5.593 -1.0882  1.3307 -0.6544
  250MOL   H13435492   2.102   0.691   5.532 -1.2719 -1.2280 -0.2655
  250MOL   C13535493   1.859   0.664   5.423 -0.0601 -0.7314  0.1386
  250MOL   C13635494   1.797   0.637   5.285  0.1942 -0.1729 -0.1832
  250MOL   O13735495   1.708   0.751   5.267  0.6540 -0.3346 -0.7212
  250MOL   H13835496   1.901   0.569   5.455  0.6574 -0.5893 -0.3608
  250MOL   H13935497   1.778   0.681   5.493  1.1377 -1.4383  1.7287
  250MOL   H14035498   1.751   0.538   5.280 -2.9309  1.2109  0.1700
  250MOL   H14135499   1.872   0.648   5.206  0.7207  0.9229  0.4632
  250MOL   H14235500   1.769   0.823   5.258  0.9780 -0.7265 -1.6050
  251MOL     C135501   2.798   7.715   4.966  0.5211  0.4908 -0.2475
  251MOL     C235502   2.728   0.040   5.057  0.1502  0.0843 -0.4875
  251MOL     O335503   2.660   7.742   5.158  0.1934  0.3278 -0.0728
  251MOL     H435504   2.850   0.001   4.889  0.3368  0.6095 -0.2841
  251MOL     H535505   2.726   7.656   4.911  2.2300 -1.6324 -0.2659
  251MOL     H635506   2.663   0.104   4.997 -3.1610 -1.0721  1.7222
  251MOL     H735507   2.800   0.109   5.100  0.4597  0.0989 -1.0277
  251MOL     H835508   2.855   7.641   5.022  0.1429 -1.4365 -2.3639
  251MOL     C935509   2.622   0.052   5.263 -0.2690 -0.3340  0.3062
  251MOL    C1035510   2.563   7.738   5.380  0.2788 -0.5364  0.2557
  251MOL    O1135511   2.526   0.041   5.487 -0.0480  0.2814 -0.1909
  251MOL    H1235512   2.710   0.104   5.301 -1.0333  0.1894  1.4038
  251MOL    H1335513   2.562   0.137   5.232  0.4474  0.5301  1.2509
  251MOL    H1435514   2.637   7.666   5.417 -0.5180 -0.4742  2.0492
  251MOL    H1535515   2.476   7.680   5.346 -1.2034  0.3422  2.4167
  251MOL    C1635516   2.461   7.733   5.582 -0.1351 -0.0743  0.8421
  251MOL    C1735517   2.377   0.052   5.672 -0.1805  0.2842  0.3703
  251MOL    O1835518   2.250   0.076   5.608 -0.2747  0.3365  0.0681
  251MOL    H1935519   2.394   7.655   5.545  2.3834 -2.5130  1.2752
  251MOL    H2035520   2.541   7.678   5.632 -0.3992 -0.8260  0.4487
  251MOL    H2135521   2.433   0.141   5.701 -0.2499 -0.0377  1.5197
  251MOL    H2235522   2.361   7.768   5.765  2.0905  1.6481  1.6088
  251MOL    C2335523   2.243   0.186   5.513  0.0092 -0.5953  0.2567
  251MOL    C2435524   2.094   0.186   5.475 -0.1849  0.3421  0.2078
  251MOL    O2535525   2.021   0.228   5.595 -0.1377  0.0160  0.5015
  251MOL    H2635526   2.260   0.284   5.557 -0.5434  0.7813 -2.4665
  251MOL    H2735527   2.293   0.159   5.420  1.3125  1.2622  0.3956
  251MOL    H2835528   2.071   0.081   5.458  0.8450  0.5575 -2.8445
  251MOL    H2935529   2.069   0.244   5.386 -2.7802 -0.8830  0.0971
  251MOL    C3035530   1.887   0.262   5.564 -0.0307 -0.2930  0.4302
  251MOL    C3135531   1.828   0.338   5.684  0.3197  0.6518 -0.4859
  251MOL    O3235532   1.883   0.462   5.709  0.6025 -0.5541 -0.1187
  251MOL    H3335533   1.886   0.319   5.471 -0.2987 -0.0291  0.5898
  251MOL    H3435534   1.838   0.168   5.540 -1.1889  0.8048 -1.6011
  251MOL    H3535535   1.817   0.285   5.779  0.2216 -0.2240 -0.9879
  251MOL    H3635536   1.724   0.365   5.664  1.0755  2.0539 -2.7179
  251MOL    C3735537   1.836   0.530   5.831 -0.2860 -0.5192 -0.4041
  251MOL    C3835538   1.908   0.671   5.845 -0.1284  0.5097  0.3809
  251MOL    O3935539   1.839   0.781   5.783  0.5634 -0.1745 -0.2696
  251MOL    H4035540   1.727   0.536   5.835 -0.3110 -0.6056 -0.9068
  251MOL    H4135541   1.872   0.472   5.916  0.9588  1.9614  0.7884
  251MOL    H4235542   2.007   0.657   5.801  0.4844  0.1089  1.8433
  251MOL    H4335543   1.919   0.695   5.951  1.4967  2.4333 -0.1815
  251MOL    C4435544   1.720   0.840   5.846 -0.4089 -0.3671  0.3598
  251MOL    C4535545   1.733   0.989   5.877 -0.3140  0.4428  0.1355
  251MOL    O4635546   1.806   1.010   5.996  0.3717  0.1396 -0.1125
  251MOL    H4735547   1.642   0.821   5.773 -0.6470  1.5451  0.0926
  251MOL    H4835548   1.683   0.779   5.929 -1.0383 -0.5545 -0.0545
  251MOL    H4935549   1.639   1.044   5.878 -1.3591 -1.3168  0.1060
  251MOL    H5035550   1.774   1.034   5.786 -0.8521  3.8364  1.4638
  251MOL    C5135551   1.902   1.119   5.984 -0.3444 -0.5985  0.3757
  251MOL    C5235552   1.957   1.154   6.118 -0.1125  0.1724  0.4598
  251MOL    O5335553   1.868   1.238   6.194  0.2146  0.5844  0.1598
  251MOL    H5435554   1.985   1.092   5.920  0.7236  0.8958  1.0832
  251MOL    H5535555   1.849   1.201   5.935 -0.6400  0.1262  1.8646
  251MOL    H5635556   2.050   1.208   6.100  0.2911 -1.0602 -1.2973
  251MOL    H5735557   1.976   1.066   6.179  2.1938 -0.5718 -1.2713
  251MOL    C5835558   1.923   1.287   6.311  0.4929  0.3589 -0.1662
  251MOL    C5935559   1.809   1.373   6.369  0.2672  0.0093 -0.0412
  251MOL    O6035560   1.830   1.504   6.322  0.4026  0.4535  0.6245
  251MOL    H6135561   1.961   1.210   6.379 -1.2100 -0.3917 -0.0319
  251MOL    H6235562   2.007   1.350   6.284  1.4258 -1.2323 -1.0875
  251MOL    H6335563   1.825   1.371   6.477  1.0581  0.0339 -0.1526
  251MOL    H6435564   1.708   1.334   6.359 -0.0738  0.9060 -0.1022
  251MOL    C6535565   1.744   1.594   6.395 -0.1934  0.5566  0.4486
  251MOL    C6635566   1.750   1.731   6.341 -0.3367 -0.3346 -0.6090
  251MOL    O6735567   1.856   1.788   6.412 -0.0123 -0.3195  0.0188
  251MOL    H6835568   1.642   1.557   6.391  0.1159 -0.3958  1.2879
  251MOL    H6935569   1.766   1.606   6.501  0.9440 -0.6965  0.3671
  251MOL    H7035570   1.656   1.785   6.347 -0.1074 -0.0112  0.0690
  251MOL    H7135571   1.778   1.729   6.235 -1.7953  1.2080 -1.0479
  251MOL    C7235572   1.867   1.927   6.390  0.2166 -0.2777  0.7001
  251MOL    C7335573   2.000   1.984   6.455 -0.3716  0.1949 -0.2860
  251MOL    O7435574   2.003   1.977   6.598  0.5621 -0.0029  0.3467
  251MOL    H7535575   1.854   1.958   6.287 -0.1991 -0.1421  0.7922
  251MOL    H7635576   1.781   1.980   6.432  0.2078  0.7398 -0.5628
  251MOL    H7735577   2.023   2.082   6.413 -1.3112  1.3790  1.8318
  251MOL    H7835578   2.082   1.922   6.422 -1.1978 -1.2838  0.3825
  251MOL    C7935579   2.083   2.076   6.652  0.1793 -0.5523  0.4999
  251MOL    C8035580   2.029   2.088   6.795  0.2517  0.2783  0.0121
  251MOL    O8135581   2.109   2.020   6.884 -0.1806 -0.5151 -0.4927
  251MOL    H8235582   2.188   2.048   6.640  0.3791 -0.1370  1.2287
  251MOL    H8335583   2.073   2.171   6.599  0.5978 -0.9753 -0.3608
  251MOL    H8435584   1.927   2.055   6.814 -0.3077  0.7404 -2.0440
  251MOL    H8535585   2.032   2.193   6.824 -1.7274  0.3290  0.0847
  251MOL    C8635586   2.084   2.050   7.028 -0.6629 -0.1099  0.5896
  251MOL    C8735587   2.193   1.982   7.111  0.4574  0.6935  0.0061
  251MOL    O8835588   2.182   1.841   7.124 -0.5161 -0.4987  0.3546
  251MOL    H8935589   2.108   2.156   7.033 -0.1559 -0.1641 -0.5101
  251MOL    H9035590   1.979   2.042   7.055 -0.1415  0.5979  2.8644
  251MOL    H9135591   2.206   2.020   7.213  2.9533 -3.4008  1.3210
  251MOL    H9235592   2.288   2.020   7.073  0.5521  2.4448  1.8910
  251MOL    C9335593   2.216   1.762   7.009  0.5374  0.3463 -0.1694
  251MOL    C9435594   2.228   1.605   7.046 -0.1515 -0.3665 -0.4741
  251MOL    O9535595   2.349   1.581   7.118  0.0917  0.3615 -0.1138
  251MOL    H9635596   2.149   1.791   6.928 -1.1403 -0.6215  0.8523
  251MOL    H9735597   2.314   1.788   6.968 -0.6956 -0.3867 -3.7530
  251MOL    H9835598   2.205   1.548   6.956  1.3917  1.1908 -1.8803
  251MOL    H9935599   2.135   1.587   7.101 -0.9842  2.7735 -0.7539
  251MOL   C10035600   2.351   1.461   7.200  0.3616  0.2042 -0.7121
  251MOL   C10135601   2.491   1.440   7.258  0.3488 -0.2171  1.0258
  251MOL   O10235602   2.502   1.482   7.391 -0.1819 -0.2184  0.3592
  251MOL   H10335603   2.273   1.463   7.276  2.0904 -0.9330  1.1748
  251MOL   H10435604   2.322   1.375   7.139  1.6242 -0.9335  0.2626
  251MOL   H10535605   2.574   1.485   7.203 -0.2743 -0.5096 -0.1566
  251MOL   H10635606   2.526   1.337   7.248 -0.1259 -0.2953  0.1568
  251MOL   C10735607   2.467   1.391   7.489  0.1116  0.3841 -1.1770
  251MOL   C10835608   2.454   1.460   7.629  0.2157  0.2154 -1.0336
  251MOL   O10935609   2.565   1.428   7.708  0.3899  0.1875  0.5718
  251MOL   H11035610   2.364   1.361   7.472  0.8579 -2.0359 -1.5837
  251MOL   H11135611   2.525   1.299   7.481  2.0986  1.3849  0.9044
  251MOL   H11235612   2.373   1.419   7.689 -0.4979  1.0533 -1.4278
  251MOL   H11335613   2.437   1.567   7.622 -2.2587 -0.1708 -1.3312
  251MOL   C11435614   2.566   1.479   0.068  0.3606  0.1208 -0.3287
  251MOL   C11535615   2.669   1.413   0.162  0.2958  0.3611  0.1036
  251MOL   O11635616   2.635   1.279   0.200  0.2361 -0.0050 -0.6003
  251MOL   H11735617   2.589   1.586   0.064 -0.9476  0.3731 -1.7422
  251MOL   H11835618   2.471   1.465   0.120  0.8473 -1.3861  0.1797
  251MOL   H11935619   2.664   1.487   0.242 -0.3841  1.6984 -1.1520
  251MOL   H12035620   2.769   1.425   0.120 -0.2784  0.2318 -1.2956
  251MOL   C12135621   2.719   1.242   0.311 -0.0515 -0.2544  0.0290
  251MOL   C12235622   2.698   1.107   0.368  0.1388 -0.3384  0.8866
  251MOL   O12335623   2.569   1.109   0.410 -0.1064  0.4497 -0.0259
  251MOL   H12435624   2.823   1.250   0.279  0.2732  2.2309  1.5162
  251MOL   H12535625   2.707   1.322   0.384 -0.0800  1.8284 -2.1680
  251MOL   H12635626   2.763   1.085   0.453  0.6953 -0.7516  0.3603
  251MOL   H12735627   2.719   1.024   0.300  1.3849 -1.5855  2.7439
  251MOL   C12835628   2.504   0.992   0.447  0.2163 -0.0367 -0.0332
  251MOL   C12935629   2.554   0.939   0.586 -0.1407  0.1844 -0.0583
  251MOL   O13035630   2.682   0.895   0.572  0.0484  0.4915 -0.0496
  251MOL   H13135631   2.397   1.011   0.451  0.1750  0.0384 -1.2013
  251MOL   H13235632   2.525   0.908   0.380 -0.1723 -0.2244  0.0784
  251MOL   H13335633   2.502   0.862   0.643  0.7395 -0.2903  0.1114
  251MOL   H13435634   2.537   1.019   0.658  0.5868  0.6992 -0.4519
  251MOL   C13535635   2.764   0.877   0.689  0.5960  0.7728 -0.0530
  251MOL   C13635636   2.906   0.867   0.652 -0.6292  0.1146 -0.6850
  251MOL   O13735637   2.989   0.901   0.763 -0.0466  0.1404  0.0491
  251MOL   H13835638   2.733   0.968   0.740 -2.6701 -0.5646  0.4719
  251MOL   H13935639   2.745   0.792   0.755 -0.2470  1.2664  0.3420
  251MOL   H14035640   2.928   0.924   0.561 -2.4344  4.1112  1.2797
  251MOL   H14135641   2.932   0.767   0.619  1.3469  0.2345  0.4297
  251MOL   H14235642   2.962   0.840   0.831  0.7090  0.7838  0.9449
  252MOL     C135643   4.403   0.187   5.994 -0.2108  0.2423 -0.2374
  252MOL     C235644   4.382   0.258   5.856 -0.0816 -0.1374 -0.7297
  252MOL     O335645   4.293   0.180   5.775 -0.6479  0.1919  0.3180
  252MOL     H435646   4.302   0.161   6.027 -0.4626  0.1912 -1.0218
  252MOL     H535647   4.458   0.252   6.061 -0.1332 -1.4073  1.3394
  252MOL     H635648   4.477   0.283   5.809  1.1490  0.3102  1.9052
  252MOL     H735649   4.327   0.351   5.874  0.8483  0.1370  0.7179
  252MOL     H835650   4.474   0.106   5.977  0.5891  1.1839 -1.4913
  252MOL     C935651   4.300   0.169   5.634  0.3681  0.1794  0.4956
  252MOL    C1035652   4.163   0.133   5.563 -0.1100 -0.0565 -0.2130
  252MOL    O1135653   4.158   0.007   5.509  0.2506 -0.3522 -0.8383
  252MOL    H1235654   4.328   0.269   5.602  1.6333 -0.6001 -0.8910
  252MOL    H1335655   4.385   0.109   5.601 -1.9418 -2.0158 -1.7441
  252MOL    H1435656   4.153   0.198   5.476  0.7446 -1.1230 -1.1183
  252MOL    H1535657   4.074   0.144   5.625 -0.4573 -0.2132 -0.6817
  252MOL    C1635658   4.177   7.663   5.585 -0.8048 -0.5379 -0.0684
  252MOL    C1735659   4.239   7.549   5.503  0.1496  1.4442 -0.4571
  252MOL    O1835660   4.147   7.501   5.405  0.4495 -0.2484 -0.5723
  252MOL    H1935661   4.253   7.679   5.661 -1.5114  1.2514  0.2835
  252MOL    H2035662   4.081   7.626   5.622 -1.2040 -0.2490 -0.8200
  252MOL    H2135663   4.251   7.475   5.583 -1.3167  2.9769  1.2027
  252MOL    H2235664   4.332   7.584   5.458  0.9664 -1.8677 -1.4948
  252MOL    C2335665   4.198   7.387   5.336  0.0369  0.3681  0.7408
  252MOL    C2435666   4.107   7.341   5.227  0.7198 -0.1631  0.9414
  252MOL    O2535667   4.154   7.378   5.096 -0.7494  0.0298 -0.5356
  252MOL    H2635668   4.305   7.372   5.322  0.2680  1.1877  1.5779
  252MOL    H2735669   4.184   7.303   5.405 -0.1763 -0.3242 -0.1395
  252MOL    H2835670   4.007   7.385   5.228 -0.6322 -3.1245  1.2389
  252MOL    H2935671   4.083   7.235   5.223  2.3306 -0.5304  0.5648
  252MOL    C3035672   4.168   7.517   5.081 -1.1770 -0.1291 -0.3615
  252MOL    C3135673   4.234   7.556   4.954  1.1700 -0.5041 -0.5156
  252MOL    O3235674   4.156   7.531   4.840 -0.2901  0.3643  0.2698
  252MOL    H3335675   4.073   7.567   5.103 -0.2966  1.7539 -0.7804
  252MOL    H3435676   4.239   7.545   5.159 -0.3068 -2.2660 -0.3640
  252MOL    H3535677   4.320   7.490   4.958  1.2779 -0.2958  0.7004
  252MOL    H3635678   4.265   7.661   4.956 -0.0576 -0.1421  1.6556
  252MOL    C3735679   4.225   7.540   4.714 -0.1121 -0.5353 -0.4124
  252MOL    C3835680   4.266   7.681   4.690  0.6587 -0.0875 -0.1060
  252MOL    O3935681   4.402   7.699   4.743  0.2095 -0.4723  0.0056
  252MOL    H4035682   4.310   7.473   4.724  0.0529 -0.3300 -0.4694
  252MOL    H4135683   4.165   7.507   4.629  1.6062 -1.2600 -1.3595
  252MOL    H4235684   4.200   7.752   4.740  0.2757 -0.3538 -0.2389
  252MOL    H4335685   4.270   7.694   4.582 -1.7786  0.1374 -0.1765
  252MOL    C4435686   4.449   0.064   4.740  0.0727  0.0971  0.3538
  252MOL    C4535687   4.573   0.078   4.818  0.5887  0.4468 -0.4849
  252MOL    O4635688   4.620   0.212   4.786  0.0976  0.2836  0.4454
  252MOL    H4735689   4.468   0.085   4.634  0.0827 -0.1029  0.3156
  252MOL    H4835690   4.367   0.131   4.766  1.1102  2.0016 -1.1091
  252MOL    H4935691   4.641   0.001   4.780  0.4630  0.0319  0.1181
  252MOL    H5035692   4.543   0.070   4.923  1.3636 -0.7596 -0.3358
  252MOL    C5135693   4.753   0.239   4.819 -0.1783  0.0967 -0.2060
  252MOL    C5235694   4.763   0.391   4.825 -0.8108 -0.1090  0.0389
  252MOL    O5335695   4.733   0.445   4.946  0.3368 -0.1941  0.0013
  252MOL    H5435696   4.756   0.199   4.920 -2.4148 -0.5482 -0.3719
  252MOL    H5535697   4.831   0.193   4.758 -0.7331 -1.4394  0.2446
  252MOL    H5635698   4.715   0.439   4.739  0.8906  1.1547 -0.2365
  252MOL    H5735699   4.871   0.398   4.814 -1.0424  1.6248 -1.2350
  252MOL    C5835700   4.614   0.534   4.943 -0.5453  0.6401  0.8179
  252MOL    C5935701   4.485   0.443   4.947 -0.4912  0.7042  0.5854
  252MOL    O6035702   4.380   0.520   5.001 -0.2009  0.4260 -0.0950
  252MOL    H6135703   4.628   0.599   5.030  1.0150  0.0469  1.0243
  252MOL    H6235704   4.620   0.593   4.852 -1.2990 -1.4853 -0.6575
  252MOL    H6335705   4.507   0.360   5.014  0.5759 -2.0461 -2.9817
  252MOL    H6435706   4.460   0.398   4.850 -0.4108  0.8049  0.5185
  252MOL    C6535707   4.259   0.449   5.018 -0.5798 -0.3721 -0.4081
  252MOL    C6635708   4.274   0.341   5.135 -0.1565  0.1756  0.3512
  252MOL    O6735709   4.306   0.216   5.075 -0.2548  0.6278 -0.1182
  252MOL    H6835710   4.185   0.518   5.059  1.4443  1.9464 -0.5016
  252MOL    H6935711   4.241   0.398   4.924  2.6935 -2.0015 -0.2171
  252MOL    H7035712   4.173   0.332   5.174 -1.4680  0.1124 -2.8807
  252MOL    H7135713   4.346   0.366   5.213 -1.0145  1.3981  0.7748
  252MOL    C7235714   4.285   0.113   5.169  0.2952  0.1301 -0.4611
  252MOL    C7335715   4.416   0.062   5.235 -0.1612 -0.0968 -0.1515
  252MOL    O7435716   4.475   0.165   5.315  0.0080  0.6243  0.6460
  252MOL    H7535717   4.199   0.124   5.234 -0.5734 -1.0607 -1.3850
  252MOL    H7635718   4.253   0.026   5.112 -1.0057  0.4251 -0.1910
  252MOL    H7735719   4.485   0.032   5.155 -2.5554  1.8503 -3.0696
  252MOL    H7835720   4.402   7.741   5.290 -0.7023  0.2304  0.2532
  252MOL    C7935721   4.615   0.176   5.286 -0.5900 -0.7786 -0.0398
  252MOL    C8035722   4.685   0.280   5.376 -0.0124 -0.0358 -0.1954
  252MOL    O8135723   4.825   0.285   5.392 -1.4395  0.0313  0.4923
  252MOL    H8235724   4.678   0.087   5.287  1.4926  0.6694  2.2532
  252MOL    H8335725   4.620   0.206   5.181  1.9758 -0.3998  0.1437
  252MOL    H8435726   4.642   0.275   5.477 -0.3338  0.2281 -0.3203
  252MOL    H8535727   4.654   0.380   5.348 -0.3764  0.7200  2.6808
  252MOL    C8635728   4.885   0.319   5.264 -0.0786  0.1875 -0.2175
  252MOL    C8735729   5.030   0.350   5.315  0.0751  0.5707 -0.3771
  252MOL    O8835730   5.085   0.223   5.343 -0.2254  0.7662  0.4863
  252MOL    H8935731   4.883   0.238   5.191  0.7581  0.9477 -1.0949
  252MOL    H9035732   4.836   0.405   5.219 -1.8329  0.0103  1.2976
  252MOL    H9135733   5.029   0.423   5.395 -0.2910  0.8742 -0.6594
  252MOL    H9235734   5.094   0.391   5.237 -0.7305 -0.5589 -1.6548
  252MOL    C9335735   5.213   0.240   5.395 -0.1424  0.0558 -0.3297
  252MOL    C9435736   5.300   0.111   5.405 -0.6208 -0.1093 -1.0305
  252MOL    O9535737   5.376   0.101   5.287 -0.2633  0.8111  0.1504
  252MOL    H9635738   5.265   0.321   5.344  1.4285 -1.2665 -0.8466
  252MOL    H9735739   5.202   0.276   5.498  0.9895 -0.4332 -0.0333
  252MOL    H9835740   5.243   0.020   5.421  1.3460 -1.1874  0.0753
  252MOL    H9935741   5.375   0.134   5.481 -1.0537  0.8032 -0.8601
  252MOL   C10035742   5.462   7.764   5.266 -1.1599 -0.2139  0.3934
  252MOL   C10135743   5.486   7.750   5.119  0.1957  0.0568 -0.0323
  252MOL   O10235744   5.561   0.083   5.064 -0.3183  0.1652  0.1291
  252MOL   H10335745   5.549   0.024   5.325 -0.4072 -1.0378 -0.2687
  252MOL   H10435746   5.414   7.678   5.312 -0.2758 -0.8527  0.1425
  252MOL   H10535747   5.395   7.756   5.058 -0.0398 -2.1623  0.0535
  252MOL   H10635748   5.521   7.647   5.111  1.5830  0.4578  0.6890
  252MOL   C10735749   5.508   0.208   5.069 -0.1504  0.2419  0.7116
  252MOL   C10835750   5.582   0.288   4.962 -0.5894 -0.3277 -0.7788
  252MOL   O10935751   5.511   0.280   4.840  0.2766 -0.1887  0.2480
  252MOL   H11035752   5.402   0.215   5.044  0.1060  1.6830 -0.0901
  252MOL   H11135753   5.532   0.253   5.165  1.4714  0.9818 -0.0153
  252MOL   H11235754   5.684   0.252   4.943  0.0789  0.4369  1.2248
  252MOL   H11335755   5.587   0.392   4.993 -0.3608 -0.8321  0.9217
  252MOL   C11435756   5.581   0.346   4.741 -0.4251  1.3450  0.3605
  252MOL   C11535757   5.546   0.492   4.734 -0.6580 -0.0746  0.0059
  252MOL   O11635758   5.439   0.521   4.644 -0.5164 -0.0478 -0.2975
  252MOL   H11735759   5.690   0.342   4.738 -0.3887  2.9161 -1.8383
  252MOL   H11835760   5.558   0.289   4.651 -2.2652  0.4279  1.3831
  252MOL   H11935761   5.630   0.541   4.686 -0.8777 -0.8650 -1.1933
  252MOL   H12035762   5.534   0.536   4.833 -1.6830  1.4062 -0.7443
  252MOL   C12135763   5.398   0.658   4.642 -0.4600 -0.4194 -0.1273
  252MOL   C12235764   5.261   0.680   4.581 -0.0285 -0.2246  0.3973
  252MOL   O12335765   5.170   0.676   4.690  0.3227  0.4351 -0.0492
  252MOL   H12435766   5.400   0.705   4.740  0.6612  1.2097 -0.9038
  252MOL   H12535767   5.467   0.719   4.584  1.1371 -2.4233 -0.3862
  252MOL   H12635768   5.226   0.621   4.496  1.3620  0.5753 -0.7534
  252MOL   H12735769   5.260   0.782   4.540 -2.2683 -0.5372 -0.4330
  252MOL   C12835770   5.041   0.724   4.655 -0.6424 -0.2900 -0.0958
  252MOL   C12935771   4.953   0.698   4.780 -0.9778 -0.4946 -0.3049
  252MOL   O13035772   4.980   0.801   4.870 -0.0790  0.0316  0.4207
  252MOL   H13135773   5.034   0.826   4.616 -1.9117 -0.3009  0.0806
  252MOL   H13235774   5.009   0.667   4.567 -0.8444  0.9985 -0.8765
  252MOL   H13335775   4.972   0.599   4.820 -0.6287 -0.3759 -0.1747
  252MOL   H13435776   4.851   0.717   4.745 -1.0902  1.1058  0.8241
  252MOL   C13535777   5.081   0.782   4.969 -0.1692  1.0331  0.3302
  252MOL   C13635778   5.040   0.679   5.074 -0.3694  0.7782  0.1167
  252MOL   O13735779   5.106   0.702   5.193  0.4343 -0.4006 -0.4699
  252MOL   H13835780   5.175   0.747   4.926 -0.5142  1.7209 -0.9967
  252MOL   H13935781   5.098   0.878   5.018 -0.1886  1.1605  0.0874
  252MOL   H14035782   5.069   0.582   5.034  2.7670  2.5991 -2.3791
  252MOL   H14135783   4.932   0.688   5.070 -0.3513  0.8825 -0.1327
  252MOL   H14235784   5.081   0.786   5.229  0.2895 -0.3450 -0.7043
  253MOL     C135785   6.196   5.628   2.232  1.0163  0.7402 -0.3545
  253MOL     C235786   6.244   5.707   2.120 -0.3877 -0.9749  0.2877
  253MOL     O335787   6.356   5.656   2.055 -0.0468 -0.1032 -0.1850
  253MOL     H435788   6.181   5.525   2.200  1.2818  0.6880 -0.3163
  253MOL     H535789   6.110   5.671   2.283  2.3841  1.1499  1.6754
  253MOL     H635790   6.264   5.807   2.160 -4.3983  0.8346 -1.8941
  253MOL     H735791   6.154   5.705   2.058 -0.8396 -1.3623  0.9454
  253MOL     H835792   6.276   5.620   2.306  0.9396  2.9857 -0.0080
  253MOL     C935793   6.477   5.710   2.094 -0.6403  0.3070 -0.2251
  253MOL    C1035794   6.503   5.852   2.035 -0.3271  0.1625  0.4759
  253MOL    O1135795   6.551   5.843   1.897  0.0089 -0.4669 -0.6487
  253MOL    H1235796   6.474   5.726   2.202 -0.4209  2.7329 -0.5545
  253MOL    H1335797   6.565   5.650   2.069 -0.7522 -0.6481  1.5722
  253MOL    H1435798   6.572   5.901   2.103 -0.6564 -1.9382  2.4015
  253MOL    H1535799   6.410   5.909   2.037 -0.4692  0.0673 -2.0133
  253MOL    C1635800   6.634   5.953   1.863 -0.6617 -0.2304 -0.0302
  253MOL    C1735801   6.563   6.092   1.881  0.2486  0.3544  0.2479
  253MOL    O1835802   6.638   6.202   1.827 -0.3766  0.0685  0.0393
  253MOL    H1935803   6.720   5.947   1.929 -1.1730 -0.4294  0.6151
  253MOL    H2035804   6.678   5.955   1.763 -0.9598  0.0029 -0.1543
  253MOL    H2135805   6.543   6.112   1.986  2.5118 -0.4379  0.8507
  253MOL    H2235806   6.464   6.091   1.837  0.3776  3.4437 -0.2394
  253MOL    C2335807   6.602   6.336   1.862 -0.2044  0.0593  0.4539
  253MOL    C2435808   6.684   6.390   1.974 -0.1305 -0.4550  0.0976
  253MOL    O2535809   6.819   6.420   1.950  0.7471 -0.9790 -0.0607
  253MOL    H2635810   6.617   6.395   1.772 -3.1816 -0.4460 -0.4029
  253MOL    H2735811   6.496   6.342   1.884 -0.6078  0.2319 -1.4987
  253MOL    H2835812   6.678   6.322   2.058  0.9358 -1.1732 -0.3895
  253MOL    H2935813   6.635   6.477   2.018  1.2131 -0.2146  1.1389
  253MOL    C3035814   6.905   6.306   1.957 -0.2348  0.4260 -0.5513
  253MOL    C3135815   7.047   6.367   1.962  0.9771 -0.1552  0.2669
  253MOL    O3235816   7.136   6.258   1.979  0.1800  0.7712 -0.1658
  253MOL    H3335817   6.879   6.242   2.041 -1.6280  1.1274 -0.4436
  253MOL    H3435818   6.905   6.231   1.877  0.6140 -0.7735  0.5478
  253MOL    H3535819   7.058   6.434   2.047 -0.8269  0.6237 -0.0959
  253MOL    H3635820   7.060   6.424   1.870  0.8657 -1.2956 -0.4740
  253MOL    C3735821   7.143   6.206   2.114  0.4833  0.8660  0.9109
  253MOL    C3835822   7.244   6.093   2.122  0.0987  0.0597  0.3933
  253MOL    O3935823   7.367   6.117   2.055 -0.7390  0.6807 -0.1852
  253MOL    H4035824   7.180   6.292   2.170 -0.7917  1.4234  0.8917
  253MOL    H4135825   7.050   6.167   2.155 -0.3761  2.4392  0.4938
  253MOL    H4235826   7.212   5.996   2.084  1.1478 -0.5532  1.0682
  253MOL    H4335827   7.244   6.070   2.229  0.5869 -0.8773  0.1973
  253MOL    C4435828   7.455   6.199   2.121  0.5959  0.3412  0.2315
  253MOL    C4535829   7.584   6.123   2.176  0.3224 -0.2901 -0.3309
  253MOL    O4635830   7.663   6.062   2.078 -0.3236  0.1845 -0.1823
  253MOL    H4735831   7.472   6.281   2.051  1.0636  0.5607  0.5988
  253MOL    H4835832   7.408   6.246   2.207 -0.3305 -0.3445  0.1091
  253MOL    H4935833   7.555   6.051   2.253  2.1577 -0.1353  0.5466
  253MOL    H5035834   7.659   6.189   2.219 -0.7365  1.7806 -1.6075
  253MOL    C5135835   7.760   5.968   2.121 -0.7650 -0.0860  0.0059
  253MOL    C5235836   0.060   5.910   1.996  0.5592  0.2200  0.3099
  253MOL    O5335837   7.751   5.801   1.934 -0.2548 -1.1556 -0.2996
  253MOL    H5435838   0.067   6.021   2.176  0.7899 -0.5785 -1.6740
  253MOL    H5535839   7.710   5.890   2.177 -2.3644  0.3285 -0.8032
  253MOL    H5635840   0.145   5.860   2.042 -0.4011  0.0747  1.9863
  253MOL    H5735841   0.110   5.970   1.920  1.8698 -1.3592 -0.0846
  253MOL    C5835842   7.652   5.861   1.845  0.3996 -0.1169 -0.8548
  253MOL    C5935843   7.587   5.749   1.766 -0.2029 -0.3718  0.1252
  253MOL    O6035844   7.671   5.698   1.657  0.3870  0.8008  0.4782
  253MOL    H6135845   7.576   5.908   1.908 -1.0468 -1.2094 -1.7750
  253MOL    H6235846   7.698   5.938   1.783  1.7222 -1.1723 -1.2115
  253MOL    H6335847   7.491   5.779   1.724  0.3651 -0.3368 -1.1774
  253MOL    H6435848   7.563   5.667   1.834  2.2471 -1.7646 -0.6083
  253MOL    C6535849   7.629   5.569   1.612 -0.4593 -0.1920 -0.0773
  253MOL    C6635850   7.512   5.585   1.516 -0.2293 -0.1575 -0.4797
  253MOL    O6735851   7.392   5.602   1.590 -0.1125 -0.5106  0.2969
  253MOL    H6835852   7.712   5.526   1.557 -1.0505 -0.2313 -0.9693
  253MOL    H6935853   7.609   5.484   1.677 -2.8326 -0.8791 -1.6190
  253MOL    H7035854   7.507   5.497   1.452 -0.8327 -0.7569  0.3704
  253MOL    H7135855   7.536   5.668   1.450  0.1350  0.2783  0.1938
  253MOL    C7235856   7.279   5.615   1.507  0.2261  0.1101 -0.1797
  253MOL    C7335857   7.262   5.754   1.439  0.1314  0.2685  0.0811
  253MOL    O7435858   7.332   5.751   1.316 -0.4991  0.2111 -0.2396
  253MOL    H7535859   7.267   5.539   1.429 -0.3622 -0.8148  0.7953
  253MOL    H7635860   7.189   5.594   1.564 -0.3628  0.8998 -0.8163
  253MOL    H7735861   7.289   5.836   1.504  1.9963  0.1552 -0.5123
  253MOL    H7835862   7.161   5.764   1.401  0.5105  0.8265 -0.7964
  253MOL    C7935863   7.310   5.870   1.233  0.0877  1.0595  0.0436
  253MOL    C8035864   7.388   5.981   1.305  0.2984  0.3079  0.9649
  253MOL    O8135865   7.523   5.942   1.305  0.2976  0.6821 -0.2722
  253MOL    H8235866   7.345   5.844   1.133 -0.4264 -1.5581  0.5039
  253MOL    H8335867   7.205   5.897   1.222  0.2843  1.7108 -0.2715
  253MOL    H8435868   7.355   6.005   1.406 -1.4884 -2.8583  1.1864
  253MOL    H8535869   7.374   6.081   1.265 -1.7107 -0.5610 -0.5648
  253MOL    C8635870   7.589   5.995   1.423 -0.1150 -0.2679  0.5017
  253MOL    C8735871   7.742   6.005   1.401  0.0483 -0.1512  0.4315
  253MOL    O8835872   0.001   6.059   1.271  0.4077  0.0587 -0.4848
  253MOL    H8935873   7.546   6.095   1.425  0.1426 -0.1390 -0.1984
  253MOL    H9035874   7.557   5.944   1.514 -0.2917 -0.5379  0.2849
  253MOL    H9135875   0.026   5.912   1.417 -2.6892 -1.4607  2.7758
  253MOL    H9235876   0.007   6.083   1.468 -0.8790  2.3875 -1.9502
  253MOL    C9335877   0.140   6.026   1.235  0.1248 -0.3015 -0.0605
  253MOL    C9435878   0.163   6.049   1.086  0.4088  0.7775 -0.3638
  253MOL    O9535879   0.171   6.188   1.043  0.3533  0.4400 -0.1979
  253MOL    H9635880   0.203   6.087   1.299 -0.6042  0.3480  0.0424
  253MOL    H9735881   0.171   5.924   1.261 -1.6494  0.1572  4.2680
  253MOL    H9835882   0.073   6.006   1.042  0.4255 -2.2805  2.3925
  253MOL    H9935883   0.245   5.990   1.045 -0.2009  1.6750 -2.9672
  253MOL   C10035884   0.149   6.217   0.903 -0.7338 -0.4707  0.4232
  253MOL   C10135885   0.217   6.117   0.802 -0.0830 -0.1126 -0.4195
  253MOL   O10235886   0.157   5.985   0.823 -0.5511 -0.5790 -0.6749
  253MOL   H10335887   0.045   6.237   0.875 -0.3283  0.1348 -0.6990
  253MOL   H10435888   0.194   6.315   0.889 -2.4242  0.4162  1.0308
  253MOL   H10535889   0.326   6.126   0.805 -0.1769  0.6920  2.3079
  253MOL   H10635890   0.200   6.151   0.700 -0.6313 -1.4488 -0.7832
  253MOL   C10735891   0.238   5.892   0.753  0.2826 -0.5373  0.7976
  253MOL   C10835892   0.229   5.906   0.601 -0.3128 -0.2811  0.4992
  253MOL   O10935893   0.294   5.791   0.543 -0.3390 -0.2887  0.1557
  253MOL   H11035894   0.343   5.889   0.781  1.2879 -3.1923 -2.7528
  253MOL   H11135895   0.205   5.799   0.800 -1.8937  0.3178  0.9879
  253MOL   H11235896   0.261   6.004   0.565 -1.4386  0.6832  2.0806
  253MOL   H11335897   0.124   5.907   0.570  0.4679 -2.2397 -2.4155
  253MOL   C11435898   0.261   5.774   0.406  0.0596 -0.3226  0.2085
  253MOL   C11535899   0.346   5.665   0.342  0.3709  0.1457  0.0637
  253MOL   O11635900   0.477   5.708   0.339 -0.8578 -0.1975  0.0946
  253MOL   H11735901   0.155   5.748   0.397  0.0625  0.0004 -0.7892
  253MOL   H11835902   0.266   5.860   0.340 -0.5471  0.4589  1.1643
  253MOL   H11935903   0.316   5.660   0.238 -0.6807  4.2651  0.0714
  253MOL   H12035904   0.329   5.568   0.388 -1.4116  0.4332  0.0639
  253MOL   C12135905   0.560   5.601   0.300 -0.2142 -0.1097 -0.2646
  253MOL   C12235906   0.705   5.642   0.251 -0.2917 -0.2371  0.2249
  253MOL   O12335907   0.783   5.689   0.358  0.6599  0.2642 -0.4893
  253MOL   H12435908   0.578   5.533   0.384 -0.0200 -0.7518 -0.8188
  253MOL   H12535909   0.512   5.551   0.216  2.1216  0.3795 -1.9383
  253MOL   H12635910   0.692   5.722   0.178 -2.7061  0.3682  1.2696
  253MOL   H12735911   0.749   5.553   0.207 -0.9367  0.5097 -1.9708
  253MOL   C12835912   0.916   5.724   0.323 -0.4683  0.2497 -0.2888
  253MOL   C12935913   0.975   5.810   0.432  0.0299 -0.2093 -0.3870
  253MOL   O13035914   1.005   5.739   0.547  0.4735 -0.2244 -0.4850
  253MOL   H13135915   0.981   5.639   0.305 -0.1705  0.2850  0.5665
  253MOL   H13235916   0.916   5.788   0.235  3.0588  0.1453 -0.4121
  253MOL   H13335917   0.907   5.891   0.458 -0.1174 -0.9264  1.5710
  253MOL   H13435918   1.071   5.850   0.398  0.3191  0.0113  0.6601
  253MOL   C13535919   1.057   5.824   0.658  0.2753  0.8031  0.1478
  253MOL   C13635920   1.149   5.737   0.749  0.6159  0.5719  1.2586
  253MOL   O13735921   1.271   5.711   0.682  0.6303  0.4145  0.1598
  253MOL   H13835922   1.120   5.907   0.624  0.9584 -0.2920 -1.3438
  253MOL   H13935923   0.969   5.866   0.705  1.2654  1.0428  1.8104
  253MOL   H14035924   1.103   5.645   0.783  0.6438  0.1470  0.1662
  253MOL   H14135925   1.171   5.795   0.839 -0.2724 -0.1002  1.9096
  253MOL   H14235926   1.327   5.782   0.709 -0.8370  2.2527 -1.5520
  254MOL     C135927   3.230   4.167   5.744 -0.2703 -0.3640  0.3236
  254MOL     C235928   3.266   4.064   5.857  0.1653  0.7086 -0.0813
  254MOL     O335929   3.159   3.994   5.906  0.3202  0.2392  0.4041
  254MOL     H435930   3.154   4.244   5.759  0.0564  0.0296 -0.0334
  254MOL     H535931   3.208   4.100   5.661 -1.0443  0.4712 -0.1498
  254MOL     H635932   3.314   4.111   5.943 -1.3100 -0.6898  1.5569
  254MOL     H735933   3.341   3.993   5.822 -2.1561 -0.8677 -2.0099
  254MOL     H835934   3.317   4.227   5.718 -0.2452 -0.4204  0.2764
  254MOL     C935935   3.169   3.935   6.041  0.6448  0.7935 -0.6940
  254MOL    C1035936   3.050   3.842   6.073 -0.2822 -0.5110 -0.1682
  254MOL    O1135937   2.955   3.906   6.157 -0.3334 -0.5080  0.3843
  254MOL    H1235938   3.261   3.877   6.041  1.2181  1.6918 -0.9892
  254MOL    H1335939   3.199   4.013   6.111 -0.5851 -0.3293  1.1444
  254MOL    H1435940   3.082   3.747   6.116  1.6998 -0.2146 -0.9359
  254MOL    H1535941   2.994   3.820   5.982  0.2693 -0.5101 -0.5100
  254MOL    C1635942   2.841   3.823   6.183 -0.3583  0.4455  0.3511
  254MOL    C1735943   2.874   3.719   6.286 -0.5018 -0.5487  0.4913
  254MOL    O1835944   2.905   3.588   6.225  0.0220 -0.1654 -0.7606
  254MOL    H1935945   2.761   3.880   6.230  0.5730 -0.0391  2.5822
  254MOL    H2035946   2.793   3.784   6.093  1.9339 -0.7736 -0.4029
  254MOL    H2135947   2.796   3.727   6.361  1.0690  1.0690  2.0142
  254MOL    H2235948   2.972   3.739   6.331 -0.7808  0.4135  0.6743
  254MOL    C2335949   2.901   3.493   6.334  0.2552 -0.1523 -0.6285
  254MOL    C2435950   2.911   3.359   6.277  0.0623  0.3092 -0.3531
  254MOL    O2535951   2.959   3.265   6.375  0.3227  0.9760  0.0396
  254MOL    H2635952   2.994   3.508   6.388  0.4717 -2.4588 -0.3086
  254MOL    H2735953   2.816   3.501   6.402  0.5511  2.6515 -0.5431
  254MOL    H2835954   2.976   3.365   6.189  0.9371 -2.4992  0.0405
  254MOL    H2935955   2.816   3.333   6.229  0.8026 -0.6357 -1.3342
  254MOL    C3035956   2.984   3.130   6.347 -0.1052  0.2254 -0.2952
  254MOL    C3135957   2.997   3.060   6.478 -0.1655 -0.0373  0.2195
  254MOL    O3235958   2.871   3.036   6.528 -0.0019 -0.3472 -0.1829
  254MOL    H3335959   2.904   3.081   6.291 -0.6502  1.2771 -0.4362
  254MOL    H3435960   3.080   3.131   6.296  0.1975 -2.6286  0.1117
  254MOL    H3535961   3.037   3.114   6.564  2.1373 -0.7578 -0.3794
  254MOL    H3635962   3.040   2.966   6.444 -2.5516 -0.6314 -1.3101
  254MOL    C3735963   2.864   2.940   6.635  0.5191 -0.2431 -0.0181
  254MOL    C3835964   2.718   2.910   6.659 -0.5451 -0.1728 -0.4074
  254MOL    O3935965   2.659   2.839   6.554  0.9673  0.3496  0.4495
  254MOL    H4035966   2.933   2.857   6.622  1.7420  0.5802  1.0576
  254MOL    H4135967   2.897   2.987   6.728 -2.0969 -0.9387  1.3050
  254MOL    H4235968   2.658   3.000   6.676 -0.2418 -0.5937  3.1198
  254MOL    H4335969   2.715   2.853   6.751 -0.4684 -0.5000 -0.6095
  254MOL    C4435970   2.654   2.704   6.566  0.4922  0.6474  0.4320
  254MOL    C4535971   2.635   2.644   6.430 -0.2362 -0.3662  0.2527
  254MOL    O4635972   2.506   2.677   6.388 -0.3206  0.4744  0.1242
  254MOL    H4735973   2.749   2.661   6.599  0.6885 -0.2820 -1.2661
  254MOL    H4835974   2.561   2.685   6.618 -1.9974  0.3822 -3.8328
  254MOL    H4935975   2.643   2.537   6.450  1.5308  0.2393  3.1304
  254MOL    H5035976   2.713   2.673   6.360  3.1993  0.7061  4.2681
  254MOL    C5135977   2.468   2.603   6.270  0.4794 -0.3080  0.1945
  254MOL    C5235978   2.323   2.637   6.240  0.6040 -0.9794 -0.1155
  254MOL    O5335979   2.310   2.695   6.111  0.2709  0.3681  0.2993
  254MOL    H5435980   2.536   2.640   6.192 -0.8920  1.2476 -0.2982
  254MOL    H5535981   2.480   2.495   6.267 -0.1129 -0.4343  1.8080
  254MOL    H5635982   2.284   2.698   6.321  0.6320  1.9361 -2.2038
  254MOL    H5735983   2.265   2.546   6.247 -0.0610 -0.4328  1.6425
  254MOL    C5835984   2.179   2.745   6.070  0.0730 -0.4588  0.2030
  254MOL    C5935985   2.166   2.699   5.924 -0.0338 -0.1512 -0.4522
  254MOL    O6035986   2.137   2.563   5.916 -0.0164  0.5158 -1.1122
  254MOL    H6135987   2.100   2.706   6.135  0.3475 -1.2042  0.1009
  254MOL    H6235988   2.181   2.853   6.083 -2.1938 -0.2364 -1.0613
  254MOL    H6335989   2.255   2.733   5.872  1.0013 -1.8912  0.1493
  254MOL    H6435990   2.078   2.757   5.897 -0.2176  1.0710  2.5311
  254MOL    C6535991   2.106   2.514   5.784  0.3510  0.1723  0.2030
  254MOL    C6635992   2.098   2.349   5.797 -0.5958  0.6987 -0.1529
  254MOL    O6735993   1.971   2.310   5.839  0.1188  0.1422 -0.2473
  254MOL    H6835994   2.006   2.552   5.764 -0.4975 -2.5429 -0.7899
  254MOL    H6935995   2.167   2.542   5.698  0.9342  0.5132  0.7259
  254MOL    H7035996   2.177   2.309   5.861 -0.8096 -0.9282 -0.9041
  254MOL    H7135997   2.123   2.308   5.699 -0.2736  1.6326 -0.4688
  254MOL    C7235998   1.974   2.282   5.983 -0.6441  0.3319 -0.3079
  254MOL    C7335999   1.835   2.237   6.026 -0.0865 -0.0767 -0.4993
  254MOL    O7436000   1.813   2.096   5.999  0.1111  0.1248 -0.3546
  254MOL    H7536001   2.053   2.226   6.035  0.3884  2.2272  0.2185
  254MOL    H7636002   1.998   2.372   6.041 -0.7244 -1.0317  1.9272
  254MOL    H7736003   1.766   2.307   5.978 -0.4536 -0.4076 -0.4554
  254MOL    H7836004   1.844   2.254   6.133 -0.5267  0.1253 -0.4929
  254MOL    C7936005   1.679   2.059   5.975 -0.1973 -0.2070  0.1187
  254MOL    C8036006   1.596   2.044   6.104  0.1599 -0.1700 -0.4263
  254MOL    O8136007   1.566   2.177   6.157  0.3656  0.2975 -0.6065
  254MOL    H8236008   1.632   2.131   5.908  2.1150  0.0791 -1.2324
  254MOL    H8336009   1.675   1.961   5.929 -1.9417  1.3047 -3.1379
  254MOL    H8436010   1.651   1.985   6.177  1.7655  1.6455 -0.1246
  254MOL    H8536011   1.506   1.997   6.065 -0.1551 -0.5142  0.7045
  254MOL    C8636012   1.501   2.167   6.279 -0.0318 -0.7515 -0.4272
  254MOL    C8736013   1.477   2.309   6.334 -0.0012 -0.1310  0.1931
  254MOL    O8836014   1.366   2.375   6.274  0.3738 -0.1171  0.2809
  254MOL    H8936015   1.407   2.114   6.265 -1.0753  1.3116 -1.4421
  254MOL    H9036016   1.565   2.110   6.346  1.6926  1.9752  0.3097
  254MOL    H9136017   1.569   2.369   6.327 -0.9119  1.4975  1.6154
  254MOL    H9236018   1.455   2.311   6.441  1.2875 -0.1164  0.4746
  254MOL    C9336019   1.343   2.511   6.308 -0.4774 -0.3062  0.0572
  254MOL    C9436020   1.197   2.548   6.273 -0.0227 -0.8979  0.3839
  254MOL    O9536021   1.179   2.557   6.130  0.4945  0.0760  0.4273
  254MOL    H9636022   1.353   2.515   6.416  0.0221  2.4244 -0.0471
  254MOL    H9736023   1.425   2.572   6.271 -1.1357 -0.1005 -1.0941
  254MOL    H9836024   1.176   2.638   6.332  0.2864 -0.6235  0.0721
  254MOL    H9936025   1.137   2.462   6.303  1.4652 -2.3638 -0.7700
  254MOL   C10036026   1.053   2.610   6.100 -0.0129 -0.0625  0.1232
  254MOL   C10136027   1.044   2.625   5.944 -0.5458  0.3742  0.0451
  254MOL   O10236028   1.017   2.509   5.868  0.6411 -0.4084  0.1227
  254MOL   H10336029   0.972   2.554   6.148  1.9083 -1.1957  2.1489
  254MOL   H10436030   1.053   2.715   6.131 -0.7358  0.1404 -0.5610
  254MOL   H10536031   1.136   2.670   5.906 -1.1241  2.4610  1.0392
  254MOL   H10636032   0.962   2.695   5.930 -0.5903  0.0618 -1.2827
  254MOL   C10736033   1.088   2.395   5.909  0.4412 -0.4798 -0.2246
  254MOL   C10836034   1.057   2.282   5.811  0.1644  0.1523 -0.7629
  254MOL   O10936035   1.121   2.156   5.850  0.1615 -0.3582 -0.2174
  254MOL   H11036036   1.193   2.425   5.907  0.5452 -0.8781 -0.8629
  254MOL   H11136037   1.071   2.352   6.008 -1.3871 -1.9309 -1.1454
  254MOL   H11236038   1.082   2.300   5.707  0.5768  2.1867 -0.3314
  254MOL   H11336039   0.949   2.274   5.809  0.1456 -0.2497  0.8839
  254MOL   C11436040   1.259   2.151   5.815  0.1275  0.0365  0.1153
  254MOL   C11536041   1.320   2.013   5.835 -0.4147 -0.7488  0.8857
  254MOL   O11636042   1.248   1.910   5.767  0.2497  0.0004  0.0110
  254MOL   H11736043   1.265   2.185   5.711 -0.3105  3.2821  1.0801
  254MOL   H11836044   1.313   2.237   5.857  2.5663 -0.7540 -1.2698
  254MOL   H11936045   1.335   1.990   5.941 -0.7719  1.3771  1.4128
  254MOL   H12036046   1.421   2.026   5.795 -0.4174  2.6436  1.8285
  254MOL   C12136047   1.301   1.784   5.802  0.6206 -0.1237  0.0072
  254MOL   C12236048   1.202   1.679   5.757  0.1796 -0.1931 -0.1705
  254MOL   O12336049   1.091   1.668   5.844 -0.0883 -0.4023  0.8209
  254MOL   H12436050   1.395   1.777   5.747  0.1933 -1.2497 -0.6174
  254MOL   H12536051   1.312   1.779   5.910  0.2129  1.5567  0.1408
  254MOL   H12636052   1.252   1.583   5.770 -0.5180 -0.2539  2.3178
  254MOL   H12736053   1.172   1.683   5.653 -2.0055 -1.1770  0.3955
  254MOL   C12836054   0.970   1.637   5.774 -0.6449  0.3525  0.4691
  254MOL   C12936055   0.865   1.597   5.875  0.3791  0.2610  0.0003
  254MOL   O13036056   0.740   1.634   5.820 -0.1544  0.1881  0.4699
  254MOL   H13136057   0.932   1.720   5.715  3.2100 -0.0765 -2.8181
  254MOL   H13236058   0.978   1.550   5.709 -1.0026  0.3595  0.4125
  254MOL   H13336059   0.882   1.647   5.970  0.7099  0.9316 -0.4097
  254MOL   H13436060   0.874   1.492   5.904 -1.6314  0.3090  0.8823
  254MOL   C13536061   0.626   1.592   5.894 -0.0573  0.1264 -0.3078
  254MOL   C13636062   0.499   1.663   5.847 -0.5728  0.7289 -0.2701
  254MOL   O13736063   0.397   1.630   5.936  0.1812 -0.4347 -0.0291
  254MOL   H13836064   0.620   1.483   5.894 -0.1740  0.1123 -2.9003
  254MOL   H13936065   0.640   1.615   6.000  0.6788 -0.9836 -0.1457
  254MOL   H14036066   0.470   1.627   5.748 -0.2456 -0.6591  0.1348
  254MOL   H14136067   0.511   1.771   5.834 -2.7420  0.8289 -1.7158
  254MOL   H14236068   0.352   1.713   5.945  4.2095  1.9926 -0.7074
  255MOL     C136069   1.656   3.935   1.984 -0.2507 -0.1568 -0.1599
  255MOL     C236070   1.715   4.062   2.048 -0.2622 -0.2123  0.3775
  255MOL     O336071   1.630   4.171   2.027  0.0221 -0.1228  0.2329
  255MOL     H436072   1.572   3.898   2.042 -0.1074  0.1223  0.2218
  255MOL     H536073   1.730   3.855   1.981 -0.2217 -0.1153 -0.6744
  255MOL     H636074   1.813   4.084   2.005  0.5767 -1.4920  1.5940
  255MOL     H736075   1.735   4.049   2.154  0.1786 -1.0579  0.1913
  255MOL     H836076   1.620   3.964   1.885  2.1922 -0.1606 -1.0968
  255MOL     C936077   1.513   4.175   2.110 -0.2955  0.4559 -0.2492
  255MOL    C1036078   1.429   4.299   2.073  0.8255 -0.4173  0.4385
  255MOL    O1136079   1.501   4.423   2.076 -0.4107  0.3822 -0.3829
  255MOL    H1236080   1.451   4.086   2.112 -0.9417  0.9210  3.2936
  255MOL    H1336081   1.540   4.181   2.215 -1.5917 -0.7042  0.1588
  255MOL    H1436082   1.341   4.309   2.137  0.7211  3.3444 -0.1488
  255MOL    H1536083   1.383   4.286   1.975  1.3611  1.8055 -0.1472
  255MOL    C1636084   1.473   4.513   1.969 -0.5964 -0.5106 -0.5468
  255MOL    C1736085   1.510   4.658   1.991  0.1177  0.4624  0.1909
  255MOL    O1836086   1.650   4.659   2.024 -0.3919  0.1693 -0.1903
  255MOL    H1936087   1.505   4.478   1.870  1.0241 -1.3230  0.2478
  255MOL    H2036088   1.364   4.513   1.959 -0.6708  0.4622  0.2382
  255MOL    H2136089   1.454   4.706   2.071  0.6936  0.1115  0.8140
  255MOL    H2236090   1.511   4.710   1.895 -0.8503  0.5394  0.2163
  255MOL    C2336091   1.696   4.774   2.087  0.1185  0.3029 -0.2603
  255MOL    C2436092   1.853   4.765   2.096 -0.6804  0.0686 -0.7071
  255MOL    O2536093   1.921   4.816   1.978  0.1724 -0.1343  0.1014
  255MOL    H2636094   1.656   4.862   2.036 -3.2492 -1.0581 -0.1410
  255MOL    H2736095   1.661   4.762   2.190  0.4163 -1.1393 -0.3130
  255MOL    H2836096   1.884   4.662   2.115 -1.9728 -0.0076  1.1427
  255MOL    H2936097   1.890   4.820   2.183  1.5705  0.2028 -1.7180
  255MOL    C3036098   2.057   4.803   1.994 -0.2523 -0.1042 -0.2875
  255MOL    C3136099   2.143   4.851   1.875 -0.5682 -0.1769  0.5795
  255MOL    O3236100   2.133   4.765   1.758 -0.0391 -0.8744 -0.3466
  255MOL    H3336101   2.083   4.870   2.076  1.0619 -1.3694  0.3535
  255MOL    H3436102   2.087   4.706   2.034  1.7735  0.6700  0.1310
  255MOL    H3536103   2.245   4.833   1.910  0.5087 -0.8446 -2.7263
  255MOL    H3636104   2.139   4.959   1.866  2.0563 -0.2709 -2.6470
  255MOL    C3736105   2.239   4.794   1.674  0.5973 -0.3115 -0.0314
  255MOL    C3836106   2.360   4.699   1.679 -0.2378  0.6042 -0.2271
  255MOL    O3936107   2.327   4.567   1.642  0.1556  0.0492  0.2150
  255MOL    H4036108   2.199   4.778   1.574  2.1771  2.7356 -1.2391
  255MOL    H4136109   2.273   4.898   1.679  1.5996 -0.6761  0.7542
  255MOL    H4236110   2.396   4.701   1.782 -0.0528 -0.3933 -0.2638
  255MOL    H4336111   2.434   4.747   1.616 -1.1798  1.7113 -0.4965
  255MOL    C4436112   2.359   4.534   1.513  0.4896  0.6678  0.3265
  255MOL    C4536113   2.302   4.393   1.482  0.2281  0.2054 -0.1644
  255MOL    O4636114   2.362   4.301   1.575 -0.3663  0.5560 -0.0344
  255MOL    H4736115   2.301   4.598   1.446  1.1404  0.3989 -0.4882
  255MOL    H4836116   2.467   4.539   1.503  0.2667  1.3395 -1.8730
  255MOL    H4936117   2.327   4.366   1.380 -1.4182  0.6102 -0.6966
  255MOL    H5036118   2.195   4.414   1.490  0.2179  0.5881 -1.2400
  255MOL    C5136119   2.299   4.170   1.569  0.7488 -1.0187  0.0430
  255MOL    C5236120   2.338   4.102   1.709  0.3689 -0.3594  0.0502
  255MOL    O5336121   2.267   4.184   1.799 -0.2958  0.0266 -0.2728
  255MOL    H5436122   2.191   4.163   1.580  0.5508 -0.7569 -1.6126
  255MOL    H5536123   2.320   4.114   1.478  0.7449 -0.4823 -0.2914
  255MOL    H5636124   2.447   4.094   1.716  0.3850 -0.4522 -0.3141
  255MOL    H5736125   2.287   4.006   1.708  0.5099 -0.5263  3.1292
  255MOL    C5836126   2.282   4.148   1.937  0.4574 -0.0418 -1.1794
  255MOL    C5936127   2.244   4.269   2.025  0.1657 -1.0242  0.0805
  255MOL    O6036128   2.120   4.232   2.081  0.0394 -0.5519  0.4681
  255MOL    H6136129   2.226   4.057   1.959 -0.1255  1.0855  2.3937
  255MOL    H6236130   2.387   4.121   1.947  0.7621  0.7938 -2.0503
  255MOL    H6336131   2.243   4.359   1.963  0.1302 -0.4114  0.9690
  255MOL    H6436132   2.326   4.284   2.095  1.4155 -3.1067 -0.8909
  255MOL    C6536133   2.080   4.335   2.169  0.6659  0.4912  0.1755
  255MOL    C6636134   1.946   4.308   2.237  0.0297 -0.2468 -0.3493
  255MOL    O6736135   1.947   4.214   2.344 -0.0255  0.1146 -0.0622
  255MOL    H6836136   2.147   4.347   2.254  1.1189  0.2529 -0.1499
  255MOL    H6936137   2.073   4.428   2.114 -1.7112  0.1675 -0.1417
  255MOL    H7036138   1.871   4.282   2.162  0.1922 -1.6216 -0.0511
  255MOL    H7136139   1.906   4.398   2.283  0.5026 -0.6777  0.9107
  255MOL    C7236140   1.819   4.184   2.388  0.2157 -0.0103  0.7334
  255MOL    C7336141   1.818   4.062   2.481 -0.0730  0.1288 -0.8968
  255MOL    O7436142   1.697   4.054   2.550  0.6601  0.0606  0.2354
  255MOL    H7536143   1.778   4.275   2.431 -0.7463  0.2558 -0.7281
  255MOL    H7636144   1.744   4.171   2.310 -0.9949  0.9178  1.7155
  255MOL    H7736145   1.891   4.067   2.562 -0.6194 -0.5689 -0.3540
  255MOL    H7836146   1.850   3.972   2.428  1.4575 -0.5897  1.1465
  255MOL    C7936147   1.700   3.973   2.668  0.2238  0.4560  0.7893
  255MOL    C8036148   1.553   3.944   2.685  0.5119 -0.8020  0.8564
  255MOL    O8136149   1.481   3.847   2.599  0.1080  0.2872 -0.3576
  255MOL    H8236150   1.747   3.878   2.642 -1.5341  0.3430 -2.2334
  255MOL    H8336151   1.746   4.029   2.749  0.4087 -0.8444  1.6020
  255MOL    H8436152   1.482   4.027   2.678  0.6244 -0.9123 -1.7819
  255MOL    H8536153   1.549   3.908   2.788  0.6563 -2.3214  0.3490
  255MOL    C8636154   1.432   3.905   2.481 -0.3235  0.5958  0.2861
  255MOL    C8736155   1.348   3.813   2.395 -0.5117 -0.5639  0.3346
  255MOL    O8836156   1.429   3.705   2.354  0.1272 -0.8016  0.6568
  255MOL    H8936157   1.368   3.991   2.501 -1.3455 -0.1346  0.2117
  255MOL    H9036158   1.512   3.937   2.414 -0.1227 -1.7861 -0.6743
  255MOL    H9136159   1.302   3.866   2.312  0.8733  0.8165  0.4306
  255MOL    H9236160   1.272   3.772   2.462 -1.9705  0.2908 -0.7627
  255MOL    C9336161   1.493   3.726   2.230  0.6534  0.0097 -0.1453
  255MOL    C9436162   1.552   3.597   2.164 -0.3862  0.2533 -0.3356
  255MOL    O9536163   1.449   3.515   2.102 -0.2226 -0.2365  0.0933
  255MOL    H9636164   1.419   3.772   2.164  0.1550  0.2617  0.5852
  255MOL    H9736165   1.572   3.800   2.240  2.4774 -1.9728  0.2876
  255MOL    H9836166   1.626   3.552   2.230 -1.0854 -0.3473  0.0512
  255MOL    H9936167   1.614   3.625   2.079 -0.5114  2.4857  0.2617
  255MOL   C10036168   1.349   3.469   2.192 -0.3625 -0.0219  0.7609
  255MOL   C10136169   1.278   3.360   2.119  0.3180  0.3014 -0.2670
  255MOL   O10236170   1.235   3.399   1.995  0.0319 -0.1974  0.2634
  255MOL   H10336171   1.396   3.441   2.286 -0.3936 -1.3366  0.4009
  255MOL   H10436172   1.282   3.550   2.220 -1.1863 -0.8265  1.1529
  255MOL   H10536173   1.191   3.316   2.168 -0.5878 -0.2951 -2.3369
  255MOL   H10636174   1.357   3.286   2.114  0.0995  0.0643 -0.2169
  255MOL   C10736175   1.130   3.317   1.942  0.5147 -0.7156  0.3041
  255MOL   C10836176   1.082   3.400   1.826  0.4212 -0.1763  0.0814
  255MOL   O10936177   1.015   3.513   1.880  0.1978  0.3114  0.3369
  255MOL   H11036178   1.159   3.218   1.908 -0.7825 -1.0791  0.2334
  255MOL   H11136179   1.053   3.288   2.014  1.9169 -2.3552  1.1774
  255MOL   H11236180   1.016   3.353   1.754  1.9725  0.1337 -1.5850
  255MOL   H11336181   1.166   3.428   1.762 -1.2130  1.8267 -1.2789
  255MOL   C11436182   1.035   3.641   1.817 -0.5603  0.7134 -0.3661
  255MOL   C11536183   1.181   3.689   1.825  0.2489  0.5964 -0.0846
  255MOL   O11636184   1.174   3.825   1.862  0.3759  0.2876 -0.1630
  255MOL   H11736185   0.994   3.641   1.716 -1.6683 -0.9720  0.0384
  255MOL   H11836186   0.979   3.710   1.880  0.5465  2.1380 -0.9195
  255MOL   H11936187   1.250   3.670   1.743  0.9019  2.6661 -0.0495
  255MOL   H12036188   1.230   3.642   1.910 -0.5452  0.4975  0.3166
  255MOL   C12136189   1.301   3.881   1.871  0.4801 -0.2918  0.1574
  255MOL   C12236190   1.356   3.929   1.728 -0.4846 -0.5412 -0.3432
  255MOL   O12336191   1.438   3.831   1.671 -0.5661  0.0558 -0.5717
  255MOL   H12436192   1.279   3.969   1.932 -2.3238 -0.6117 -0.3072
  255MOL   H12536193   1.369   3.828   1.938 -3.7943 -3.9055  1.9223
  255MOL   H12636194   1.420   4.016   1.745  0.8381 -1.5849  0.0867
  255MOL   H12736195   1.275   3.967   1.666  0.5041  0.8826 -0.7882
  255MOL   C12836196   1.451   3.840   1.529  0.7302  0.7988  0.2212
  255MOL   C12936197   1.347   3.750   1.455  0.9017 -0.6506  0.2545
  255MOL   O13036198   1.411   3.623   1.443 -0.4919  0.2480 -0.1315
  255MOL   H13136199   1.421   3.942   1.507 -1.2462  0.4023  0.9706
  255MOL   H13236200   1.553   3.812   1.502  0.7039 -0.6207  1.5011
  255MOL   H13336201   1.330   3.794   1.358 -1.7908  0.0118  0.9976
  255MOL   H13436202   1.248   3.732   1.496  0.7169  0.7939  0.4630
  255MOL   C13536203   1.418   3.581   1.303  0.1102  0.1297 -0.0025
  255MOL   C13636204   1.465   3.436   1.290 -0.5080  0.2784 -0.1840
  255MOL   O13736205   1.347   3.354   1.295  0.0646 -0.0834 -0.1761
  255MOL   H13836206   1.323   3.599   1.255  0.4060  2.1904  0.1331
  255MOL   H13936207   1.499   3.638   1.258  0.4878 -0.6217 -0.2814
  255MOL   H14036208   1.528   3.403   1.372 -1.7537  0.0177  0.6837
  255MOL   H14136209   1.508   3.425   1.190  0.8282  1.8889  0.1880
  255MOL   H14236210   1.300   3.379   1.373  1.1428 -1.9345  1.0957
  256MOL     C136211   5.465   1.054   5.144 -0.0088  0.2008  0.0991
  256MOL     C236212   5.434   0.904   5.098 -0.2476 -0.7031 -0.5730
  256MOL     O336213   5.518   0.809   5.163 -0.0328 -0.4186 -0.3571
  256MOL     H436214   5.461   1.067   5.252 -0.3961 -0.2589  0.1420
  256MOL     H536215   5.380   1.116   5.114 -1.6807 -2.0600 -0.0260
  256MOL     H636216   5.464   0.893   4.993 -0.5274 -0.9898 -0.6219
  256MOL     H736217   5.327   0.884   5.106 -0.7945  2.4476  0.5841
  256MOL     H836218   5.558   1.091   5.101 -0.1405  1.7790  1.1311
  256MOL     C936219   5.465   0.671   5.152  0.4771 -0.7371 -0.0248
  256MOL    C1036220   5.535   0.580   5.249  0.5127  0.0510 -0.4779
  256MOL    O1136221   5.475   0.576   5.387  0.0583  0.0346 -0.2869
  256MOL    H1236222   5.363   0.683   5.188 -0.8306 -3.1431 -2.7708
  256MOL    H1336223   5.465   0.637   5.048  2.2708 -1.6887  0.2819
  256MOL    H1436224   5.637   0.611   5.268  0.8589 -1.1726 -0.3280
  256MOL    H1536225   5.541   0.482   5.201  0.3577 -0.1128 -0.1630
  256MOL    C1636226   5.480   0.703   5.461 -0.3268  0.0438 -0.4733
  256MOL    C1736227   5.398   0.692   5.587 -0.2050 -0.3117 -0.2703
  256MOL    O1836228   5.446   0.616   5.701  0.2509 -0.2199 -0.1435
  256MOL    H1936229   5.584   0.728   5.481 -0.9236  1.4152  0.9884
  256MOL    H2036230   5.438   0.782   5.399  1.4267  0.3838 -1.2808
  256MOL    H2136231   5.296   0.667   5.560 -1.3756  1.5147  2.1587
  256MOL    H2236232   5.384   0.795   5.621 -0.8275  0.4469 -2.7655
  256MOL    C2336233   5.474   0.478   5.673  0.2597 -0.5229 -0.6338
  256MOL    C2436234   5.510   0.397   5.799  0.2535  0.5086  0.2664
  256MOL    O2536235   5.644   0.420   5.834  0.3691  0.2217 -0.0453
  256MOL    H2636236   5.378   0.444   5.632  0.4519  1.0596 -2.4552
  256MOL    H2736237   5.549   0.477   5.594 -1.2133  1.2159 -2.1031
  256MOL    H2836238   5.486   0.291   5.792 -0.4188  0.4931  2.3038
  256MOL    H2936239   5.447   0.420   5.885  0.6427  0.0981  0.6642
  256MOL    C3036240   5.687   0.340   5.945 -0.2336 -0.0519 -0.5188
  256MOL    C3136241   5.838   0.353   5.972  0.2330  0.3882  0.1490
  256MOL    O3236242   5.875   0.316   6.104 -0.5001  0.1040 -0.3340
  256MOL    H3336243   5.633   0.376   6.032 -1.5317  0.7349 -1.6220
  256MOL    H3436244   5.653   0.237   5.932  0.2374 -0.0973 -1.4508
  256MOL    H3536245   5.850   0.461   5.983 -3.2655  0.7578  0.9975
  256MOL    H3636246   5.912   0.314   5.902 -0.4301  1.3255 -1.1014
  256MOL    C3736247   6.014   0.317   6.123  0.1656  0.5918 -0.5023
  256MOL    C3836248   6.047   0.262   6.261  0.1866 -0.2758  0.5264
  256MOL    O3936249   6.182   0.220   6.268  0.9637 -0.0246  0.2343
  256MOL    H4036250   6.044   0.234   6.059  0.7416 -0.1207  0.6649
  256MOL    H4136251   6.067   0.408   6.097 -1.4097  1.1942 -1.6500
  256MOL    H4236252   5.980   0.176   6.273 -2.8059  1.9720  0.4643
  256MOL    H4336253   6.019   0.343   6.328  0.0521  0.2964 -0.2205
  256MOL    C4436254   6.204   0.116   6.363  0.3209 -0.2985  0.4371
  256MOL    C4536255   6.194   0.154   6.509 -0.1484  0.2780 -0.0099
  256MOL    O4636256   6.061   0.184   6.550 -0.2708 -0.5496  0.4234
  256MOL    H4736257   6.149   0.024   6.344  0.2033 -0.1421  0.0125
  256MOL    H4836258   6.301   0.079   6.328  0.6970  0.3065  0.8298
  256MOL    H4936259   6.259   0.237   6.536 -0.7896  0.6453  0.4232
  256MOL    H5036260   6.222   0.069   6.571  0.2112  0.1088 -0.3994
  256MOL    C5136261   6.044   0.212   6.686  0.0633  0.2549 -0.2770
  256MOL    C5236262   5.901   0.235   6.728 -0.2443  0.5905 -0.2106
  256MOL    O5336263   5.836   0.115   6.726  0.6372 -0.5257 -0.2042
  256MOL    H5436264   6.083   0.136   6.754 -0.0728  0.7404  0.3565
  256MOL    H5536265   6.106   0.299   6.707 -2.2908  1.7276  0.7838
  256MOL    H5636266   5.854   0.314   6.670 -2.4126 -0.7221 -0.2844
  256MOL    H5736267   5.907   0.264   6.833 -2.7719 -0.4589  0.2547
  256MOL    C5836268   5.717   0.110   6.796  0.9976 -0.0759  0.3653
  256MOL    C5936269   5.714   7.745   6.869  0.8940 -0.2318  0.1397
  256MOL    O6036270   5.650   7.640   6.798  0.0812  0.0624  0.2835
  256MOL    H6136271   5.703   0.196   6.861  1.1913 -0.9808  1.6138
  256MOL    H6236272   5.635   0.114   6.723  1.3181  3.6570  0.1577
  256MOL    H6336273   5.639   7.769   6.944 -1.7610  2.1667 -3.0878
  256MOL    H6436274   5.803   7.716   6.925 -0.7320 -1.7719  2.0129
  256MOL    C6536275   5.654   7.517   6.867 -0.4078 -0.7635 -0.4912
  256MOL    C6636276   5.596   7.412   6.770  0.0794 -0.2765 -0.5552
  256MOL    O6736277   5.690   7.389   6.670 -0.3165 -0.4290  0.3586
  256MOL    H6836278   5.759   7.506   6.896 -0.3247  1.2118  0.0497
  256MOL    H6936279   5.589   7.517   6.954  0.7331 -1.6956  0.3791
  256MOL    H7036280   5.496   7.445   6.742  0.1546  0.9414  0.5718
  256MOL    H7136281   5.598   7.326   6.838 -1.1403 -0.3894 -0.6473
  256MOL    C7236282   5.655   7.426   6.543  0.2444 -0.4996  0.6037
  256MOL    C7336283   5.532   7.358   6.477 -0.3292 -0.2804 -0.7782
  256MOL    O7436284   5.560   7.245   6.394  0.0785 -0.1991  0.5726
  256MOL    H7536285   5.639   7.534   6.553 -1.7707 -0.6813 -0.4287
  256MOL    H7636286   5.748   7.434   6.486 -1.3699  1.2482 -1.8761
  256MOL    H7736287   5.471   7.437   6.433 -0.7097 -1.7305 -2.8720
  256MOL    H7836288   5.477   7.319   6.563 -1.5025  1.8399 -0.5119
  256MOL    C7936289   5.440   7.162   6.379 -0.5027  0.0728 -0.2489
  256MOL    C8036290   5.471   7.040   6.298 -0.1919  0.0958  0.1293
  256MOL    O8136291   5.490   7.080   6.161  0.2404  0.4032  0.4677
  256MOL    H8236292   5.385   7.124   6.465 -1.1247 -1.6847 -1.3932
  256MOL    H8336293   5.364   7.213   6.320 -2.2268 -0.3081  1.6227
  256MOL    H8436294   5.389   6.968   6.298  1.7537 -2.1838 -0.0662
  256MOL    H8536295   5.555   6.986   6.342 -0.8288 -1.9342 -1.1042
  256MOL    C8636296   5.474   6.980   6.061 -0.0000 -0.2090  0.3256
  256MOL    C8736297   5.326   6.954   6.026 -0.4405  0.2028 -0.3145
  256MOL    O8836298   5.288   7.055   5.933 -0.5786 -0.0562  0.4563
  256MOL    H8936299   5.542   7.008   5.979 -1.5760 -2.0540 -1.6685
  256MOL    H9036300   5.520   6.885   6.089 -0.3615  0.4090  3.1080
  256MOL    H9136301   5.264   6.953   6.116 -1.9185  1.9335 -1.2697
  256MOL    H9236302   5.310   6.861   5.971 -1.1323  1.8988 -3.0565
  256MOL    C9336303   5.158   7.044   5.877  0.4720  0.4829  0.1014
  256MOL    C9436304   5.125   7.162   5.786  0.2233  0.7823  0.2355
  256MOL    O9536305   5.075   7.277   5.862 -0.3791 -0.2133  0.4818
  256MOL    H9636306   5.149   6.950   5.822 -1.1966  0.3327  0.6013
  256MOL    H9736307   5.084   7.053   5.957  0.8993  2.9893  0.2589
  256MOL    H9836308   5.053   7.128   5.711  1.2846  1.7105 -1.2110
  256MOL    H9936309   5.217   7.183   5.731 -0.4778 -1.3758 -1.8736
  256MOL   C10036310   5.034   7.394   5.782  0.0930 -0.3662  0.1924
  256MOL   C10136311   5.146   7.443   5.683  0.3964 -0.3441 -0.2912
  256MOL   O10236312   5.123   7.420   5.544  0.4471 -0.2225 -0.4624
  256MOL   H10336313   4.937   7.380   5.735  0.7338 -0.1342 -1.2205
  256MOL   H10436314   5.002   7.478   5.845 -1.5242  0.2262 -1.3716
  256MOL   H10536315   5.245   7.415   5.719 -0.3484  1.0480  2.9610
  256MOL   H10636316   5.133   7.551   5.683 -0.0945 -0.4056 -0.3066
  256MOL   C10736317   5.209   7.492   5.457 -0.3852 -0.2070 -0.0025
  256MOL   C10836318   5.167   7.490   5.309 -0.1552  0.2254 -0.2937
  256MOL   O10936319   5.111   7.607   5.261 -0.2441 -0.3586 -0.2931
  256MOL   H11036320   5.202   7.595   5.493 -0.8434 -0.0953 -0.4119
  256MOL   H11136321   5.313   7.462   5.461 -0.3770 -0.1888 -0.0914
  256MOL   H11236322   5.107   7.402   5.287 -1.1898  1.4659 -2.6107
  256MOL   H11336323   5.261   7.485   5.255  0.6171  1.5458  0.9019
  256MOL   C11436324   5.064   7.590   5.125  0.1684  0.1529  0.9049
  256MOL   C11536325   5.020   7.726   5.064  0.0818  0.3190 -0.1401
  256MOL   O11636326   5.128   0.015   4.993  0.2805 -0.4563  0.0173
  256MOL   H11736327   5.151   7.563   5.066 -0.8097  0.4882 -0.7116
  256MOL   H11836328   4.981   7.519   5.120  1.0876 -0.8921  0.3572
  256MOL   H11936329   4.974   0.018   5.140  0.5655  1.5449 -0.8530
  256MOL   H12036330   4.949   7.708   4.983 -0.5675 -1.2057  0.7362
  256MOL   C12136331   5.091   0.156   4.978  0.1892  0.2425  0.6782
  256MOL   C12236332   5.185   0.225   4.872 -0.0607  0.2495  0.0343
  256MOL   O12336333   5.096   0.269   4.770 -0.0060  0.4726 -0.0778
  256MOL   H12436334   4.986   0.160   4.948  0.3982 -0.0225 -0.0834
  256MOL   H12536335   5.092   0.205   5.076  1.8584  0.0391  0.7762
  256MOL   H12636336   5.251   0.156   4.819  1.9811  1.0113  1.5291
  256MOL   H12736337   5.249   0.304   4.911  1.5991 -1.0763  0.0470
  256MOL   C12836338   5.153   0.324   4.650 -0.1299 -0.0317  0.1862
  256MOL   C12936339   5.037   0.377   4.564 -0.0739 -0.0515  0.6777
  256MOL   O13036340   4.962   0.271   4.516  0.4337 -0.5946  0.9523
  256MOL   H13136341   5.224   0.404   4.672 -1.9835  1.4692  0.8627
  256MOL   H13236342   5.212   0.250   4.596  0.8323  0.4130  0.6207
  256MOL   H13336343   5.079   0.437   4.483 -0.0113  0.2466  0.9312
  256MOL   H13436344   4.986   0.447   4.630  0.5755 -0.4281  1.5827
  256MOL   C13536345   4.850   0.308   4.433  0.0335 -0.4233  0.4151
  256MOL   C13636346   4.734   0.211   4.450 -0.5355  0.0967  0.2144
  256MOL   O13736347   4.761   0.093   4.378 -0.1956  0.1461 -0.6501
  256MOL   H13836348   4.812   0.407   4.456 -0.1605 -0.8041  1.7839
  256MOL   H13936349   4.894   0.307   4.333 -0.2803 -2.0359  0.2698
  256MOL   H14036350   4.645   0.261   4.411 -0.6791  0.1482  0.6085
  256MOL   H14136351   4.718   0.177   4.553  0.4565 -0.5918  0.1473
  256MOL   H14236352   4.844   0.060   4.409 -0.3430 -0.4986 -0.9439
  257MOL     C136353   2.890   0.797   0.298 -0.1072 -0.1009 -0.2094
  257MOL     C236354   2.924   0.654   0.243  0.4164 -0.2369  0.0209
  257MOL     O336355   2.993   0.571   0.340  0.0714  0.0890 -0.2661
  257MOL     H436356   2.976   0.856   0.328 -0.2773  0.7163 -1.3017
  257MOL     H536357   2.824   0.795   0.385  2.5243 -0.2948  1.8479
  257MOL     H636358   2.973   0.666   0.146  1.2599  0.9985  0.5883
  257MOL     H736359   2.828   0.609   0.214  0.2242  1.0566 -1.4480
  257MOL     H836360   2.835   0.843   0.216 -0.1131 -2.1883 -1.3979
  257MOL     C936361   3.030   0.447   0.284 -0.2727  0.2933 -0.8337
  257MOL    C1036362   3.135   0.366   0.359  0.2691  0.0920 -0.5505
  257MOL    O1136363   3.068   0.300   0.469 -0.6180 -0.0231 -0.2205
  257MOL    H1236364   2.942   0.388   0.258 -0.5779  0.3607  0.0159
  257MOL    H1336365   3.072   0.466   0.186  1.7324 -0.6353 -0.1793
  257MOL    H1436366   3.203   0.444   0.392  0.7547  0.2224 -1.8276
  257MOL    H1536367   3.192   0.293   0.301 -1.4582 -0.9662 -0.9588
  257MOL    C1636368   3.163   0.219   0.545  0.0018 -0.1263 -0.1830
  257MOL    C1736369   3.087   0.096   0.606 -0.7484  0.5149  0.4339
  257MOL    O1836370   3.006   0.160   0.705  0.0325 -0.0982  0.5632
  257MOL    H1936371   3.253   0.201   0.487 -1.0711  0.1861 -1.9911
  257MOL    H2036372   3.198   0.284   0.626 -1.3598 -0.3592  0.6262
  257MOL    H2136373   3.151   0.022   0.656  0.9424  1.7562  0.1389
  257MOL    H2236374   3.024   0.047   0.532  1.2854 -0.4215 -0.7441
  257MOL    C2336375   2.924   0.070   0.775 -0.2680 -0.2028  0.0948
  257MOL    C2436376   2.819   0.156   0.846  0.3438 -0.1903  0.6527
  257MOL    O2536377   2.882   0.229   0.953  0.3308 -0.6222  0.0452
  257MOL    H2636378   2.874   7.769   0.711 -2.5922  1.1647  0.3213
  257MOL    H2736379   2.989   0.010   0.839 -0.5099 -0.8996 -0.3074
  257MOL    H2836380   2.731   0.105   0.885  0.1636  0.1593  0.7034
  257MOL    H2936381   2.791   0.236   0.777 -0.0676  2.3696  3.7021
  257MOL    C3036382   2.918   0.151   1.071  0.4703  0.6669  0.5214
  257MOL    C3136383   3.017   0.236   1.140  0.2136  0.3821 -0.4684
  257MOL    O3236384   3.152   0.213   1.099 -0.0971  0.0715 -0.1823
  257MOL    H3336385   2.828   0.129   1.129 -0.1571  2.4059  0.2346
  257MOL    H3436386   2.957   0.055   1.039  0.3845 -0.1738  2.8685
  257MOL    H3536387   3.007   0.209   1.244 -0.7144  0.6183 -0.4938
  257MOL    H3636388   2.986   0.341   1.145 -0.4017  0.1747  0.0695
  257MOL    C3736389   3.205   0.295   0.997 -0.0471  0.7418 -0.1465
  257MOL    C3836390   3.309   0.217   0.922  0.7656  0.8478 -0.7730
  257MOL    O3936391   3.416   0.173   1.009 -0.2451 -0.1141  0.2248
  257MOL    H4036392   3.129   0.336   0.930 -1.7036 -0.5310  0.9157
  257MOL    H4136393   3.252   0.381   1.045 -0.0831 -0.1060  1.4574
  257MOL    H4236394   3.345   0.284   0.844 -2.7335  0.9673 -2.3930
  257MOL    H4336395   3.268   0.139   0.858  2.9845 -0.6388 -0.4243
  257MOL    C4436396   3.537   0.152   0.943 -0.0079 -0.7531  0.2618
  257MOL    C4536397   3.644   0.184   1.039  0.6449  0.6273  0.7062
  257MOL    O4636398   3.634   0.093   1.150 -0.1233 -0.0155 -0.5195
  257MOL    H4736399   3.547   0.047   0.914 -2.0078 -1.1266  0.8269
  257MOL    H4836400   3.552   0.216   0.856 -1.1391 -1.3737 -0.4044
  257MOL    H4936401   3.631   0.287   1.074  0.4751  0.7687  0.2292
  257MOL    H5036402   3.741   0.175   0.990  0.7676  2.5857  0.5611
  257MOL    C5136403   3.741   0.126   1.241 -0.1055 -0.5139  0.2891
  257MOL    C5236404   3.729   0.039   1.368  0.3385 -1.4761  0.3190
  257MOL    O5336405   3.656   0.097   1.473 -0.4944 -0.1588  0.0147
  257MOL    H5436406   3.827   0.099   1.180  1.8128  2.4467  1.5946
  257MOL    H5536407   3.763   0.230   1.265  0.7623 -0.5940 -0.1211
  257MOL    H5636408   3.832   0.019   1.400  0.7363 -1.2267 -0.7702
  257MOL    H5736409   3.687   7.711   1.353  0.1898 -1.4075  0.2873
  257MOL    C5836410   3.695   0.223   1.515 -0.5809 -0.6975  0.4566
  257MOL    C5936411   3.652   0.248   1.656 -0.1523 -0.7370  0.1806
  257MOL    O6036412   3.727   0.177   1.746 -0.4178 -0.2180  0.5847
  257MOL    H6136413   3.802   0.242   1.509 -0.6124 -0.3442  0.9688
  257MOL    H6236414   3.640   0.301   1.460 -2.0950 -2.2749 -0.3088
  257MOL    H6336415   3.545   0.228   1.668 -0.0468 -0.6388  1.3499
  257MOL    H6436416   3.665   0.355   1.669 -2.3971 -0.7219  2.6274
  257MOL    C6536417   3.719   0.036   1.746 -0.2984  0.2435  0.1326
  257MOL    C6636418   3.822   7.749   1.842  0.1659 -0.8243 -0.3434
  257MOL    O6736419   3.949   0.035   1.807  0.6380 -0.2994 -0.0131
  257MOL    H6836420   3.619   7.770   1.766 -0.6897  0.5279 -1.2192
  257MOL    H6936421   3.745   0.002   1.646 -0.9527 -0.0331  0.0531
  257MOL    H7036422   3.824   7.641   1.847  0.9768 -0.8176 -0.5460
  257MOL    H7136423   3.806   0.025   1.939  2.2461  0.0181 -0.3970
  257MOL    C7236424   4.032   7.712   1.740 -0.3678 -0.0723  0.1881
  257MOL    C7336425   4.173   7.735   1.795  1.2003  0.6743 -0.6066
  257MOL    O7436426   4.266   7.650   1.736 -0.0748 -0.2240 -0.0356
  257MOL    H7536427   3.999   7.610   1.756 -3.7670  1.2795  2.2490
  257MOL    H7636428   4.031   7.728   1.632  0.3853 -0.8722  0.0483
  257MOL    H7736429   4.181   7.723   1.903  3.2519  0.3610 -0.7693
  257MOL    H7836430   4.194   0.070   1.776 -1.5365  1.7185  1.7498
  257MOL    C7936431   4.398   7.682   1.746 -2.0617 -0.1701 -0.0106
  257MOL    C8036432   4.473   7.563   1.690  0.2575  0.1783 -0.2130
  257MOL    O8136433   4.458   7.559   1.549  0.1682 -0.4030  0.4201
  257MOL    H8236434   4.410   7.764   1.676 -0.5813 -1.1522 -0.9301
  257MOL    H8336435   4.418   7.714   1.848  2.2038 -0.9955 -0.4929
  257MOL    H8436436   4.441   7.466   1.728 -0.1603  1.9016  4.1578
  257MOL    H8536437   4.578   7.572   1.717 -0.6280  2.2985  2.8669
  257MOL    C8636438   4.397   7.441   1.496 -0.4012 -0.0383 -0.0929
  257MOL    C8736439   4.397   7.438   1.341 -0.5006  0.4494 -0.1526
  257MOL    O8836440   4.532   7.431   1.294  0.1763 -0.3746  0.5363
  257MOL    H8936441   4.442   7.353   1.541  0.4190  1.0418  1.2507
  257MOL    H9036442   4.293   7.446   1.528 -1.0475 -2.7191 -1.6805
  257MOL    H9136443   4.357   7.534   1.307  0.8173 -0.3625 -4.2430
  257MOL    H9236444   4.345   7.356   1.293 -2.0519  1.0491  0.4760
  257MOL    C9336445   4.590   7.561   1.281  0.2605 -0.0073 -0.2077
  257MOL    C9436446   4.736   7.540   1.292 -0.8853  0.3240 -0.1896
  257MOL    O9536447   4.811   7.545   1.170  0.3162  0.0185  0.2409
  257MOL    H9636448   4.570   7.607   1.184 -0.8139 -1.7779 -0.8265
  257MOL    H9736449   4.553   7.628   1.358  0.8743 -1.3555  1.2841
  257MOL    H9836450   4.765   7.453   1.351 -0.6978  0.8487  0.4904
  257MOL    H9936451   4.780   7.634   1.324 -0.5384 -0.3336  1.3234
  257MOL   C10036452   4.787   7.432   1.090 -1.2879  0.1832  0.2579
  257MOL   C10136453   4.913   7.390   1.018 -0.0924 -0.6604  0.3001
  257MOL   O10236454   4.988   7.307   1.102  0.0926 -0.2967  0.0658
  257MOL   H10336455   4.754   7.342   1.142  3.9704 -2.3555 -0.4162
  257MOL   H10436456   4.711   7.453   1.014 -1.1866 -0.8598 -0.1463
  257MOL   H10536457   4.963   7.483   0.995  0.7459 -0.7266  1.7613
  257MOL   H10636458   4.888   7.336   0.927  0.9866 -0.7559  0.0560
  257MOL   C10736459   5.114   7.283   1.044 -0.3782  0.4406 -1.1869
  257MOL   C10836460   5.202   7.202   1.147 -0.1012 -0.0284  0.0274
  257MOL   O10936461   5.146   7.074   1.176 -0.4498  0.7686 -0.2804
  257MOL   H11036462   5.116   7.237   0.946  1.1496 -1.2691 -0.3808
  257MOL   H11136463   5.158   7.383   1.032 -0.7327  0.9395  1.3972
  257MOL   H11236464   5.195   7.269   1.232  1.0550 -0.1796  0.2513
  257MOL   H11336465   5.301   7.204   1.102 -0.6824 -2.8681 -1.4777
  257MOL   C11436466   5.030   7.060   1.262 -1.0136  0.7758 -0.1224
  257MOL   C11536467   5.035   6.917   1.317  0.4874 -0.2211 -0.1434
  257MOL   O11636468   5.127   6.894   1.414 -0.2377  0.1371 -0.1092
  257MOL   H11736469   5.038   7.132   1.344 -4.0364  1.1615 -0.1078
  257MOL   H11836470   4.937   7.080   1.209 -2.5201 -0.2122  2.0804
  257MOL   H11936471   5.032   6.843   1.237  1.3374 -0.4135 -0.0014
  257MOL   H12036472   4.936   6.901   1.361 -0.5332  2.0356 -1.5555
  257MOL   C12136473   5.074   6.911   1.538 -0.2967  0.5218 -0.2072
  257MOL   C12236474   5.186   6.891   1.639 -0.2477  0.1791  0.1285
  257MOL   O12336475   5.295   6.969   1.587  0.0319 -0.1673 -0.1882
  257MOL   H12436476   5.033   7.011   1.555  0.1307  0.4370  1.3876
  257MOL   H12536477   4.993   6.843   1.565 -0.8841  2.1527  2.4036
  257MOL   H12636478   5.229   6.794   1.618  0.1191  0.2698  0.4750
  257MOL   H12736479   5.160   6.905   1.744  1.1974 -1.5639  0.7373
  257MOL   C12836480   5.423   6.950   1.654 -0.2377  0.7160  0.1225
  257MOL   C12936481   5.525   7.050   1.597  0.0445  0.7348 -0.4343
  257MOL   O13036482   5.476   7.184   1.620  0.0808 -0.1645 -0.0980
  257MOL   H13136483   5.408   6.976   1.758  0.8205  2.7136 -0.2094
  257MOL   H13236484   5.468   6.850   1.655 -1.7292  0.0199  3.6084
  257MOL   H13336485   5.564   7.033   1.497 -1.1308  0.9350 -0.9311
  257MOL   H13436486   5.619   7.048   1.653 -0.2071  1.1375  0.0113
  257MOL   C13536487   5.562   7.288   1.593 -0.1109 -0.2240 -0.8935
  257MOL   C13636488   5.500   7.425   1.618 -0.5119 -0.1612  0.3993
  257MOL   O13736489   5.482   7.432   1.753  0.0057  0.6422  0.6533
  257MOL   H13836490   5.644   7.267   1.661 -1.0982 -2.3545 -0.3270
  257MOL   H13936491   5.600   7.273   1.492 -0.5960 -0.6500 -1.0135
  257MOL   H14036492   5.408   7.429   1.559 -0.0420 -0.8586 -0.3989
  257MOL   H14136493   5.577   7.492   1.580 -0.7130 -0.7848 -1.1660
  257MOL   H14236494   5.491   7.344   1.786 -1.1634  0.1747 -0.2767
  258MOL     C136495   0.394   4.512   6.453  0.5531  0.6321 -0.1426
  258MOL     C236496   0.342   4.500   6.597  0.2189  0.5678  0.0409
  258MOL     O336497   0.376   4.616   6.671 -0.1566  0.2799  0.1145
  258MOL     H436498   0.355   4.429   6.394 -0.4444  1.1285 -0.1942
  258MOL     H536499   0.502   4.499   6.449  0.7971  2.1530  1.0565
  258MOL     H636500   0.392   4.417   6.647  1.3369  0.0778 -1.8264
  258MOL     H736501   0.238   4.470   6.612  0.3322  0.5763  0.8660
  258MOL     H836502   0.372   4.610   6.410  1.5244  0.8404 -0.1722
  258MOL     C936503   0.320   4.632   6.802 -0.4533  0.1302 -0.0731
  258MOL    C1036504   0.375   4.767   6.848 -0.9081  0.1083  0.3668
  258MOL    O1136505   0.315   4.801   6.971 -0.0639  0.2775  0.7427
  258MOL    H1236506   0.211   4.638   6.800 -0.6403 -2.6465 -1.8576
  258MOL    H1336507   0.342   4.549   6.869 -1.5680  0.5918  0.8806
  258MOL    H1436508   0.344   4.848   6.782 -1.3600  1.1879  1.8821
  258MOL    H1536509   0.484   4.779   6.845 -0.9309 -0.0992 -2.3168
  258MOL    C1636510   0.404   4.771   7.076 -0.5586 -0.4424 -0.2100
  258MOL    C1736511   0.341   4.844   7.200 -0.1563 -0.3015  0.3969
  258MOL    O1836512   0.323   4.982   7.166  0.6281 -0.3595  0.1654
  258MOL    H1936513   0.405   4.665   7.102 -0.1114  0.0738  1.9416
  258MOL    H2036514   0.506   4.808   7.067 -0.6811 -0.3698 -1.4783
  258MOL    H2136515   0.418   4.833   7.276  2.7334  1.3918 -2.1719
  258MOL    H2236516   0.248   4.804   7.239 -0.0347  1.5914  2.7338
  258MOL    C2336517   0.300   5.063   7.277  0.2975  0.0887  0.4310
  258MOL    C2436518   0.174   5.015   7.359  0.4494 -0.2703 -0.0151
  258MOL    O2536519   0.197   4.918   7.457 -0.2421  0.4042 -0.2172
  258MOL    H2636520   0.381   5.073   7.349 -0.0814  1.1719  0.7196
  258MOL    H2736521   0.290   5.163   7.234 -1.3094 -0.0695  0.3910
  258MOL    H2836522   0.102   4.975   7.287 -0.4791  0.6392  0.3914
  258MOL    H2936523   0.133   5.105   7.404  0.4415 -0.8342  1.1329
  258MOL    C3036524   0.083   4.897   7.537 -0.3668  0.1761  0.1315
  258MOL    C3136525   0.112   4.975   7.665 -0.4354  1.1033 -0.3017
  258MOL    O3236526   0.099   5.111   7.655 -0.2212 -0.1015  0.4491
  258MOL    H3336527   7.761   4.925   7.487  0.2583 -1.0395 -1.7487
  258MOL    H3436528   0.066   4.793   7.566 -3.6703  1.0599  1.6274
  258MOL    H3536529   0.211   4.953   7.707 -1.4244  0.3010  1.6994
  258MOL    H3636530   0.044   4.945   7.745 -1.8510  0.1968 -1.8273
  258MOL    C3736531   7.735   5.150   7.687 -0.0734  0.3001 -0.3632
  258MOL    C3836532   7.704   5.174   0.069  0.4466  0.0709 -0.0658
  258MOL    O3936533   0.024   5.252   0.137 -0.4206  0.3095  0.3787
  258MOL    H4036534   7.717   5.245   7.637 -0.8895  0.3652  0.0494
  258MOL    H4136535   7.666   5.081   7.637 -2.6142  1.0188  2.0314
  258MOL    H4236536   7.704   5.078   0.121 -1.4449 -0.7462 -1.4913
  258MOL    H4336537   7.607   5.224   0.072  0.1928 -0.4156 -0.0312
  258MOL    C4436538   7.756   5.392   0.122  0.5186 -0.2192  0.2920
  258MOL    C4536539   0.075   5.490   0.199  1.2801  0.0429  0.3764
  258MOL    O4636540   0.024   5.528   0.326  0.3603  0.3686 -0.4806
  258MOL    H4736541   7.767   5.419   0.016  0.2717  1.5518  0.6920
  258MOL    H4836542   7.654   5.410   0.154 -0.5220 -5.4374  0.3315
  258MOL    H4936543   0.082   5.583   0.143 -1.3403  0.6112  0.9119
  258MOL    H5036544   0.175   5.448   0.205  1.0874 -0.6566 -1.0872
  258MOL    C5136545   0.023   5.418   0.423 -0.0328 -0.8347 -1.0487
  258MOL    C5236546   0.027   5.473   0.568 -0.6631  0.0935 -0.1519
  258MOL    O5336547   7.672   5.529   0.609  0.2511  0.9151  0.1967
  258MOL    H5436548   7.700   5.363   0.417 -1.3495  1.1169  0.9338
  258MOL    H5536549   0.106   5.349   0.410  2.4556  1.2623  2.8210
  258MOL    H5636550   0.105   5.547   0.586  0.2756 -0.7501 -0.7365
  258MOL    H5736551   0.046   5.389   0.634  0.9725  1.2021  0.8154
  258MOL    C5836552   7.675   5.547   0.751  0.6695 -0.5410  0.4507
  258MOL    C5936553   7.555   5.628   0.789  0.3000 -1.0686 -0.1532
  258MOL    O6036554   7.559   5.764   0.746 -0.1419 -0.4745  0.5754
  258MOL    H6136555   7.660   5.446   0.789 -2.8417 -0.5855 -0.8735
  258MOL    H6236556   7.768   5.584   0.794  0.4712  1.5223 -0.8369
  258MOL    H6336557   7.545   5.637   0.897 -0.5978 -1.1375 -0.2263
  258MOL    H6436558   7.462   5.580   0.758 -0.1819 -0.3823  0.2044
  258MOL    C6536559   7.650   5.852   0.814  0.2718  0.0381  0.0900
  258MOL    C6636560   7.580   5.928   0.931 -0.0024  0.9796  0.6578
  258MOL    O6736561   7.551   6.059   0.893 -0.3157  0.1655  0.5349
  258MOL    H6836562   7.736   5.801   0.859  0.4079 -0.0186 -0.2336
  258MOL    H6936563   7.704   5.921   0.749 -0.5762  0.1772 -0.4679
  258MOL    H7036564   7.634   5.917   1.026  0.4841 -1.3404  0.1442
  258MOL    H7136565   7.494   5.866   0.960  1.9428 -3.4726 -2.5092
  258MOL    C7236566   7.440   6.102   0.965 -0.1468 -0.8781  0.5187
  258MOL    C7336567   7.384   6.235   0.912 -0.0823 -0.2758  0.2267
  258MOL    O7436568   7.304   6.203   0.793  0.2200  0.1811  0.7445
  258MOL    H7536569   7.358   6.031   0.974  1.0238 -1.9909  2.9220
  258MOL    H7636570   7.467   6.115   1.070 -0.8682  0.3113  0.5742
  258MOL    H7736571   7.463   6.298   0.871 -1.6004  1.4579 -0.1177
  258MOL    H7836572   7.324   6.290   0.985 -0.2726  1.0048 -0.8795
  258MOL    C7936573   7.215   6.310   0.754 -0.2620  0.1091  0.0579
  258MOL    C8036574   7.161   6.310   0.612  0.4628 -0.7149 -0.3183
  258MOL    O8136575   7.057   6.208   0.597 -0.3147 -0.1408  0.3142
  258MOL    H8236576   7.131   6.319   0.824  0.3625 -0.8099  0.9430
  258MOL    H8336577   7.268   6.405   0.760  0.6583 -0.5258  2.6478
  258MOL    H8436578   7.242   6.294   0.541 -0.6065 -0.5348 -1.5969
  258MOL    H8536579   7.120   6.408   0.585  0.8678 -0.5377 -0.3068
  258MOL    C8636580   7.051   6.178   0.462  0.3049 -0.5806  0.3975
  258MOL    C8736581   6.911   6.127   0.417 -0.0261  0.4029 -0.1353
  258MOL    O8836582   6.807   6.225   0.407  0.1896  0.0085  0.5255
  258MOL    H8936583   7.070   6.261   0.395 -2.1579  0.1889  0.6121
  258MOL    H9036584   7.126   6.106   0.433  1.3119  0.8939 -0.7312
  258MOL    H9136585   6.884   6.041   0.479  0.2741  0.8865  0.6729
  258MOL    H9236586   6.922   6.088   0.316  0.6011 -0.1350  0.1351
  258MOL    C9336587   6.737   6.252   0.528 -0.2851  0.1233 -0.0300
  258MOL    C9436588   6.602   6.323   0.522 -0.7239 -0.4643  0.5768
  258MOL    O9536589   6.547   6.326   0.655  0.7022 -0.5021  0.2013
  258MOL    H9636590   6.730   6.160   0.585  0.2739  0.6730  0.9438
  258MOL    H9736591   6.808   6.300   0.595 -0.7213  0.0056  0.5257
  258MOL    H9836592   6.528   6.271   0.461  0.5949 -4.1130  1.9121
  258MOL    H9936593   6.610   6.417   0.468 -1.0215 -2.0765 -2.3656
  258MOL   C10036594   6.576   6.457   0.710  0.2325  0.1928 -0.4043
  258MOL   C10136595   6.545   6.462   0.859 -0.0137 -0.1332  0.2423
  258MOL   O10236596   6.399   6.479   0.868 -0.2809 -0.2854 -0.1921
  258MOL   H10336597   6.684   6.464   0.694  0.7814 -0.5279  2.6951
  258MOL   H10436598   6.516   6.532   0.660 -0.2693 -1.3553 -2.2001
  258MOL   H10536599   6.589   6.550   0.904  1.0571  0.1119 -1.2327
  258MOL   H10636600   6.579   6.369   0.904 -0.4858 -1.2358 -1.5937
  258MOL   C10736601   6.336   6.472   1.000  0.3769 -0.2824 -0.1341
  258MOL   C10836602   6.384   6.599   1.080  0.2187 -0.6786  0.1409
  258MOL   O10936603   6.514   6.567   1.139 -0.2947 -0.4080 -0.0932
  258MOL   H11036604   6.232   6.495   0.977  0.5072  0.8573  0.3469
  258MOL   H11136605   6.350   6.381   1.058  1.7428 -0.8155 -1.2885
  258MOL   H11236606   6.321   6.613   1.168 -1.6543  0.8219 -1.4181
  258MOL   H11336607   6.388   6.688   1.018  0.9899 -1.2846 -0.6827
  258MOL   C11436608   6.583   6.689   1.179 -0.2315 -0.6857 -0.9255
  258MOL   C11536609   6.735   6.674   1.194 -0.1738  0.4343  0.9296
  258MOL   O11636610   6.755   6.618   1.318 -0.6886  0.8575  0.3096
  258MOL   H11736611   6.576   6.761   1.097  0.7600 -0.9293 -1.2297
  258MOL   H11836612   6.545   6.754   1.259 -0.3833 -1.8049 -0.0792
  258MOL   H11936613   6.778   6.775   1.195  0.5264  0.1466  0.1322
  258MOL   H12036614   6.759   6.616   1.105 -2.0675  3.1888 -1.4515
  258MOL   C12136615   6.886   6.578   1.343 -0.7716  0.3246  0.3459
  258MOL   C12236616   6.897   6.551   1.494  0.5157  0.3484 -0.2951
  258MOL   O12336617   6.856   6.667   1.565 -0.3800 -0.0560 -1.0342
  258MOL   H12436618   6.931   6.498   1.284  0.4973  1.8463 -0.7917
  258MOL   H12536619   6.951   6.665   1.336  1.2434 -1.0958  0.9262
  258MOL   H12636620   6.999   6.525   1.522  0.1206  0.8174  1.6255
  258MOL   H12736621   6.828   6.469   1.515  1.4557 -1.2979 -3.2377
  258MOL   C12836622   6.829   6.649   1.704 -0.0371  0.8155  0.3976
  258MOL   C12936623   6.805   6.791   1.762  0.0259  0.5343  0.1144
  258MOL   O13036624   6.683   6.850   1.719  0.1359  0.0573 -0.5318
  258MOL   H13136625   6.745   6.586   1.733 -0.0034  1.2338  1.4085
  258MOL   H13236626   6.910   6.600   1.757 -1.8011  1.3473  3.6819
  258MOL   H13336627   6.889   6.854   1.730  0.3946  0.6751  1.3205
  258MOL   H13436628   6.806   6.800   1.871 -0.9819 -2.1266  0.3593
  258MOL   C13536629   6.681   6.971   1.655  1.0075  0.4001 -0.4643
  258MOL   C13636630   6.650   6.946   1.511 -0.3788 -0.2665  0.3003
  258MOL   O13736631   6.768   6.891   1.453 -0.4211  0.3423  0.1440
  258MOL   H13836632   6.599   7.035   1.689  0.8443  0.0623 -0.2265
  258MOL   H13936633   6.774   7.025   1.668  1.3965 -0.2379 -0.6075
  258MOL   H14036634   6.614   7.039   1.467  2.3042 -0.2385 -1.9022
  258MOL   H14136635   6.567   6.878   1.489 -1.9385  0.6866  2.9279
  258MOL   H14236636   6.780   6.807   1.493 -0.0161  0.1005 -0.4887
  259MOL     C136637   5.202   4.056   4.323  0.0977  0.1508 -0.0520
  259MOL     C236638   5.240   4.183   4.402 -0.2314  0.5246 -0.4132
  259MOL     O336639   5.118   4.259   4.441 -0.4777  0.8654 -0.1861
  259MOL     H436640   5.148   3.985   4.387 -2.1325 -0.0479 -2.0873
  259MOL     H536641   5.286   3.996   4.289  0.0223  0.8142 -1.4164
  259MOL     H636642   5.305   4.238   4.334 -0.3959  0.5463 -0.5541
  259MOL     H736643   5.298   4.160   4.491  0.7702  2.2315 -0.5955
  259MOL     H836644   5.141   4.095   4.242  2.2096  1.6725 -0.9406
  259MOL     C936645   5.132   4.397   4.477 -0.8695 -0.2067 -0.5845
  259MOL    C1036646   4.999   4.473   4.497  0.2675  0.3090 -0.4038
  259MOL    O1136647   4.939   4.450   4.623  0.9916 -0.0726  0.1754
  259MOL    H1236648   5.191   4.388   4.568  1.1145  2.8738 -1.4891
  259MOL    H1336649   5.186   4.449   4.398 -0.5600  0.9423  0.3731
  259MOL    H1436650   4.926   4.443   4.422 -2.0846  3.4889  0.5214
  259MOL    H1536651   5.012   4.575   4.462  2.3923  0.8351  1.7910
  259MOL    C1636652   4.923   4.316   4.655  0.6421  0.1373 -1.2156
  259MOL    C1736653   4.844   4.297   4.781  0.3548 -0.2762 -0.2397
  259MOL    O1836654   4.928   4.325   4.894  0.2826 -0.1477  0.2618
  259MOL    H1936655   4.860   4.266   4.581 -1.3811  0.1224  0.4815
  259MOL    H2036656   5.020   4.266   4.665  2.1952  2.9068 -1.8810
  259MOL    H2136657   4.808   4.195   4.792  1.8104 -0.5429  2.5530
  259MOL    H2236658   4.759   4.365   4.786 -0.8247 -1.8479  2.3480
  259MOL    C2336659   4.866   4.389   4.998 -0.3682 -0.5965 -0.3441
  259MOL    C2436660   4.864   4.539   4.970 -0.6184 -0.3808 -0.8770
  259MOL    O2536661   4.828   4.616   5.086 -0.2719 -0.2851 -0.5904
  259MOL    H2636662   4.767   4.344   5.008 -0.9247  0.4543 -1.0086
  259MOL    H2736663   4.922   4.359   5.087  0.3498 -0.4890 -0.7527
  259MOL    H2836664   4.787   4.571   4.899  0.2586  0.9493 -1.2456
  259MOL    H2936665   4.954   4.580   4.924 -0.3946  1.3747  1.0678
  259MOL    C3036666   4.799   4.749   5.051 -0.5158 -0.3968 -0.0215
  259MOL    C3136667   4.814   4.844   5.171 -0.2098 -0.6643  0.0552
  259MOL    O3236668   4.944   4.898   5.183  0.5310 -0.1015  0.4804
  259MOL    H3336669   4.864   4.786   4.972 -0.8576 -0.2524 -0.2372
  259MOL    H3436670   4.698   4.758   5.011 -1.4001 -2.5950  1.6356
  259MOL    H3536671   4.782   4.796   5.263 -2.8439  0.5964 -0.1506
  259MOL    H3636672   4.741   4.923   5.156 -0.4194 -0.8215  0.2493
  259MOL    C3736673   5.042   4.799   5.205 -0.0834 -0.3530  0.0712
  259MOL    C3836674   5.181   4.865   5.209 -0.4408 -0.6345 -0.3662
  259MOL    O3936675   5.238   4.839   5.341  0.4881 -0.5506 -0.1018
  259MOL    H4036676   5.022   4.758   5.304  0.0490  2.0790  1.1306
  259MOL    H4136677   5.047   4.722   5.128 -1.0320 -1.3817  1.0118
  259MOL    H4236678   5.166   4.972   5.196 -0.5320 -1.0126 -3.8607
  259MOL    H4336679   5.242   4.825   5.127 -0.6866 -0.0015 -0.8648
  259MOL    C4436680   5.377   4.870   5.345 -0.4411 -0.5238  0.7373
  259MOL    C4536681   5.426   4.879   5.493  0.3015  0.3014  0.1916
  259MOL    O4636682   5.448   4.752   5.548  0.1396  0.4916  0.1380
  259MOL    H4736683   5.436   4.810   5.276  2.2455  1.2443  1.4262
  259MOL    H4836684   5.392   4.971   5.308 -1.1690 -1.1558 -1.3447
  259MOL    H4936685   5.362   4.945   5.552 -0.8868 -0.1502 -0.5740
  259MOL    H5036686   5.522   4.930   5.499  0.3196  0.2541  0.3022
  259MOL    C5136687   5.536   4.757   5.662  0.1623  0.3768  0.5861
  259MOL    C5236688   5.549   4.615   5.735 -0.8710 -0.3737 -0.0880
  259MOL    O5336689   5.447   4.609   5.826  0.2157  0.8248  0.1373
  259MOL    H5436690   5.637   4.789   5.634  0.0899  1.3431  1.4324
  259MOL    H5536691   5.490   4.830   5.728  1.3703  0.6850  1.1092
  259MOL    H5636692   5.645   4.616   5.786 -0.1641 -2.1938 -1.3396
  259MOL    H5736693   5.564   4.527   5.673  1.9225  0.5800 -0.8276
  259MOL    C5836694   5.447   4.478   5.875  0.4440  0.5890 -0.0288
  259MOL    C5936695   5.335   4.467   5.985  0.1509  0.7103  0.4173
  259MOL    O6036696   5.385   4.482   6.112  0.4045  0.0852  0.8231
  259MOL    H6136697   5.417   4.418   5.789 -1.6166  1.4496  0.0606
  259MOL    H6236698   5.537   4.433   5.917 -0.0444 -0.4800 -0.1182
  259MOL    H6336699   5.288   4.372   5.962  2.6413 -0.2614 -0.8421
  259MOL    H6436700   5.255   4.541   5.975  1.1635  1.6378 -0.9072
  259MOL    C6536701   5.280   4.485   6.206 -0.4213 -0.4398 -0.1248
  259MOL    C6636702   5.331   4.515   6.352 -0.4837 -0.0865 -0.1359
  259MOL    O6736703   5.401   4.412   6.421  0.2176 -0.5796  0.0076
  259MOL    H6836704   5.219   4.569   6.173  0.2733 -0.2002 -0.7915
  259MOL    H6936705   5.215   4.398   6.207 -1.7535  0.5374 -0.5531
  259MOL    H7036706   5.248   4.538   6.420  0.0170  0.4490  0.2922
  259MOL    H7136707   5.400   4.600   6.354 -0.7974  0.2166 -1.6141
  259MOL    C7236708   5.497   4.338   6.348  1.2662 -0.1916  0.0011
  259MOL    C7336709   5.623   4.414   6.324  0.3119  0.0684  0.0858
  259MOL    O7436710   5.716   4.406   6.433 -0.5322 -0.3184 -0.0738
  259MOL    H7536711   5.527   4.253   6.410 -0.5259 -0.2073  0.8690
  259MOL    H7636712   5.439   4.292   6.269 -0.5532  2.9432 -0.5537
  259MOL    H7736713   5.607   4.514   6.282 -2.9501  0.1086  1.2680
  259MOL    H7836714   5.658   4.352   6.242  1.0557 -0.9309  1.1439
  259MOL    C7936715   5.846   4.474   6.413  0.1134 -0.3780 -0.0362
  259MOL    C8036716   5.953   4.403   6.494 -0.6338  0.0782 -0.4534
  259MOL    O8136717   5.928   4.434   6.635  0.4285 -0.1357 -0.0828
  259MOL    H8236718   5.875   4.455   6.310  0.5708  1.9580 -0.3599
  259MOL    H8336719   5.847   4.582   6.423  0.2156 -0.2084 -1.6723
  259MOL    H8436720   6.048   4.444   6.460 -0.7408  0.5691 -0.1698
  259MOL    H8536721   5.954   4.295   6.480  2.1608  0.0466 -0.4008
  259MOL    C8636722   6.034   4.397   6.715 -0.3464 -0.0780  0.6577
  259MOL    C8736723   6.008   4.452   6.858 -0.4576 -0.3977 -0.2291
  259MOL    O8836724   6.025   4.592   6.877  0.0778 -0.2547 -0.2769
  259MOL    H8936725   6.053   4.290   6.723 -0.4027 -0.1675 -0.3547
  259MOL    H9036726   6.124   4.444   6.675  1.9886 -2.3395  3.0629
  259MOL    H9136727   6.067   4.397   6.930 -0.0436 -0.9766 -1.0146
  259MOL    H9236728   5.902   4.430   6.875 -0.8702  0.6294 -1.3050
  259MOL    C9336729   6.041   4.633   7.015 -0.3067  0.2448 -0.5921
  259MOL    C9436730   6.146   4.742   7.012  0.1493 -0.3254  0.4236
  259MOL    O9536731   6.260   4.683   6.970 -0.3318 -0.1982 -0.0626
  259MOL    H9636732   5.947   4.676   7.048 -0.4854 -1.3678  1.0569
  259MOL    H9736733   6.072   4.550   7.079  0.0274  0.0248 -1.0369
  259MOL    H9836734   6.162   4.794   7.107  1.8944 -0.1444  0.0502
  259MOL    H9936735   6.111   4.817   6.941 -2.6369 -2.1957 -0.2335
  259MOL   C10036736   6.364   4.768   6.934  0.5627 -0.4121 -0.0327
  259MOL   C10136737   6.410   4.730   6.793  0.2306 -0.5862  0.6723
  259MOL   O10236738   6.503   4.628   6.805  1.0492  0.4397 -0.1822
  259MOL   H10336739   6.327   4.870   6.917 -0.2241 -0.9678 -1.7878
  259MOL   H10436740   6.449   4.766   7.002 -0.1541  0.8171  0.9389
  259MOL   H10536741   6.467   4.811   6.747 -0.9570 -1.2989 -2.1619
  259MOL   H10636742   6.327   4.714   6.725  0.5302  0.8381 -0.0503
  259MOL   C10736743   6.441   4.503   6.788  0.1877 -0.2905  0.1324
  259MOL   C10836744   6.418   4.464   6.649  0.3550 -0.9044  0.9793
  259MOL   O10936745   6.388   4.330   6.634  0.5454  0.1585 -1.0764
  259MOL   H11036746   6.522   4.442   6.828  0.9032  1.4157  1.3373
  259MOL   H11136747   6.353   4.493   6.853 -0.0137  1.1854  0.1047
  259MOL   H11236748   6.514   4.484   6.600 -0.8131 -2.7004 -2.2252
  259MOL   H11336749   6.339   4.524   6.602 -1.1225 -2.7474  1.0804
  259MOL   C11436750   6.350   4.306   6.506  0.5060  1.0335  0.0220
  259MOL   C11536751   6.300   4.162   6.480  0.8020 -0.1527  0.0943
  259MOL   O11636752   6.161   4.151   6.504 -0.3555  0.2956 -0.1472
  259MOL   H11736753   6.261   4.364   6.480  0.4696  0.2444 -1.7427
  259MOL   H11836754   6.434   4.336   6.443 -0.6895  1.3800 -1.4484
  259MOL   H11936755   6.337   4.093   6.556  0.2350  0.4614  0.9353
  259MOL   H12036756   6.318   4.131   6.377 -2.3786 -1.0435 -0.2511
  259MOL   C12136757   6.094   4.028   6.478 -0.1189  1.0373 -0.2562
  259MOL   C12236758   6.115   3.933   6.597 -0.1379  0.5628  0.6682
  259MOL   O12336759   6.224   3.845   6.568 -0.4369 -0.0559  0.1176
  259MOL   H12436760   5.989   4.054   6.492  0.1123  0.9438  1.9496
  259MOL   H12536761   6.110   3.983   6.381  1.6857  0.3367  0.3518
  259MOL   H12636762   6.027   3.868   6.603  0.6715 -0.9250 -2.4790
  259MOL   H12736763   6.138   3.977   6.694  0.9124 -1.6118  1.4405
  259MOL   C12836764   6.240   3.746   6.674  0.2372 -0.3515 -0.5380
  259MOL   C12936765   6.351   3.651   6.628  0.3497  0.4309 -0.2752
  259MOL   O13036766   6.460   3.737   6.610  0.1728 -0.4839  0.3212
  259MOL   H13136767   6.259   3.785   6.774  2.0643 -0.7450 -0.7044
  259MOL   H13236768   6.152   3.683   6.684 -1.4365  2.1679  0.9450
  259MOL   H13336769   6.322   3.606   6.533  2.3136 -1.4564 -0.0298
  259MOL   H13436770   6.372   3.572   6.700 -3.5571 -1.4402 -1.0314
  259MOL   C13536771   6.567   3.674   6.549 -0.4813 -0.9733 -0.1448
  259MOL   C13636772   6.650   3.775   6.477 -0.0338  0.3432  0.0699
  259MOL   O13736773   6.736   3.708   6.387  0.7250 -0.0525 -0.5696
  259MOL   H13836774   6.617   3.620   6.630  0.5574 -1.7151 -1.2674
  259MOL   H13936775   6.538   3.601   6.473 -4.0319 -0.6592  0.8376
  259MOL   H14036776   6.706   3.840   6.543  0.7728  2.1529 -2.3285
  259MOL   H14136777   6.578   3.838   6.424 -1.2143 -1.0596 -0.0397
  259MOL   H14236778   6.701   3.708   6.299 -0.2553  3.5585 -0.2738
  260MOL     C136779   5.114   3.670   3.159 -0.2150  0.9270  0.6806
  260MOL     C236780   5.217   3.574   3.093 -0.0288 -0.7620 -0.8577
  260MOL     O336781   5.325   3.651   3.051  0.0266  0.1760 -0.4266
  260MOL     H436782   5.021   3.615   3.168  0.3433 -0.0338  0.6653
  260MOL     H536783   5.084   3.754   3.096  0.9630 -0.0568 -1.2584
  260MOL     H636784   5.167   3.520   3.013 -0.2059 -1.5101 -0.2454
  260MOL     H736785   5.243   3.497   3.165 -0.0986 -1.2670 -1.3668
  260MOL     H836786   5.131   3.690   3.265  0.2029 -2.9070  1.4298
  260MOL     C936787   5.385   3.600   2.930 -0.2750  0.6852  0.6335
  260MOL    C1036788   5.473   3.475   2.953  0.2768 -0.2323 -0.2240
  260MOL    O1136789   5.602   3.496   3.009 -0.6202 -0.0936 -0.3162
  260MOL    H1236790   5.302   3.556   2.875 -0.6895  1.0304  0.9748
  260MOL    H1336791   5.453   3.657   2.868 -0.7020  0.9131  0.3743
  260MOL    H1436792   5.501   3.424   2.861  2.5624  0.2426  0.1737
  260MOL    H1536793   5.424   3.399   3.014 -0.0487  1.2761  1.4357
  260MOL    C1636794   5.605   3.570   3.127  0.1357 -0.4503 -0.3757
  260MOL    C1736795   5.746   3.555   3.177 -0.4052 -0.3308 -0.6144
  260MOL    O1836796   5.779   3.423   3.208 -0.3379  0.3987  0.2435
  260MOL    H1936797   5.587   3.676   3.106  1.5430 -0.1300 -0.0420
  260MOL    H2036798   5.523   3.528   3.185 -0.0310 -1.3317 -1.2436
  260MOL    H2136799   5.768   3.623   3.259 -1.0977 -1.2129  0.3228
  260MOL    H2236800   5.815   3.580   3.096 -1.6952 -1.4099 -2.0736
  260MOL    C2336801   5.715   3.372   3.330 -0.1105  0.3431  0.0706
  260MOL    C2436802   5.773   3.227   3.351 -0.5554  0.0657 -0.5391
  260MOL    O2536803   5.696   3.141   3.435  0.1946  0.5402 -0.3640
  260MOL    H2636804   5.745   3.427   3.419  1.8717 -0.6354  0.0400
  260MOL    H2736805   5.606   3.361   3.324  0.0612 -0.3288 -2.4713
  260MOL    H2836806   5.870   3.251   3.394 -0.6474  3.1648 -1.9279
  260MOL    H2936807   5.795   3.185   3.253  0.6824  2.0525 -1.1495
  260MOL    C3036808   5.758   3.017   3.461 -0.3713  0.0878  0.6392
  260MOL    C3136809   5.650   2.916   3.504  0.1503 -0.2524  0.2299
  260MOL    O3236810   5.716   2.790   3.525 -0.6262 -0.2301  0.6538
  260MOL    H3336811   5.794   2.980   3.364 -4.4185 -1.2035 -0.4748
  260MOL    H3436812   5.844   3.024   3.527 -0.2063 -0.0312  0.4389
  260MOL    H3536813   5.565   2.910   3.435  0.4864  2.4744 -0.4685
  260MOL    H3636814   5.601   2.943   3.597  1.1507  0.2635  0.6173
  260MOL    C3736815   5.640   2.681   3.570  0.0367 -0.0637  0.0668
  260MOL    C3836816   5.584   2.693   3.714  0.2400 -0.2724 -0.5494
  260MOL    O3936817   5.689   2.664   3.804  0.0736 -0.5834  0.6747
  260MOL    H4036818   5.560   2.674   3.496 -0.7838 -0.9304  1.0238
  260MOL    H4136819   5.705   2.594   3.562  0.1537 -0.0712  1.0555
  260MOL    H4236820   5.511   2.613   3.723  2.6030 -2.1868  2.4935
  260MOL    H4336821   5.531   2.787   3.731  0.2453 -0.3873  0.0847
  260MOL    C4436822   5.662   2.657   3.940  0.1039  0.4261 -0.9524
  260MOL    C4536823   5.591   2.784   4.009 -0.6373 -0.4103 -1.1939
  260MOL    O4636824   5.460   2.806   3.961 -0.9550 -0.0514 -0.1597
  260MOL    H4736825   5.587   2.580   3.959 -0.0441  0.9673  0.6690
  260MOL    H4836826   5.752   2.645   4.000 -0.4918 -0.6250 -0.2450
  260MOL    H4936827   5.652   2.875   4.001 -0.8643 -0.3014 -1.7423
  260MOL    H5036828   5.593   2.762   4.115  1.2320  0.0814 -1.1058
  260MOL    C5136829   5.405   2.928   4.014  0.4833  1.1036  0.8187
  260MOL    C5236830   5.283   2.962   3.933 -0.2353  0.0365  0.5255
  260MOL    O5336831   5.312   2.968   3.793 -0.4325 -0.3466 -0.1033
  260MOL    H5436832   5.355   2.908   4.109 -0.6687  0.1663  0.0393
  260MOL    H5536833   5.488   2.998   4.018  1.9232 -0.5818  1.1784
  260MOL    H5636834   5.227   3.046   3.975  0.5995  0.4630  0.8100
  260MOL    H5736835   5.213   2.879   3.938 -1.0036  0.6599  0.0730
  260MOL    C5836836   5.198   3.010   3.721  0.4948  0.2415  0.8063
  260MOL    C5936837   5.222   2.988   3.569  0.1869  0.7274  0.1533
  260MOL    O6036838   5.192   2.847   3.538  0.1611 -0.6961  0.0682
  260MOL    H6136839   5.110   2.957   3.757  0.8298  0.0881  1.4032
  260MOL    H6236840   5.186   3.117   3.738  0.9506  0.3812  0.2680
  260MOL    H6336841   5.331   2.996   3.561  0.3826  0.0881  1.9104
  260MOL    H6436842   5.181   3.062   3.501 -1.8352 -1.2732 -0.8829
  260MOL    C6536843   5.227   2.806   3.404  0.1036 -0.1413 -0.5514
  260MOL    C6636844   5.151   2.671   3.373 -0.1582 -0.0088  0.6216
  260MOL    O6736845   5.016   2.686   3.342 -0.0508 -0.3073  0.2620
  260MOL    H6836846   5.197   2.874   3.324 -0.0314  1.0546  0.4938
  260MOL    H6936847   5.334   2.792   3.419  0.0194  0.5539  0.8820
  260MOL    H7036848   5.171   2.609   3.461 -0.3391  0.6894  1.1663
  260MOL    H7136849   5.189   2.619   3.285  3.3230  2.0278  0.8147
  260MOL    C7236850   4.951   2.558   3.303  0.6453  0.7285 -0.1249
  260MOL    C7336851   5.003   2.492   3.173 -0.5558 -0.6428 -0.6333
  260MOL    O7436852   5.050   2.359   3.200  0.4944 -0.3359  0.0440
  260MOL    H7536853   4.949   2.485   3.383  1.2089 -0.5081 -1.2264
  260MOL    H7636854   4.849   2.591   3.285  0.4994  0.0419 -0.5656
  260MOL    H7736855   5.077   2.558   3.127 -0.3175 -1.0805 -0.8846
  260MOL    H7836856   4.919   2.490   3.104 -0.7481  1.3469 -0.4779
  260MOL    C7936857   5.101   2.290   3.086 -0.5141 -0.2569  0.1498
  260MOL    C8036858   5.132   2.152   3.134  0.5512  0.0632  0.5590
  260MOL    O8136859   5.018   2.067   3.150  1.0062 -0.5451 -0.1015
  260MOL    H8236860   5.019   2.284   3.014 -1.2029  2.0834  0.7016
  260MOL    H8336861   5.196   2.328   3.049 -1.3861  0.1428 -1.7249
  260MOL    H8436862   5.188   2.158   3.227  1.8439  1.3687 -0.2766
  260MOL    H8536863   5.192   2.098   3.061  2.1376  1.5888  0.6943
  260MOL    C8636864   4.923   2.105   3.246  0.5876 -0.0790  0.3662
  260MOL    C8736865   4.830   1.987   3.272 -0.7639  0.5822 -0.4008
  260MOL    O8836866   4.897   1.878   3.325 -0.0987 -0.2662 -0.4238
  260MOL    H8936867   4.966   2.156   3.332 -1.3089  0.3821  1.0512
  260MOL    H9036868   4.861   2.176   3.190  0.8542  1.0724  1.5083
  260MOL    H9136869   4.788   1.955   3.177  1.9287 -3.9616 -0.2065
  260MOL    H9236870   4.752   2.026   3.337  0.4243  1.5478  0.4692
  260MOL    C9336871   4.803   1.787   3.376 -0.1366 -0.6523 -0.0342
  260MOL    C9436872   4.880   1.662   3.425 -0.1505  0.6083 -0.3230
  260MOL    O9536873   4.927   1.681   3.561  0.2994 -0.6611 -0.1169
  260MOL    H9636874   4.734   1.826   3.450  0.8336 -1.0040  1.0677
  260MOL    H9736875   4.745   1.759   3.288  0.2204  0.4144 -0.6138
  260MOL    H9836876   4.956   1.637   3.351  1.5467  2.1090  0.8514
  260MOL    H9936877   4.801   1.587   3.429 -1.3407  1.9533  1.9860
  260MOL   C10036878   5.012   1.580   3.609 -0.4565 -0.0852 -0.2471
  260MOL   C10136879   5.089   1.605   3.740 -0.1980  0.0327  0.0802
  260MOL   O10236880   5.012   1.565   3.854 -0.0662  0.3187 -0.3375
  260MOL   H10336881   4.949   1.492   3.611 -0.8907  0.2523  2.1008
  260MOL   H10436882   5.091   1.570   3.534 -1.2140  1.8092 -1.3552
  260MOL   H10536883   5.123   1.708   3.739  0.6031 -0.1779  2.5839
  260MOL   H10636884   5.182   1.548   3.733  0.8945  2.0410 -2.5774
  260MOL   C10736885   4.920   1.663   3.895  0.6777  1.0514  0.6435
  260MOL   C10836886   4.915   1.668   4.047  1.0706  0.6281 -0.5256
  260MOL   O10936887   4.816   1.591   4.116  0.1219  0.1127 -0.2294
  260MOL   H11036888   4.953   1.759   3.855 -0.2368  1.2943  0.4583
  260MOL   H11136889   4.822   1.644   3.849  0.7682  0.2805  0.7674
  260MOL   H11236890   4.920   1.773   4.078 -0.7026  0.4851  0.3073
  260MOL   H11336891   5.009   1.636   4.091  0.4694 -0.6950 -0.1682
  260MOL   C11436892   4.826   1.446   4.107  0.3705  0.1490 -0.6050
  260MOL   C11536893   4.756   1.383   4.238 -0.3847 -0.0919  0.0419
  260MOL   O11636894   4.616   1.367   4.215 -0.5874  0.0174  0.1496
  260MOL   H11736895   4.780   1.399   4.020  0.6934 -0.7557 -0.2946
  260MOL   H11836896   4.931   1.417   4.111  0.4858  0.5994 -0.3923
  260MOL   H11936897   4.774   1.451   4.321 -0.1759  2.9153 -2.3627
  260MOL   H12036898   4.801   1.284   4.242  1.4834  0.7188 -0.0721
  260MOL   C12136899   4.542   1.280   4.308 -0.1980 -0.5321 -0.4767
  260MOL   C12236900   4.414   1.237   4.237  0.4309 -0.6504  0.5312
  260MOL   O12336901   4.452   1.157   4.124 -0.2073  0.1184 -0.0520
  260MOL   H12436902   4.610   1.198   4.329  0.7223  0.4359  0.3843
  260MOL   H12536903   4.518   1.336   4.398  0.6470 -1.1380  0.1376
  260MOL   H12636904   4.346   1.312   4.195  1.9655 -0.5674 -1.8561
  260MOL   H12736905   4.350   1.176   4.302 -3.0371  0.8203 -1.3559
  260MOL   C12836906   4.337   1.113   4.046 -0.1424  0.3582 -1.0227
  260MOL   C12936907   4.386   0.988   3.964  0.5338 -0.1441  0.0262
  260MOL   O13036908   4.336   0.866   4.020  0.0461  0.1445  0.1613
  260MOL   H13136909   4.260   1.075   4.112  2.2102 -1.1122  0.9303
  260MOL   H13236910   4.290   1.190   3.984 -2.0390 -0.6279 -0.8315
  260MOL   H13336911   4.493   0.995   3.946  0.5234  0.5825  0.2298
  260MOL   H13436912   4.337   1.000   3.867 -1.0430 -1.1205  0.6800
  260MOL   C13536913   4.350   0.752   3.942 -0.7709 -0.8998  0.1738
  260MOL   C13636914   4.387   0.639   4.035 -0.3535 -0.0828  0.1437
  260MOL   O13736915   4.507   0.680   4.086 -0.4245  0.0183 -0.7719
  260MOL   H13836916   4.254   0.743   3.891 -0.7326  1.4129 -0.3980
  260MOL   H13936917   4.423   0.758   3.861 -1.0711  0.8369  0.0001
  260MOL   H14036918   4.397   0.552   3.971 -2.0050  0.4083 -0.8004
  260MOL   H14136919   4.321   0.615   4.118 -0.1359  1.0484  0.6596
  260MOL   H14236920   4.500   0.768   4.120 -1.8181  0.1889 -1.4671
  261MOL     C136921   6.796   7.164   5.938 -0.4569  0.4997 -0.2503
  261MOL     C236922   6.694   7.213   5.838 -0.1106 -0.7546  0.1124
  261MOL     O336923   6.618   7.099   5.793  0.1404  0.1114 -0.6507
  261MOL     H436924   6.877   7.107   5.890 -1.7589 -1.0447 -0.6541
  261MOL     H536925   6.752   7.091   6.006  0.8074 -0.2797 -0.2366
  261MOL     H636926   6.746   7.253   5.751 -1.8986 -0.4605 -0.8499
  261MOL     H736927   6.630   7.295   5.871  0.9103 -0.3856  1.1814
  261MOL     H836928   6.859   7.240   5.984  0.3562 -0.0625 -0.4065
  261MOL     C936929   6.536   7.133   5.682  0.4213 -0.0351  0.3719
  261MOL    C1036930   6.500   7.003   5.594  0.5650  0.5179  0.3136
  261MOL    O1136931   6.612   6.956   5.525 -0.2049  0.3294 -0.0904
  261MOL    H1236932   6.447   7.172   5.732 -0.0572 -0.2454 -0.2959
  261MOL    H1336933   6.580   7.204   5.611 -2.3942  3.1160  1.6569
  261MOL    H1436934   6.416   7.015   5.526  0.6541 -1.4218 -0.1756
  261MOL    H1536935   6.453   6.923   5.651  1.2693  0.0533  0.2467
  261MOL    C1636936   6.686   6.863   5.598 -0.1180 -0.1923  0.4958
  261MOL    C1736937   6.771   6.790   5.492 -0.5460 -0.0335  0.0125
  261MOL    O1836938   6.781   6.654   5.531  0.2547  0.2740  0.5703
  261MOL    H1936939   6.734   6.920   5.677 -0.0610  2.2234 -1.2092
  261MOL    H2036940   6.619   6.787   5.638 -0.4355 -1.6624 -2.6029
  261MOL    H2136941   6.857   6.849   5.461 -1.6993  1.6153 -0.0694
  261MOL    H2236942   6.718   6.800   5.398  0.2379  0.0285 -0.4253
  261MOL    C2336943   6.856   6.581   5.432 -0.2401  0.0391 -0.4622
  261MOL    C2436944   7.010   6.603   5.437 -0.4637  0.0687 -0.0813
  261MOL    O2536945   7.046   6.686   5.331  0.2641 -0.2982  0.5213
  261MOL    H2636946   6.848   6.476   5.462  2.2315 -0.3549 -1.0054
  261MOL    H2736947   6.820   6.602   5.332 -0.8964 -1.9174 -0.6655
  261MOL    H2836948   7.067   6.510   5.436  0.2282  0.4537 -3.9543
  261MOL    H2936949   7.041   6.653   5.528 -0.0294  3.0101 -1.7903
  261MOL    C3036950   7.187   6.715   5.340  0.0738  0.8395 -0.0334
  261MOL    C3136951   7.233   6.806   5.224 -0.4567  0.6991 -0.2256
  261MOL    O3236952   7.321   6.737   5.134 -0.4705 -0.5118  0.2869
  261MOL    H3336953   7.207   6.773   5.430  0.1461 -0.1197  0.5753
  261MOL    H3436954   7.255   6.629   5.333  0.6173  1.3462 -1.2134
  261MOL    H3536955   7.286   6.890   5.267 -0.6235  0.7028 -0.0282
  261MOL    H3636956   7.136   6.831   5.181 -0.0623  0.7690 -1.0989
  261MOL    C3736957   7.256   6.639   5.043 -0.1567 -0.2513 -0.4934
  261MOL    C3836958   7.339   6.609   4.917 -0.3570 -0.1315 -0.5258
  261MOL    O3936959   7.434   6.515   4.961 -0.0819  0.2649  0.1681
  261MOL    H4036960   7.241   6.550   5.103 -0.7660 -0.0283 -0.3172
  261MOL    H4136961   7.156   6.679   5.026  0.2929  0.2171 -2.1106
  261MOL    H4236962   7.386   6.702   4.887 -0.7336  1.0211  2.2596
  261MOL    H4336963   7.268   6.574   4.842 -0.1305  2.1071 -1.8290
  261MOL    C4436964   7.526   6.475   4.862  0.0263 -0.0788  0.4638
  261MOL    C4536965   7.675   6.512   4.881  0.4319  0.3012  0.3909
  261MOL    O4636966   7.683   6.644   4.846 -0.1600 -0.5703  0.3593
  261MOL    H4736967   7.524   6.367   4.845  0.2348 -0.6328  3.6170
  261MOL    H4836968   7.491   6.515   4.767 -2.0319 -1.2871  0.6798
  261MOL    H4936969   7.752   6.465   4.820 -0.7905 -0.7476 -0.3637
  261MOL    H5036970   7.701   6.486   4.984  1.2634 -1.0058 -0.1358
  261MOL    C5136971   0.039   6.707   4.874 -0.2638  0.1944 -0.4593
  261MOL    C5236972   0.023   6.855   4.839  0.1310 -0.7381 -0.3261
  261MOL    O5336973   7.720   6.933   4.931  0.2289  0.2406 -0.1059
  261MOL    H5436974   0.069   6.676   4.974 -0.0768  0.8066 -0.3265
  261MOL    H5536975   0.120   6.657   4.821  0.2559  0.5930 -0.0446
  261MOL    H5636976   7.757   6.873   4.738  0.3217  0.7776 -0.1386
  261MOL    H5736977   0.123   6.897   4.828  0.4056 -1.2169  0.3417
  261MOL    C5836978   7.580   6.918   4.945 -0.0757 -0.0557  0.6280
  261MOL    C5936979   7.516   7.041   5.013  0.0260  0.1494  0.4641
  261MOL    O6036980   7.537   7.159   4.936  0.5031 -0.3193  0.7458
  261MOL    H6136981   7.528   6.909   4.850 -0.6681  1.0049  0.8559
  261MOL    H6236982   7.550   6.825   4.994 -0.1799 -0.8787 -0.9398
  261MOL    H6336983   7.562   7.047   5.111  0.8148  3.1810 -0.0116
  261MOL    H6436984   7.414   7.015   5.042  0.0250  0.4157  0.7025
  261MOL    C6536985   7.485   7.278   5.003 -0.2465 -0.2137  0.6029
  261MOL    C6636986   7.338   7.304   4.966 -0.2676  0.3786 -0.2895
  261MOL    O6736987   7.255   7.224   5.050 -0.0725  0.1089  0.2931
  261MOL    H6836988   7.488   7.261   5.111  1.4255  1.2267  0.8147
  261MOL    H6936989   7.554   7.354   4.966 -0.8078  0.7793  1.5814
  261MOL    H7036990   7.308   7.261   4.870  0.6046  2.8053 -1.6795
  261MOL    H7136991   7.309   7.409   4.972 -0.5823  0.2941 -0.3244
  261MOL    C7236992   7.116   7.269   5.052  0.2116 -0.8104  0.2679
  261MOL    C7336993   7.033   7.183   5.144  0.1565 -0.6120 -0.3465
  261MOL    O7436994   7.082   7.201   5.272 -0.3441 -0.2409 -0.0612
  261MOL    H7536995   7.110   7.370   5.090 -0.8484 -0.7307 -0.0980
  261MOL    H7636996   7.076   7.274   4.950  0.9478  1.2215  0.0577
  261MOL    H7736997   7.015   7.079   5.117 -0.7360 -0.9337  1.3873
  261MOL    H7836998   6.933   7.225   5.153  0.8579  0.8608  1.0117
  261MOL    C7936999   7.013   7.119   5.371 -0.1955 -0.3214  0.3927
  261MOL    C8037000   7.030   7.181   5.514  0.2211  1.0826  1.3527
  261MOL    O8137001   7.131   7.112   5.586 -0.1593  0.5076  0.2314
  261MOL    H8237002   6.907   7.099   5.354  0.1019 -2.1147  0.5009
  261MOL    H8337003   7.045   7.015   5.361 -1.0095 -0.4312 -1.2186
  261MOL    H8437004   6.940   7.157   5.571  1.3045 -0.5874  2.3805
  261MOL    H8537005   7.036   7.289   5.499  1.9364  0.7532 -0.5980
  261MOL    C8637006   7.136   7.145   5.718 -0.2312 -0.1949  0.4115
  261MOL    C8737007   7.223   7.057   5.809 -0.5056 -0.6974 -0.1355
  261MOL    O8837008   7.166   6.934   5.850 -0.1806  0.5306 -0.0425
  261MOL    H8937009   7.171   7.248   5.711 -0.0702 -0.3680 -2.0208
  261MOL    H9037010   7.040   7.164   5.765  0.4545 -0.1121  1.8011
  261MOL    H9137011   7.245   7.116   5.897 -2.7462 -2.2634  1.5273
  261MOL    H9237012   7.319   7.035   5.761 -0.4951  0.4175 -0.6538
  261MOL    C9337013   7.177   6.825   5.751 -0.9982  0.1440 -0.5440
  261MOL    C9437014   7.140   6.693   5.816  0.1560 -0.7994 -1.2307
  261MOL    O9537015   7.005   6.665   5.827 -0.8116 -0.7610 -0.0473
  261MOL    H9637016   7.118   6.843   5.660 -0.1170 -3.7428 -1.9570
  261MOL    H9737017   7.279   6.827   5.712 -0.1882  1.7074  1.5343
  261MOL    H9837018   7.199   6.687   5.908  2.1784  3.6400 -2.1078
  261MOL    H9937019   7.183   6.617   5.752 -1.9996 -0.9034 -2.5999
  261MOL   C10037020   6.925   6.751   5.909 -0.8256  0.5843  0.1369
  261MOL   C10137021   6.783   6.702   5.913  0.3342 -0.2817 -0.1011
  261MOL   O10237022   6.762   6.592   6.002  0.3987 -0.7887  0.0195
  261MOL   H10337023   6.983   6.739   6.000  1.4372 -0.8316 -1.4410
  261MOL   H10437024   6.933   6.854   5.875 -0.0034  0.4175 -0.1784
  261MOL   H10537025   6.745   6.683   5.812  1.2072 -1.0636 -0.2838
  261MOL   H10637026   6.725   6.785   5.952 -1.3182 -1.2308 -0.4823
  261MOL   C10737027   6.846   6.484   5.980  0.0041  0.7963  0.3599
  261MOL   C10837028   6.792   6.362   6.043 -0.0234 -0.2364  0.0058
  261MOL   O10937029   6.654   6.359   6.010 -0.2311 -0.3425  0.0284
  261MOL   H11037030   6.867   6.456   5.876  3.3464  1.2041  0.8666
  261MOL   H11137031   6.946   6.501   6.020  2.6482 -0.1241 -5.3653
  261MOL   H11237032   6.801   6.367   6.151  1.8260 -1.9727 -0.0363
  261MOL   H11337033   6.844   6.268   6.025 -0.8626 -0.7402  0.1977
  261MOL   C11437034   6.580   6.259   6.078 -0.5087 -0.1777  0.1611
  261MOL   C11537035   6.642   6.116   6.084 -0.2437  0.0873 -0.5893
  261MOL   O11637036   6.719   6.106   6.208  0.0486 -0.1608 -0.5760
  261MOL   H11737037   6.561   6.308   6.173  1.0015 -0.5356  0.6522
  261MOL   H11837038   6.481   6.245   6.034 -0.8934 -3.2790  1.8518
  261MOL   H11937039   6.696   6.088   5.993  1.0459 -0.2470  0.2674
  261MOL   H12037040   6.563   6.042   6.095 -1.8423  2.0126  1.4898
  261MOL   C12137041   6.773   5.979   6.222  0.6754  0.1439 -0.6812
  261MOL   C12237042   6.834   5.959   6.365 -0.4145 -0.0798 -0.1757
  261MOL   O12337043   6.951   6.036   6.378 -0.0649 -0.0902  0.6918
  261MOL   H12437044   6.712   5.892   6.200  2.6664 -1.4583 -0.0442
  261MOL   H12537045   6.854   5.984   6.149  1.1922  0.9661 -0.0596
  261MOL   H12637046   6.852   5.852   6.377  3.0565  0.3811 -0.9235
  261MOL   H12737047   6.760   5.988   6.439  1.1105 -0.2073  1.4335
  261MOL   C12837048   6.935   6.179   6.397  0.1152  0.1102  0.5256
  261MOL   C12937049   7.082   6.231   6.398  0.7355  0.0865 -0.0997
  261MOL   O13037050   7.150   6.198   6.514  0.3388 -0.3234  0.5443
  261MOL   H13137051   6.881   6.230   6.317 -1.3192  1.9751  2.6413
  261MOL   H13237052   6.872   6.206   6.481  1.6350 -0.4636  1.8623
  261MOL   H13337053   7.100   6.335   6.370  2.5843 -0.3686 -0.6915
  261MOL   H13437054   7.118   6.176   6.311 -1.0500  0.5998 -1.1963
  261MOL   C13537055   7.289   6.199   6.497  0.5031  0.0214 -0.3319
  261MOL   C13637056   7.349   6.164   6.637 -0.0576 -0.4653  0.3487
  261MOL   O13737057   7.330   6.287   6.707 -0.0093  0.4187 -0.1329
  261MOL   H13837058   7.328   6.132   6.420  1.2778  0.3726 -0.2488
  261MOL   H13937059   7.324   6.299   6.473  1.4311 -0.7005 -2.0883
  261MOL   H14037060   7.457   6.150   6.627 -0.3400 -1.9766 -0.8393
  261MOL   H14137061   7.304   6.073   6.675 -0.5583 -0.9827 -1.4231
  261MOL   H14237062   7.236   6.296   6.721 -0.1289  1.9408 -1.7644
  262MOL     C137063   6.257   0.901   2.665 -0.7617  0.4899 -0.2753
  262MOL     C237064   6.379   0.815   2.678  0.2947  0.0986 -0.0067
  262MOL     O337065   6.349   0.681   2.706  0.6234  0.6727  0.2051
  262MOL     H437066   6.192   0.898   2.752 -1.5555  1.9441 -0.7966
  262MOL     H537067   6.182   0.856   2.600  0.2635 -3.0820  0.9247
  262MOL     H637068   6.443   0.854   2.757  0.8742 -1.4858  0.3256
  262MOL     H737069   6.439   0.816   2.587  0.7229 -2.1375  0.2018
  262MOL     H837070   6.281   1.003   2.633  4.2999 -0.2293  0.7302
  262MOL     C937071   6.461   0.604   2.723  0.2327  0.4994  0.1858
  262MOL    C1037072   6.419   0.470   2.774 -0.1456 -0.7371 -0.0586
  262MOL    O1137073   6.404   0.471   2.911 -0.8614 -0.7305  0.0074
  262MOL    H1237074   6.513   0.595   2.628 -1.6847  2.3512 -1.0920
  262MOL    H1337075   6.536   0.638   2.795  0.8926  0.8119 -0.6450
  262MOL    H1437076   6.483   0.394   2.731 -0.7603 -0.3557 -1.6959
  262MOL    H1537077   6.323   0.447   2.727 -0.2622  0.7438 -0.5955
  262MOL    C1637078   6.409   0.342   2.957  0.0416  0.3895 -0.0542
  262MOL    C1737079   6.553   0.296   2.973  0.2330 -0.3993  0.0432
  262MOL    O1837080   6.610   0.223   2.853  0.2255 -0.6642  0.0740
  262MOL    H1937081   6.361   0.342   3.055  1.4726 -1.7456  0.6868
  262MOL    H2037082   6.343   0.271   2.908  0.2971  0.0415  0.1049
  262MOL    H2137083   6.540   0.218   3.048  0.4180 -0.4935 -0.0217
  262MOL    H2237084   6.610   0.381   3.010 -0.8788  1.4681 -2.3867
  262MOL    C2337085   6.724   0.147   2.885 -0.2452  0.8885 -0.8140
  262MOL    C2437086   6.775   0.094   2.745  0.0077 -0.1617 -0.7762
  262MOL    O2537087   6.824   0.202   2.670 -0.1107 -0.2378  0.4316
  262MOL    H2637088   6.798   0.203   2.944  0.6211 -1.2264  0.1446
  262MOL    H2737089   6.693   0.058   2.939 -0.9526  2.3248  1.1931
  262MOL    H2837090   6.692   0.043   2.695  1.6149 -2.9651 -0.7249
  262MOL    H2937091   6.851   0.016   2.757 -1.4597 -1.5170  0.0077
  262MOL    C3037092   6.868   0.165   2.543  0.1020 -0.1154  0.2522
  262MOL    C3137093   6.761   0.216   2.445 -0.4007  0.0400  0.0033
  262MOL    O3237094   6.652   0.127   2.447  0.2219  0.6411 -0.1650
  262MOL    H3337095   6.960   0.220   2.523 -0.7454  1.2262  0.0340
  262MOL    H3437096   6.883   0.057   2.537  1.2024 -0.0390  1.2949
  262MOL    H3537097   6.788   0.208   2.339 -1.4075  0.0357 -0.2564
  262MOL    H3637098   6.724   0.317   2.461 -1.6784 -0.0674 -2.0648
  262MOL    C3737099   6.526   0.190   2.476  0.1063  0.7314 -0.1726
  262MOL    C3837100   6.420   0.089   2.461 -0.0110  0.4444 -0.4270
  262MOL    O3937101   6.363   0.068   2.337 -0.6659 -0.7669 -0.2952
  262MOL    H4037102   6.525   0.222   2.580 -0.8039  0.6124 -0.1424
  262MOL    H4137103   6.517   0.282   2.419  1.7536  1.8325  1.2973
  262MOL    H4237104   6.342   0.123   2.529  0.4310  1.7016 -0.5322
  262MOL    H4337105   6.452   7.761   2.490  1.4875  1.3148  0.9600
  262MOL    C4437106   6.446   0.045   2.226 -0.0152  0.1741  0.0030
  262MOL    C4537107   6.359   0.028   2.101 -0.3608 -0.1295  0.3547
  262MOL    O4637108   6.282   7.681   2.122  0.4617 -0.0267  0.0104
  262MOL    H4737109   6.512   0.130   2.216 -2.0001  1.7478 -0.0174
  262MOL    H4837110   6.506   7.725   2.238 -1.2469 -0.8507 -1.4549
  262MOL    H4937111   6.422   0.009   2.014 -1.3323  0.4321 -0.4813
  262MOL    H5037112   6.309   0.119   2.068  0.9475  1.0781  1.5899
  262MOL    C5137113   6.180   7.675   2.023 -0.0861  0.1465 -0.8970
  262MOL    C5237114   6.073   7.573   2.060 -0.7280 -0.2607 -0.2903
  262MOL    O5337115   6.136   7.442   2.083 -0.0898 -0.0134  0.6316
  262MOL    H5437116   6.136   0.004   2.020  2.0851  1.1894  0.2905
  262MOL    H5537117   6.223   7.646   1.927 -0.9589  0.7278 -1.4688
  262MOL    H5637118   5.995   7.556   1.986 -0.1310  0.2244 -1.0392
  262MOL    H5737119   6.026   7.587   2.157  0.1065  1.5065 -0.1204
  262MOL    C5837120   6.038   7.339   2.104 -0.3082 -0.2961  0.5452
  262MOL    C5937121   6.089   7.192   2.124 -0.1828 -0.1549  0.4737
  262MOL    O6037122   6.120   7.112   2.007  0.1362 -0.6995 -0.4672
  262MOL    H6137123   5.968   7.362   2.183 -0.0852  1.3698  0.2851
  262MOL    H6237124   5.972   7.344   2.018 -0.5705  0.7472  0.8093
  262MOL    H6337125   6.002   7.145   2.169 -0.9607  2.1733  1.5238
  262MOL    H6437126   6.147   7.173   2.215  0.7693 -0.8694 -0.2674
  262MOL    C6537127   6.241   7.150   1.942  0.3874 -0.4116 -0.2853
  262MOL    C6637128   6.277   7.034   1.852 -0.5985  0.2215  0.3760
  262MOL    O6737129   6.219   7.042   1.721  0.1216  0.3455  0.4637
  262MOL    H6837130   6.234   7.245   1.890  0.1163 -0.0793  0.3573
  262MOL    H6937131   6.316   7.168   2.019 -0.0932 -0.1625  0.1299
  262MOL    H7037132   6.258   6.937   1.897 -0.5128  0.4055  0.8051
  262MOL    H7137133   6.385   7.036   1.838 -0.8032 -2.3977 -2.0274
  262MOL    C7237134   6.254   6.926   1.645 -0.3347  0.0269 -0.1712
  262MOL    C7337135   6.189   6.913   1.508  0.3838 -0.3586 -0.0969
  262MOL    O7437136   6.264   6.998   1.425 -0.0954  0.0711 -0.2223
  262MOL    H7537137   6.361   6.901   1.646 -0.3855 -0.2189 -0.8953
  262MOL    H7637138   6.209   6.849   1.708  0.3724 -1.0824 -1.0062
  262MOL    H7737139   6.086   6.948   1.511  0.6606  0.5230 -0.5506
  262MOL    H7837140   6.195   6.809   1.478 -1.6699 -0.1750 -1.1760
  262MOL    C7937141   6.275   6.949   1.289 -0.3566 -0.0184  0.5796
  262MOL    C8037142   6.372   7.039   1.207  0.2196  0.3323 -0.3099
  262MOL    O8137143   6.367   6.977   1.085 -0.3770  0.3774  0.0516
  262MOL    H8237144   6.299   6.843   1.284 -0.5542 -0.0771  0.8526
  262MOL    H8337145   6.175   6.946   1.246 -0.0189 -1.8946 -0.1252
  262MOL    H8437146   6.469   7.045   1.255  1.2435  0.5996 -2.3964
  262MOL    H8537147   6.332   7.140   1.200  0.0381  0.1441 -2.1778
  262MOL    C8637148   6.455   7.032   0.987 -0.5964 -0.3241 -0.1275
  262MOL    C8737149   6.433   6.956   0.859  0.3178 -0.0008  0.3657
  262MOL    O8837150   6.306   6.975   0.807  0.0687  0.0615  0.5372
  262MOL    H8937151   6.436   7.139   0.974 -1.6198 -0.1906  2.1883
  262MOL    H9037152   6.553   7.017   1.033 -1.9387 -0.5605  2.8060
  262MOL    H9137153   6.454   6.853   0.887  0.2401 -0.4191 -1.0747
  262MOL    H9237154   6.509   6.990   0.788  0.1155  0.1941  0.2400
  262MOL    C9337155   6.275   6.878   0.708 -0.2857 -0.3520 -0.5553
  262MOL    C9437156   6.131   6.896   0.673 -0.1747 -0.9102 -0.2175
  262MOL    O9537157   6.120   7.023   0.598  0.1243 -0.2442 -0.5871
  262MOL    H9637158   6.328   6.907   0.617 -0.2822 -0.3801 -0.5616
  262MOL    H9737159   6.313   6.778   0.730  4.6267  1.0725 -1.9201
  262MOL    H9837160   6.055   6.890   0.751  0.9763  2.3703  1.2460
  262MOL    H9937161   6.108   6.812   0.608  2.7619 -2.1336  0.2304
  262MOL   C10037162   5.996   7.045   0.528  0.9335  0.1752  0.4063
  262MOL   C10137163   6.024   7.021   0.386 -0.4991 -0.0148  0.1640
  262MOL   O10237164   6.035   6.880   0.381  0.0902  1.0066  0.0347
  262MOL   H10337165   5.920   6.975   0.562  1.0422  0.0766  0.4493
  262MOL   H10437166   5.967   7.147   0.552  1.3671  0.5302 -0.5298
  262MOL   H10537167   6.110   7.071   0.343 -0.5317  0.1355  0.2745
  262MOL   H10637168   5.950   7.056   0.314 -0.5347 -1.8083 -0.7080
  262MOL   C10737169   6.077   6.822   0.262 -0.2264 -0.3088 -0.0784
  262MOL   C10837170   6.089   6.676   0.281  0.6501 -0.0059 -0.3152
  262MOL   O10937171   6.183   6.646   0.384  1.0112 -0.7010  0.3337
  262MOL   H11037172   6.014   6.842   0.175  0.2599  0.2148 -0.3143
  262MOL   H11137173   6.177   6.863   0.244  1.0427 -3.5475 -0.7284
  262MOL   H11237174   6.119   6.623   0.190 -0.2523 -0.0170 -0.6084
  262MOL   H11337175   5.987   6.638   0.294  1.1830 -0.8585  1.5499
  262MOL   C11437176   6.181   6.502   0.421 -0.0267 -0.0434 -0.8492
  262MOL   C11537177   6.261   6.431   0.304 -0.0246 -0.0640 -0.1637
  262MOL   O11637178   6.158   6.383   0.218  0.7301  0.1781 -0.1323
  262MOL   H11737179   6.225   6.496   0.521 -0.3089 -1.3108 -0.7980
  262MOL   H11837180   6.080   6.465   0.436  0.4220 -1.9636 -2.2715
  262MOL   H11937181   6.324   6.355   0.350  0.1061 -0.2956 -0.7309
  262MOL   H12037182   6.328   6.492   0.244  1.1597 -2.5202 -1.4184
  262MOL   C12137183   6.196   6.276   0.142 -0.5856 -0.0207 -0.0939
  262MOL   C12237184   6.094   6.244   0.033 -0.3119 -0.6268  0.2361
  262MOL   O12337185   6.154   6.128   7.743  0.2565  0.7455  0.4139
  262MOL   H12437186   6.290   6.306   0.097 -0.3588 -0.0179  0.3893
  262MOL   H12537187   6.202   6.191   0.209  1.1791  0.5829  0.5314
  262MOL   H12637188   6.099   6.333   7.741 -0.1534  0.4637  1.7476
  262MOL   H12737189   5.992   6.229   0.069 -0.3266 -2.4447 -0.5148
  262MOL   C12837190   6.066   6.074   7.653 -0.0164  0.2747 -0.8868
  262MOL   C12937191   5.967   5.974   7.719  0.6246 -0.6029  0.0059
  262MOL   O13037192   6.009   5.839   7.745  0.0621 -0.3773  0.0329
  262MOL   H13137193   6.014   6.151   7.596 -0.8834  0.1662 -0.2524
  262MOL   H13237194   6.114   6.013   7.577  0.3910 -0.0764 -0.3481
  262MOL   H13337195   5.880   5.970   7.654  0.0350 -0.6636  0.7995
  262MOL   H13437196   5.923   6.014   0.039  0.4615  0.2019 -0.4268
  262MOL   C13537197   6.087   5.835   0.095 -0.1042 -0.4864  1.1024
  262MOL   C13637198   6.131   5.687   0.115 -1.3350 -0.2419  0.0600
  262MOL   O13737199   6.041   5.620   0.202  0.0843 -0.0309 -0.1197
  262MOL   H13837200   6.175   5.896   0.080 -0.6699  0.4194  1.3986
  262MOL   H13937201   6.030   5.876   0.179 -0.6625 -0.5224  0.7430
  262MOL   H14037202   6.234   5.683   0.149 -1.7793 -0.9262  1.3605
  262MOL   H14137203   6.131   5.639   0.017 -0.0262  1.3026 -0.7292
  262MOL   H14237204   5.954   5.645   0.173 -0.2336  1.8115  2.2930
  263MOL     C137205   2.526   4.573   4.222 -0.4419  0.1046 -0.4413
  263MOL     C237206   2.623   4.455   4.245  0.5818  0.0862 -1.1371
  263MOL     O337207   2.672   4.478   4.372  0.0564  0.3033  0.3507
  263MOL     H437208   2.514   4.590   4.115  0.4052  1.6778 -0.2985
  263MOL     H537209   2.562   4.664   4.269 -0.4365  0.1072 -0.4509
  263MOL     H637210   2.714   4.446   4.186  1.9265  1.3303  0.6743
  263MOL     H737211   2.568   4.362   4.258 -0.6274  1.3964  4.4991
  263MOL     H837212   2.421   4.561   4.251 -0.7105 -1.5887 -1.9800
  263MOL     C937213   2.761   4.380   4.425 -0.1861  0.2085 -0.5608
  263MOL    C1037214   2.783   4.397   4.575 -0.3119  0.1910  0.1601
  263MOL    O1137215   2.692   4.306   4.642  0.0091 -0.0420 -0.3771
  263MOL    H1237216   2.702   4.291   4.402  1.6828 -1.1959  0.0064
  263MOL    H1337217   2.850   4.368   4.362 -0.4291 -0.4130 -0.7897
  263MOL    H1437218   2.764   4.497   4.616 -0.9742 -0.4874  1.5581
  263MOL    H1537219   2.885   4.370   4.604 -0.0147  0.5099 -0.5892
  263MOL    C1637220   2.709   4.312   4.784  0.3961  0.6854  0.4765
  263MOL    C1737221   2.648   4.190   4.860 -0.6655  0.1895  0.0960
  263MOL    O1837222   2.736   4.086   4.852  0.3202 -0.0112 -0.2569
  263MOL    H1937223   2.816   4.318   4.804  0.6078  3.8738 -1.3958
  263MOL    H2037224   2.667   4.403   4.828 -0.5805  0.2332  0.4825
  263MOL    H2137225   2.546   4.159   4.840 -0.1777 -1.2261 -0.2703
  263MOL    H2237226   2.647   4.220   4.965  1.0534  0.0249  0.1817
  263MOL    C2337227   2.686   3.962   4.898 -0.1239  0.5545  0.0301
  263MOL    C2437228   2.791   3.857   4.903 -0.1107  0.1943  0.3180
  263MOL    O2537229   2.839   3.849   5.036  0.2216 -0.6380  1.0448
  263MOL    H2637230   2.631   3.970   4.992 -0.2060 -1.1368  0.1357
  263MOL    H2737231   2.616   3.924   4.822 -1.3005  0.7141  1.0203
  263MOL    H2837232   2.873   3.875   4.834  1.3374 -0.5712  1.8063
  263MOL    H2937233   2.743   3.765   4.869  0.5767  0.7867 -2.3511
  263MOL    C3037234   2.933   3.741   5.038  0.0988 -0.2218  0.1360
  263MOL    C3137235   2.916   3.651   5.161  0.0387  0.3192  0.3059
  263MOL    O3237236   2.798   3.571   5.162  0.2107 -0.2040 -0.2775
  263MOL    H3337237   2.933   3.675   4.951  2.2176 -0.0221 -0.0429
  263MOL    H3437238   3.032   3.787   5.040 -0.0297  0.0138  1.8688
  263MOL    H3537239   2.914   3.706   5.255 -2.6333 -0.1866  0.5681
  263MOL    H3637240   3.002   3.583   5.160 -0.2344 -0.0082 -1.1767
  263MOL    C3737241   2.800   3.478   5.270 -0.0642  0.1357 -0.1565
  263MOL    C3837242   2.684   3.376   5.290  0.4214  0.0934 -0.6067
  263MOL    O3937243   2.714   3.251   5.225 -0.0184 -0.0269  0.3419
  263MOL    H4037244   2.891   3.423   5.246  1.0999  0.6513  2.7786
  263MOL    H4137245   2.825   3.534   5.360  0.1420  0.0532 -0.1610
  263MOL    H4237246   2.586   3.404   5.252  0.3858  0.6393 -0.1203
  263MOL    H4337247   2.672   3.355   5.396 -0.6887  0.2072 -0.7009
  263MOL    C4437248   2.637   3.141   5.270 -0.1803  0.6331 -0.4015
  263MOL    C4537249   2.511   3.121   5.183  0.8730 -0.2246 -0.2729
  263MOL    O4637250   2.558   3.095   5.050  0.2212 -0.3357 -0.2340
  263MOL    H4737251   2.696   3.049   5.265 -0.8000  0.2464 -0.5638
  263MOL    H4837252   2.633   3.145   5.379  2.3266 -1.0032 -0.1947
  263MOL    H4937253   2.447   3.208   5.193 -1.3419 -1.4421 -3.1424
  263MOL    H5037254   2.446   3.037   5.209 -0.9139  0.5604 -2.1115
  263MOL    C5137255   2.454   3.092   4.954 -0.1044 -0.6683  0.4672
  263MOL    C5237256   2.450   2.952   4.902  0.4452  0.2648 -0.4981
  263MOL    O5337257   2.416   2.865   5.011  0.4089  0.1675 -0.5617
  263MOL    H5437258   2.354   3.109   4.995 -0.3311 -0.6456 -0.0874
  263MOL    H5537259   2.479   3.161   4.873  0.1146  1.0340  1.9559
  263MOL    H5637260   2.551   2.936   4.863  1.3206 -0.6680  2.0410
  263MOL    H5737261   2.383   2.936   4.818  1.6553 -1.2378 -1.2183
  263MOL    C5837262   2.294   2.799   5.005 -0.2867 -0.2881  0.2281
  263MOL    C5937263   2.183   2.879   5.062 -1.0384  0.0216  0.8971
  263MOL    O6037264   2.191   2.901   5.204  0.2390  0.6006 -0.2112
  263MOL    H6137265   2.274   2.776   4.901  1.9333 -1.7557  0.0891
  263MOL    H6237266   2.307   2.705   5.059 -1.3424 -0.8229 -0.4361
  263MOL    H6337267   2.095   2.817   5.045  1.4388 -3.2272 -0.6554
  263MOL    H6437268   2.177   2.974   5.010  1.3319 -0.1905  0.1651
  263MOL    C6537269   2.097   2.987   5.261  0.6876 -0.1365  0.6308
  263MOL    C6637270   2.121   3.128   5.227  0.5220  0.0193 -0.7948
  263MOL    O6737271   2.060   3.168   5.107  0.2014  0.1251 -0.2995
  263MOL    H6837272   1.997   2.946   5.243  0.7132 -0.2462  0.7389
  263MOL    H6937273   2.111   2.989   5.369  0.1808  0.4345  0.6895
  263MOL    H7037274   2.228   3.147   5.218  0.6268 -0.7251 -1.1887
  263MOL    H7137275   2.088   3.192   5.309  2.3675  1.4266 -1.1237
  263MOL    C7237276   2.058   3.309   5.091 -0.1564  0.1601  0.1461
  263MOL    C7337277   1.994   3.339   4.959  0.3847  0.3383 -0.1016
  263MOL    O7437278   2.082   3.310   4.842  0.1152 -0.4591  0.4603
  263MOL    H7537279   1.984   3.353   5.157  1.3346 -1.5628  3.1167
  263MOL    H7637280   2.153   3.359   5.112 -0.4322  0.0058  1.7800
  263MOL    H7737281   1.993   3.447   4.977  0.8856  0.2368  0.5805
  263MOL    H7837282   1.900   3.285   4.962  1.7493 -2.1448 -0.5598
  263MOL    C7937283   2.092   3.179   4.803 -0.1365 -0.1006  0.7023
  263MOL    C8037284   2.173   3.185   4.669  0.1603  0.0050  0.5475
  263MOL    O8137285   2.182   3.058   4.605 -0.2362  0.3813 -0.1609
  263MOL    H8237286   2.151   3.117   4.871 -0.9873  0.0389  1.5705
  263MOL    H8337287   1.992   3.137   4.792  0.1388 -0.4700 -0.4859
  263MOL    H8437288   2.269   3.226   4.699 -0.0580 -0.4032  1.8349
  263MOL    H8537289   2.124   3.254   4.601 -0.6652 -1.6407 -0.5632
  263MOL    C8637290   2.306   3.047   4.536  0.1910 -0.0465  0.2577
  263MOL    C8737291   2.314   2.917   4.454 -0.7252  0.3770  0.1222
  263MOL    O8837292   2.357   2.812   4.543  0.2308  0.0923 -0.0264
  263MOL    H8937293   2.322   3.134   4.473 -2.3597 -0.4935 -1.0711
  263MOL    H9037294   2.393   3.042   4.603  0.6714  2.2027 -0.1685
  263MOL    H9137295   2.374   2.935   4.365 -0.5696  0.7779  0.3108
  263MOL    H9237296   2.211   2.895   4.423 -0.9589  1.0329  0.4397
  263MOL    C9337297   2.337   2.679   4.494 -0.2090  0.0195  0.1794
  263MOL    C9437298   2.420   2.648   4.364  0.7662  0.0819  0.4903
  263MOL    O9537299   2.331   2.663   4.255 -0.0493 -0.4849 -0.1948
  263MOL    H9637300   2.368   2.616   4.578  0.4445  0.8864  0.5973
  263MOL    H9737301   2.233   2.648   4.492  0.2148 -1.4429 -0.4427
  263MOL    H9837302   2.459   2.546   4.368 -0.9096 -0.5277  2.1571
  263MOL    H9937303   2.499   2.722   4.349 -0.9298  1.6785 -0.7432
  263MOL   C10037304   2.397   2.636   4.128 -0.4912 -0.0368  0.4062
  263MOL   C10137305   2.298   2.630   4.014 -0.6044  0.8408  0.1982
  263MOL   O10237306   2.219   2.506   4.020 -0.8367 -0.4526  0.3504
  263MOL   H10337307   2.462   2.722   4.112  1.2276 -1.5755 -1.1905
  263MOL   H10437308   2.457   2.546   4.137 -1.5645 -0.8989 -0.7931
  263MOL   H10537309   2.353   2.630   3.920 -1.9216  0.2215 -0.5908
  263MOL   H10637310   2.226   2.712   4.016  0.5779  1.8790  0.6797
  263MOL   C10737311   2.180   2.461   3.885 -0.5732 -0.0354 -0.2861
  263MOL   C10837312   2.080   2.352   3.897 -0.0473 -0.6868  0.0264
  263MOL   O10937313   2.138   2.247   3.984 -0.4947 -0.3076  0.3625
  263MOL   H11037314   2.132   2.542   3.830 -2.0932  0.4725  1.7329
  263MOL   H11137315   2.266   2.427   3.827  0.2910 -1.5360  1.8274
  263MOL   H11237316   2.050   2.311   3.800 -1.1007  2.0276 -0.8454
  263MOL   H11337317   1.987   2.388   3.939 -1.5380 -0.7891 -3.0099
  263MOL   C11437318   2.089   2.116   3.970  0.1578 -0.3589  0.5616
  263MOL   C11537319   2.143   2.022   4.074 -0.1728 -1.1758 -0.8335
  263MOL   O11637320   2.284   2.038   4.075 -0.5012  0.7702  0.0040
  263MOL   H11737321   1.980   2.120   3.962  0.0451 -0.3441  1.8927
  263MOL   H11837322   2.124   2.083   3.872  1.4371  1.3135  0.4493
  263MOL   H11937323   2.115   1.917   4.057 -0.2218 -1.4881  1.1064
  263MOL   H12037324   2.107   2.046   4.174  0.8460 -1.4913 -0.3783
  263MOL   C12137325   2.356   1.942   4.159 -0.4292 -0.2983  0.6672
  263MOL   C12237326   2.415   1.833   4.068 -0.1706  0.0712  0.6016
  263MOL   O12337327   2.313   1.740   4.033  0.4101  0.0320  0.1831
  263MOL   H12437328   2.443   1.990   4.203 -1.0135 -0.0595  1.5694
  263MOL   H12537329   2.301   1.889   4.237 -1.7797 -1.8984 -1.3155
  263MOL   H12637330   2.495   1.772   4.109 -1.0637 -1.3924  0.2093
  263MOL   H12737331   2.454   1.885   3.980 -0.6288 -0.3779  0.1258
  263MOL   C12837332   2.305   1.620   4.117  0.1364  0.2534 -0.3134
  263MOL   C12937333   2.195   1.522   4.070 -0.9600  0.1879 -0.1083
  263MOL   O13037334   2.241   1.433   3.963  0.1880  0.0031  0.9182
  263MOL   H13137335   2.404   1.576   4.131 -0.3915 -0.9445 -0.3235
  263MOL   H13237336   2.274   1.658   4.214  0.7587 -0.8065  0.3124
  263MOL   H13337337   2.107   1.581   4.043 -1.4789 -0.7803 -0.5620
  263MOL   H13437338   2.163   1.458   4.151 -0.3095 -0.7516 -0.5796
  263MOL   C13537339   2.132   1.353   3.918 -0.3511  0.6416  0.1892
  263MOL   C13637340   2.149   1.286   3.778 -0.0028 -0.7304 -0.3694
  263MOL   O13737341   2.097   1.378   3.687  0.1042  0.0336 -0.1472
  263MOL   H13837342   2.110   1.275   3.991  0.7291  0.5912  0.4643
  263MOL   H13937343   2.033   1.399   3.921 -1.5071 -1.8680  1.9424
  263MOL   H14037344   2.085   1.200   3.761  0.5009 -0.8075 -1.9882
  263MOL   H14137345   2.252   1.252   3.766 -0.0494  0.1236 -3.6408
  263MOL   H14237346   2.170   1.430   3.657 -0.9351  1.2175 -0.6952
  264MOL     C137347   3.326   6.415   0.632 -0.0159 -0.4272 -0.0478
  264MOL     C237348   3.358   6.405   0.788 -0.0842  0.0650  0.6577
  264MOL     O337349   3.453   6.501   0.796  0.0924 -0.3902 -0.8951
  264MOL     H437350   3.416   6.396   0.572  0.3389 -1.2167  0.7197
  264MOL     H537351   3.275   6.510   0.616  0.3369 -0.1427  0.5050
  264MOL     H637352   3.393   6.303   0.806 -1.0897 -0.7730 -1.9282
  264MOL     H737353   3.270   6.424   0.850  0.1663  0.4013  0.9111
  264MOL     H837354   3.250   6.344   0.601  0.2554 -0.9820  0.5685
  264MOL     C937355   3.533   6.503   0.912  0.5881 -0.2848 -0.2956
  264MOL    C1037356   3.636   6.615   0.903 -0.2457  0.6504  0.0093
  264MOL    O1137357   3.576   6.721   0.975  0.6613 -0.1768 -0.0603
  264MOL    H1237358   3.472   6.508   1.002 -1.0874 -1.1067 -1.3565
  264MOL    H1337359   3.581   6.405   0.918 -1.5217 -1.4666 -1.9963
  264MOL    H1437360   3.672   6.628   0.801  0.4130  0.2494  0.1880
  264MOL    H1537361   3.723   6.580   0.959 -1.9677  0.2331  2.5268
  264MOL    C1637362   3.658   6.836   0.973 -0.2444 -0.3729  0.5517
  264MOL    C1737363   3.580   6.936   1.056 -0.6446 -0.9605  0.7546
  264MOL    O1837364   3.570   6.901   1.193  0.2652  0.2824  0.6270
  264MOL    H1937365   3.760   6.827   1.010 -0.0296 -2.4509 -0.5001
  264MOL    H2037366   3.657   6.853   0.866  1.1926 -2.0515  0.2522
  264MOL    H2137367   3.479   6.948   1.018 -0.2255 -0.4246 -0.1996
  264MOL    H2237368   3.626   7.035   1.055 -0.6244 -0.9698  0.8335
  264MOL    C2337369   3.491   6.991   1.276 -0.0787 -0.5058  0.0280
  264MOL    C2437370   3.505   6.960   1.425 -0.0280 -0.3844 -0.1906
  264MOL    O2537371   3.642   6.961   1.462 -0.0256 -0.3585  0.1524
  264MOL    H2637372   3.538   7.088   1.257 -0.0731 -0.9279 -2.3066
  264MOL    H2737373   3.387   7.010   1.251 -0.4883  0.5321  2.4015
  264MOL    H2837374   3.469   6.859   1.444 -1.1808 -0.1453 -1.0799
  264MOL    H2937375   3.455   7.032   1.490 -0.2816 -0.9131  0.1957
  264MOL    C3037376   3.670   6.937   1.600 -0.3562  0.1372  0.2328
  264MOL    C3137377   3.813   6.985   1.630  0.4072  0.7713  0.4693
  264MOL    O3237378   3.923   6.910   1.580  0.2479  0.2193 -0.0755
  264MOL    H3337379   3.608   6.989   1.672  1.7774  1.5762  1.0697
  264MOL    H3437380   3.664   6.830   1.621 -3.2541  0.7183  2.5836
  264MOL    H3537381   3.843   6.995   1.734  1.5922  0.3290  0.1803
  264MOL    H3637382   3.820   7.090   1.602  2.2227  0.4266 -0.4828
  264MOL    C3737383   3.928   6.907   1.438 -0.1988  0.0442  0.0547
  264MOL    C3837384   4.067   6.893   1.404  0.4885  0.1392 -0.8200
  264MOL    O3937385   4.135   7.016   1.380  0.5576 -0.4824  0.2370
  264MOL    H4037386   3.875   6.823   1.394  1.4948 -0.7646 -0.5244
  264MOL    H4137387   3.890   6.992   1.382  0.4154  1.1987  1.3617
  264MOL    H4237388   4.094   6.840   1.312  1.7426  0.9395 -0.9178
  264MOL    H4337389   4.108   6.836   1.487 -1.3606  1.2221  0.8691
  264MOL    C4437390   4.278   7.007   1.397  0.1611 -0.2343  0.3562
  264MOL    C4537391   4.348   7.014   1.258  0.2672  0.2960 -0.1616
  264MOL    O4637392   4.273   6.934   1.166 -0.3870 -0.5112  0.1293
  264MOL    H4737393   4.338   7.081   1.451 -1.6370  1.8274 -0.3975
  264MOL    H4837394   4.315   6.915   1.441  1.0214  0.4825  1.1506
  264MOL    H4937395   4.451   6.983   1.274  0.2225  0.3163  0.1712
  264MOL    H5037396   4.357   7.113   1.214  0.2871  0.2875 -0.1769
  264MOL    C5137397   4.363   6.889   1.058  0.1400  0.3299  0.1260
  264MOL    C5237398   4.263   6.828   0.953 -0.4802 -0.1978 -0.4243
  264MOL    O5337399   4.201   6.719   1.013 -1.0099  0.0416  0.5940
  264MOL    H5437400   4.414   6.970   1.007 -1.6361  1.7869  0.5858
  264MOL    H5537401   4.433   6.819   1.104 -0.4926  0.6965  1.6910
  264MOL    H5637402   4.305   6.799   0.857 -2.5424 -0.3778 -1.3095
  264MOL    H5737403   4.188   6.903   0.925 -1.6973 -1.1179  0.3045
  264MOL    C5837404   4.102   6.658   0.922  0.0506 -1.5913  0.4872
  264MOL    C5937405   4.048   6.518   0.967 -0.1120  0.2662  1.0325
  264MOL    O6037406   3.935   6.518   1.056 -0.0453 -0.8338 -0.4699
  264MOL    H6137407   4.013   6.719   0.908  1.6006  0.9072  1.2003
  264MOL    H6237408   4.144   6.650   0.821  4.7317  1.1071  2.0646
  264MOL    H6337409   4.133   6.463   1.007  1.2742  0.3324 -1.6786
  264MOL    H6437410   4.016   6.468   0.875  0.7408  0.7578  0.4693
  264MOL    C6537411   3.965   6.571   1.182  0.8479 -0.0434  0.4638
  264MOL    C6637412   3.848   6.543   1.278 -0.1260 -1.0074 -0.0469
  264MOL    O6737413   3.845   6.401   1.301 -0.5561  0.2362 -0.0337
  264MOL    H6837414   4.057   6.520   1.212 -0.2132 -2.8441 -0.9361
  264MOL    H6937415   3.979   6.679   1.176 -2.4128  0.2628 -3.5627
  264MOL    H7037416   3.752   6.565   1.232 -0.0490 -0.8726 -0.1439
  264MOL    H7137417   3.871   6.601   1.367 -1.6057  0.2495 -0.4598
  264MOL    C7237418   3.748   6.359   1.406 -0.1981 -0.1683 -0.3990
  264MOL    C7337419   3.729   6.456   1.519 -0.5163  0.0004 -0.0622
  264MOL    O7437420   3.856   6.476   1.584  0.4350 -0.3798  0.3177
  264MOL    H7537421   3.644   6.353   1.371 -0.3685  0.1130  0.0549
  264MOL    H7637422   3.774   6.257   1.432 -1.2172 -0.7705 -1.6507
  264MOL    H7737423   3.664   6.409   1.593 -1.5033 -0.8652 -1.4409
  264MOL    H7837424   3.687   6.551   1.484  0.5987  1.2169  1.8486
  264MOL    C7937425   3.857   6.592   1.659  0.2030  0.8693  0.7644
  264MOL    C8037426   3.749   6.588   1.776 -0.1270  0.4359  0.4211
  264MOL    O8137427   3.610   6.597   1.738 -0.1323 -0.1238  0.0562
  264MOL    H8237428   3.956   6.587   1.705  0.6298  0.0653 -0.2283
  264MOL    H8337429   3.837   6.680   1.599  1.5049  0.7183  0.0935
  264MOL    H8437430   3.778   6.676   1.833  1.4004  0.2390 -0.0518
  264MOL    H8537431   3.768   6.500   1.838  0.0469  1.0528  1.2442
  264MOL    C8637432   3.519   6.574   1.843  0.4474  0.5868 -0.6600
  264MOL    C8737433   3.370   6.569   1.804  0.6753  1.1745 -0.2363
  264MOL    O8837434   3.304   6.688   1.827 -0.2285 -0.5796  0.0445
  264MOL    H8937435   3.539   6.480   1.896  2.6716  0.9709 -0.7570
  264MOL    H9037436   3.541   6.654   1.915  0.5123  0.1407 -0.1768
  264MOL    H9137437   3.325   6.504   1.879 -1.2914  1.2617 -1.3184
  264MOL    H9237438   3.342   6.531   1.706 -1.0885  0.0247  0.6937
  264MOL    C9337439   3.323   6.774   1.709 -0.1051 -0.3132  0.0309
  264MOL    C9437440   3.232   6.885   1.727  0.4623 -0.0324  0.2205
  264MOL    O9537441   3.282   6.972   1.830  0.4372  0.1434 -0.3337
  264MOL    H9637442   3.426   6.806   1.695 -0.7235  2.0195  0.6035
  264MOL    H9737443   3.299   6.720   1.617  1.2729 -1.0971  0.1187
  264MOL    H9837444   3.129   6.856   1.746  0.7888 -1.4016 -0.0449
  264MOL    H9937445   3.226   6.923   1.625  0.8256  0.4896  0.3892
  264MOL   C10037446   3.208   7.093   1.838  0.3646  0.0087 -0.2602
  264MOL   C10137447   3.265   7.203   1.932 -0.1265  0.9101 -0.6086
  264MOL   O10237448   3.403   7.208   1.903 -0.5226 -0.2522  0.2045
  264MOL   H10337449   3.203   7.138   1.739  0.2893  0.1618 -0.1890
  264MOL   H10437450   3.105   7.092   1.876  1.0551 -1.0794  1.6607
  264MOL   H10537451   3.246   7.181   2.037  0.4068 -0.2202 -0.7414
  264MOL   H10637452   3.230   7.303   1.907 -0.0332  0.5219 -2.3472
  264MOL   C10737453   3.488   7.267   2.000  0.0118 -0.5225  0.6129
  264MOL   C10837454   3.632   7.221   1.998  0.3701 -0.1420  0.8121
  264MOL   O10937455   3.657   7.117   2.089  0.5148 -0.1399 -0.1539
  264MOL   H11037456   3.484   7.375   1.988 -2.3054 -0.5766  0.6376
  264MOL   H11137457   3.456   7.244   2.102  0.7299 -1.4400  0.6431
  264MOL   H11237458   3.676   7.311   2.040 -0.0616 -0.3111  1.6437
  264MOL   H11337459   3.671   7.212   1.896 -1.5807 -0.2333  0.0373
  264MOL   C11437460   3.772   7.044   2.050  0.1512 -0.8998 -0.9460
  264MOL   C11537461   3.893   7.138   2.035 -0.4063  1.4199  0.2572
  264MOL   O11637462   3.921   7.157   1.896 -0.1397 -0.5724  0.3555
  264MOL   H11737463   3.798   6.967   2.122 -2.1314  0.4015  1.3625
  264MOL   H11837464   3.760   6.974   1.967  1.7158 -2.7196  0.3489
  264MOL   H11937465   3.983   7.091   2.075  0.8495  3.6985  0.1890
  264MOL   H12037466   3.885   7.233   2.088 -3.0195  1.4147 -0.1003
  264MOL   C12137467   4.006   7.268   1.873  0.1881 -0.4152 -0.4229
  264MOL   C12237468   4.035   7.296   1.719 -0.2316  0.2385 -0.9443
  264MOL   O12337469   3.908   7.340   1.670 -0.2548  0.5009 -0.0561
  264MOL   H12437470   3.951   7.355   1.908  0.9822 -0.4251  0.8835
  264MOL   H12537471   4.097   7.260   1.931 -0.0529  1.4778  0.2355
  264MOL   H12637472   4.058   7.201   1.671  0.5332 -0.3847  0.6169
  264MOL   H12737473   4.116   7.369   1.713  0.1541  0.0912  1.7136
  264MOL   C12837474   3.910   7.390   1.539  0.2638 -0.0432  0.7021
  264MOL   C12937475   3.766   7.399   1.483  0.9470  0.2670  1.0051
  264MOL   O13037476   3.668   7.475   1.555  0.7650 -0.0295 -0.2763
  264MOL   H13137477   3.964   7.485   1.536 -2.1945  1.3283 -1.5287
  264MOL   H13237478   3.963   7.316   1.480  0.2492  1.4126 -1.1801
  264MOL   H13337479   3.725   7.303   1.452  2.5955  0.6477 -2.5804
  264MOL   H13437480   3.771   7.448   1.386 -1.2844 -1.4512 -0.0114
  264MOL   C13537481   3.593   7.404   1.653 -0.1092  0.4287 -0.1297
  264MOL   C13637482   3.484   7.316   1.595  0.8578  0.2152  0.2837
  264MOL   O13737483   3.369   7.403   1.569 -0.0213  0.5476  0.4477
  264MOL   H13837484   3.661   7.327   1.691 -1.7774 -0.8024  0.4146
  264MOL   H13937485   3.560   7.470   1.732 -1.9096  1.4423 -1.6826
  264MOL   H14037486   3.450   7.232   1.655  0.8040  0.5532  0.7283
  264MOL   H14137487   3.511   7.276   1.497  1.9468  2.4973 -0.3844
  264MOL   H14237488   3.400   7.470   1.511  1.0166 -1.8245 -1.8261
  265MOL     C137489   2.179   3.393   0.272  0.8677 -0.1646  0.3611
  265MOL     C237490   2.255   3.304   0.375  0.2252 -0.7665  0.9336
  265MOL     O337491   2.361   3.233   0.329  0.2543 -0.1043  0.4736
  265MOL     H437492   2.103   3.457   0.319  0.3136  0.0532 -0.8216
  265MOL     H537493   2.134   3.320   0.204 -0.5780  1.5302 -0.5534
  265MOL     H637494   2.177   3.240   0.418 -2.2068  0.7941 -0.9940
  265MOL     H737495   2.288   3.367   0.458  0.1338  1.5163 -0.7187
  265MOL     H837496   2.240   3.470   0.225  0.6755  1.3917  2.5460
  265MOL     C937497   2.411   3.140   0.421 -0.5245 -0.4799  0.1088
  265MOL    C1037498   2.524   3.058   0.351 -0.5447 -0.2525 -0.2469
  265MOL    O1137499   2.454   2.969   0.266  0.0634  0.0491  0.3972
  265MOL    H1237500   2.457   3.212   0.488  0.1070  0.8716 -1.7401
  265MOL    H1337501   2.331   3.098   0.482  0.9127 -2.9796  0.3515
  265MOL    H1437502   2.588   3.011   0.426  0.1234  2.2822  0.8442
  265MOL    H1537503   2.591   3.122   0.293 -0.8077 -0.5178 -0.8464
  265MOL    C1637504   2.540   2.902   0.180  0.2102  0.3626 -0.4364
  265MOL    C1737505   2.462   2.825   0.075  0.0373 -0.5675 -0.0570
  265MOL    O1837506   2.397   2.712   0.121  0.4434 -0.1791 -0.2948
  265MOL    H1937507   2.603   2.975   0.129 -0.7087  1.5124  0.0636
  265MOL    H2037508   2.609   2.838   0.236  0.8445  0.6974 -0.8336
  265MOL    H2137509   2.539   2.798   0.003  0.4740 -1.1377  0.6197
  265MOL    H2237510   2.395   2.896   0.026  0.6897 -1.2782 -1.9923
  265MOL    C2337511   2.282   2.725   0.214  0.5364  0.1174  0.0400
  265MOL    C2437512   2.202   2.596   0.229  0.8115 -0.1189  0.4348
  265MOL    O2537513   2.097   2.606   0.131 -0.6153 -0.6428  0.1697
  265MOL    H2637514   2.320   2.742   0.315 -1.3584  1.1121  0.6071
  265MOL    H2737515   2.224   2.815   0.191  2.5242  1.3788 -0.1206
  265MOL    H2837516   2.165   2.600   0.331  2.4758 -0.4384  1.0775
  265MOL    H2937517   2.255   2.501   0.217 -0.5414 -0.8494  0.1678
  265MOL    C3037518   1.990   2.512   0.138  0.5773  0.2521  0.2283
  265MOL    C3137519   1.891   2.528   0.024 -0.1482 -0.6629  0.5076
  265MOL    O3237520   1.957   2.465   7.682 -0.1326  0.2408 -0.0546
  265MOL    H3337521   2.021   2.409   0.121 -0.7264 -0.4253  1.7631
  265MOL    H3437522   1.938   2.519   0.234  2.1058 -0.8906  1.1484
  265MOL    H3537523   1.875   2.632   7.768  1.1542 -1.1247 -2.2250
  265MOL    H3637524   1.797   2.480   0.051 -1.2657  0.6970 -0.8955
  265MOL    C3737525   1.886   2.480   7.553 -0.7534  0.4756  0.1608
  265MOL    C3837526   1.952   2.383   7.454  0.2406  0.1766  0.1863
  265MOL    O3937527   1.904   2.251   7.466 -0.0021 -0.0170  0.1830
  265MOL    H4037528   1.777   2.470   7.545 -0.7548  0.9256 -0.4578
  265MOL    H4137529   1.912   2.580   7.518  0.5850 -0.0383 -0.3169
  265MOL    H4237530   2.059   2.384   7.477  0.5289  0.2504 -1.1027
  265MOL    H4337531   1.957   2.407   7.348  2.1634  0.9179  0.4277
  265MOL    C4437532   1.967   2.153   7.390  0.3228 -0.3441 -0.3683
  265MOL    C4537533   1.898   2.016   7.401 -0.1960 -0.1447 -0.3492
  265MOL    O4637534   1.801   1.985   7.295  0.2562  0.6942 -0.5104
  265MOL    H4737535   1.979   2.172   7.284  2.1885 -2.9291 -0.6752
  265MOL    H4837536   2.069   2.145   7.429  1.1505  2.2767 -1.8797
  265MOL    H4937537   1.860   1.995   7.501  0.5192  1.2495  0.2319
  265MOL    H5037538   1.974   1.938   7.404  0.8474  0.9054  1.9097
  265MOL    C5137539   1.671   2.040   7.332  0.1336  0.2439  0.2803
  265MOL    C5237540   1.568   1.992   7.231  0.0583 -0.1043  0.1380
  265MOL    O5337541   1.582   2.065   7.109  0.1164 -0.2900 -0.3153
  265MOL    H5437542   1.641   2.001   7.429 -0.6554 -0.1321 -0.1091
  265MOL    H5537543   1.678   2.148   7.338 -0.6605  0.4042 -1.5004
  265MOL    H5637544   1.470   2.010   7.274  0.9500  0.5308  1.9318
  265MOL    H5737545   1.564   1.885   7.209 -2.1846  0.0466 -0.2986
  265MOL    C5837546   1.495   2.031   6.997 -0.1249  0.6704  0.1642
  265MOL    C5937547   1.482   2.143   6.901  0.4301  0.2214  0.7881
  265MOL    O6037548   1.595   2.153   6.815 -0.1493 -0.2510 -0.2037
  265MOL    H6137549   1.516   1.930   6.961 -1.0392  1.4955 -2.7874
  265MOL    H6237550   1.391   2.013   7.026 -0.2182 -3.1239 -2.2099
  265MOL    H6337551   1.455   2.239   6.945  0.0392  0.3206  0.3269
  265MOL    H6437552   1.408   2.114   6.826  1.1070  0.2141  0.1175
  265MOL    C6537553   1.587   2.254   6.714 -0.4739 -0.4209 -0.1972
  265MOL    C6637554   1.724   2.265   6.643  0.0170 -0.4111  0.1584
  265MOL    O6737555   1.725   2.374   6.541 -0.1598 -0.0516  0.4579
  265MOL    H6837556   1.509   2.239   6.639  1.0780 -0.2289 -1.8826
  265MOL    H6937557   1.562   2.346   6.765 -0.7778  0.5864 -2.1282
  265MOL    H7037558   1.748   2.170   6.597  2.6452  0.5718 -0.5925
  265MOL    H7137559   1.801   2.294   6.715  0.1896 -0.7752  0.1223
  265MOL    C7237560   1.814   2.341   6.432 -1.2545  0.2183 -0.5876
  265MOL    C7337561   1.871   2.460   6.354 -0.8991 -0.2158  0.0712
  265MOL    O7437562   1.980   2.525   6.420 -0.3914 -0.1923  0.7923
  265MOL    H7537563   1.905   2.295   6.471 -0.4808  1.5434 -0.8131
  265MOL    H7637564   1.772   2.264   6.368 -3.2213  0.2938  0.5647
  265MOL    H7737565   1.804   2.539   6.321 -0.4539 -0.2471 -0.9155
  265MOL    H7837566   1.924   2.421   6.267  0.2607 -0.2192  0.7585
  265MOL    C7937567   1.956   2.608   6.526  0.5331 -0.6535 -0.1796
  265MOL    C8037568   2.091   2.665   6.580  0.6346 -0.1007  0.3291
  265MOL    O8137569   2.127   2.761   6.485  0.0040  0.1907 -0.0728
  265MOL    H8237570   1.888   2.688   6.498 -0.7294 -1.5347  0.3164
  265MOL    H8337571   1.926   2.542   6.607 -0.3435  0.4704  0.4251
  265MOL    H8437572   2.179   2.601   6.594  0.1686 -0.8056  0.0454
  265MOL    H8537573   2.080   2.712   6.678 -1.5773  0.9843 -0.4308
  265MOL    C8637574   2.229   2.847   6.544  0.4446  0.2514  0.0214
  265MOL    C8737575   2.260   2.962   6.449  0.5277  0.1995  0.9507
  265MOL    O8837576   2.166   3.067   6.473 -0.1512 -0.5380  0.1295
  265MOL    H8937577   2.205   2.882   6.645  1.6214  1.1578 -0.0024
  265MOL    H9037578   2.322   2.795   6.568 -1.5603 -2.5825  1.8568
  265MOL    H9137579   2.256   2.923   6.348  0.1757  0.0637  1.0161
  265MOL    H9237580   2.364   2.982   6.475  0.8153 -0.5197  0.3450
  265MOL    C9337581   2.184   3.186   6.394 -0.4088 -0.6712  0.6372
  265MOL    C9437582   2.088   3.303   6.435 -0.3332 -0.5344 -0.1321
  265MOL    O9537583   1.978   3.309   6.346 -0.1160  0.6076  0.2443
  265MOL    H9637584   2.290   3.209   6.402 -0.2516 -1.2333  0.2201
  265MOL    H9737585   2.180   3.171   6.287  0.7813  1.3627  0.2754
  265MOL    H9837586   2.152   3.391   6.439 -2.0402  0.7366  0.1072
  265MOL    H9937587   2.052   3.287   6.537  1.7461  1.7996  1.0129
  265MOL   C10037588   1.902   3.420   6.348  0.0426 -0.1629  0.2392
  265MOL   C10137589   1.821   3.424   6.467 -0.2635  0.4134 -0.0096
  265MOL   O10237590   1.872   3.531   6.543  0.4928  0.3936 -0.0408
  265MOL   H10337591   1.964   3.510   6.339  0.3330 -0.1054  2.4659
  265MOL   H10437592   1.835   3.428   6.262 -0.0514  0.4620  0.3688
  265MOL   H10537593   1.826   3.329   6.520  1.6578 -0.3221 -1.4487
  265MOL   H10637594   1.716   3.448   6.447  0.1345  0.3510 -2.2268
  265MOL   C10737595   1.812   3.547   6.674 -0.3703  0.2353  0.3914
  265MOL   C10837596   1.873   3.459   6.786 -0.4323  0.2407 -0.8695
  265MOL   O10937597   1.852   3.323   6.766 -0.1156 -0.1315 -0.3089
  265MOL   H11037598   1.844   3.650   6.686 -0.6268  0.6054 -1.8501
  265MOL   H11137599   1.703   3.543   6.681 -0.3488 -0.3142  0.4547
  265MOL   H11237600   1.840   3.494   6.884 -1.2217 -0.5044 -0.8583
  265MOL   H11337601   1.980   3.473   6.796 -0.3781 -0.8694  0.2221
  265MOL   C11437602   1.727   3.274   6.798  0.9033 -0.6636 -1.0406
  265MOL   C11537603   1.731   3.125   6.767 -0.2694  0.9279 -0.4433
  265MOL   O11637604   1.750   3.108   6.629 -0.1867  0.2575  0.0005
  265MOL   H11737605   1.725   3.285   6.907 -1.1538  0.8200 -1.1806
  265MOL   H11837606   1.642   3.326   6.755  0.7193  0.6561  0.8437
  265MOL   H11937607   1.639   3.079   6.804  0.5168  1.6146  2.5298
  265MOL   H12037608   1.811   3.075   6.822  1.2790  0.6714 -2.8989
  265MOL   C12137609   1.845   3.009   6.600 -0.0261  0.0019  0.2346
  265MOL   C12237610   1.859   2.984   6.449  0.0146 -0.0452  0.6169
  265MOL   O12337611   1.754   2.895   6.405 -0.2879 -0.0431  0.0506
  265MOL   H12437612   1.944   3.039   6.634 -0.2138 -0.4206  1.1475
  265MOL   H12537613   1.816   2.920   6.655  0.1907  1.1691  2.3125
  265MOL   H12637614   1.956   2.938   6.430 -0.4259 -1.3289  1.4180
  265MOL   H12737615   1.859   3.082   6.400  1.1039 -0.3825 -0.0547
  265MOL   C12837616   1.731   2.868   6.267 -0.4222 -0.2605  0.3711
  265MOL   C12937617   1.855   2.819   6.190  0.6635  0.0497 -0.2491
  265MOL   O13037618   1.824   2.787   6.057 -0.1431  0.1653 -0.4052
  265MOL   H13137619   1.656   2.789   6.273 -2.0825  1.4606  3.3731
  265MOL   H13237620   1.685   2.959   6.228  1.1564  0.7275  0.7918
  265MOL   H13337621   1.911   2.741   6.242  1.4892  1.5674  1.1721
  265MOL   H13437622   1.928   2.896   6.215 -1.2134  1.5091  0.9473
  265MOL   C13537623   1.743   2.677   6.043  0.1092 -0.3078  0.6901
  265MOL   C13637624   1.723   2.642   5.892  0.2220 -0.2638 -0.2438
  265MOL   O13737625   1.611   2.712   5.841 -0.0066 -0.1079 -0.1068
  265MOL   H13837626   1.786   2.584   6.080 -1.0502 -0.5140  1.5549
  265MOL   H13937627   1.642   2.683   6.084 -1.8517  1.6746 -3.9775
  265MOL   H14037628   1.707   2.534   5.891 -2.1295  0.0152  2.2066
  265MOL   H14137629   1.815   2.655   5.836 -1.2747  0.2182 -2.6376
  265MOL   H14237630   1.539   2.701   5.901 -1.6352  1.2575 -1.7719
  266MOL     C137631   4.470   5.713   0.447 -0.4215 -0.8474  0.1577
  266MOL     C237632   4.598   5.734   0.519  0.6563 -0.0124 -0.0050
  266MOL     O337633   4.677   5.838   0.469  0.0639 -0.4157  0.2469
  266MOL     H437634   4.434   5.616   0.478  0.7397 -1.0552  0.8821
  266MOL     H537635   4.479   5.715   0.338 -0.7459  1.2204  0.1332
  266MOL     H637636   4.656   5.642   0.511  2.2365  0.9036  0.6482
  266MOL     H737637   4.574   5.755   0.623 -0.5586 -0.6259 -0.1576
  266MOL     H837638   4.390   5.783   0.470  0.2684 -0.2926  0.8949
  266MOL     C937639   4.780   5.876   0.557 -0.1246 -0.0247  0.4920
  266MOL    C1037640   4.902   5.792   0.522 -0.1473 -0.7884  0.1590
  266MOL    O1137641   4.881   5.659   0.561  0.1653  0.3969  0.2948
  266MOL    H1237642   4.800   5.980   0.532 -1.4718  0.0196 -0.4468
  266MOL    H1337643   4.757   5.872   0.664 -0.4579 -0.5362  0.4033
  266MOL    H1437644   4.984   5.833   0.581 -0.6794 -0.6878  0.8389
  266MOL    H1537645   4.925   5.792   0.416 -1.0216 -0.6069 -0.0368
  266MOL    C1637646   4.983   5.576   0.510  0.1359  0.8017 -0.1791
  266MOL    C1737647   4.980   5.434   0.572  0.0604  0.2910 -0.1201
  266MOL    O1837648   5.076   5.358   0.508  0.1185  0.1455 -0.3449
  266MOL    H1937649   4.975   5.577   0.402  0.1717 -2.8267 -0.2755
  266MOL    H2037650   5.081   5.620   0.527 -1.2691  2.9342  3.0513
  266MOL    H2137651   4.881   5.394   0.552  0.6385  0.3218 -3.3302
  266MOL    H2237652   4.994   5.441   0.680  0.8676  1.0581 -0.2702
  266MOL    C2337653   5.087   5.225   0.561  0.4241 -0.0663  0.6927
  266MOL    C2437654   5.197   5.160   0.475  0.6003  0.6045  0.0728
  266MOL    O2537655   5.149   5.119   0.348 -0.0699  0.1427 -0.2533
  266MOL    H2637656   5.104   5.228   0.669 -0.5659  0.4428  0.8362
  266MOL    H2737657   4.989   5.177   0.559  0.6352 -0.5171  1.0082
  266MOL    H2837658   5.244   5.074   0.524  2.3087  1.0175 -0.7809
  266MOL    H2937659   5.284   5.223   0.456  0.5328  0.2592 -1.4690
  266MOL    C3037660   5.230   5.024   0.280 -0.8489  0.1065  0.4106
  266MOL    C3137661   5.347   5.089   0.193  0.1217 -0.2518 -0.4719
  266MOL    O3237662   5.281   5.161   0.085  0.1040  0.2846  0.4076
  266MOL    H3337663   5.269   4.951   0.351  2.5802  0.4184 -1.0293
  266MOL    H3437664   5.151   4.987   0.215  1.5102 -0.5057 -2.2165
  266MOL    H3537665   5.408   5.009   0.151 -0.5286 -0.6838 -0.6202
  266MOL    H3637666   5.408   5.158   0.250  1.2330  0.3628 -2.3761
  266MOL    C3737667   5.371   5.211   7.761  0.4935  0.3597  0.0232
  266MOL    C3837668   5.310   5.299   7.654  0.9632 -0.5014 -0.0024
  266MOL    O3937669   5.215   5.225   7.574 -0.0802 -0.4225 -0.1786
  266MOL    H4037670   5.445   5.275   0.037  1.2123  0.8594 -1.7539
  266MOL    H4137671   5.426   5.125   7.723  3.1713  2.0420 -0.0340
  266MOL    H4237672   5.393   5.337   7.594  1.4193  0.9997  1.5170
  266MOL    H4337673   5.264   5.382   7.709  0.3863  0.1925 -1.4958
  266MOL    C4437674   5.198   5.273   7.441 -0.0636 -0.0729 -0.0592
  266MOL    C4537675   5.088   5.375   7.424  0.1451  0.8494 -0.0994
  266MOL    O4637676   4.959   5.316   7.455  0.1004  0.1126 -0.8675
  266MOL    H4737677   5.289   5.306   7.390  0.8195  0.7281  1.9757
  266MOL    H4837678   5.170   5.179   7.395 -0.9755  0.7713 -1.2618
  266MOL    H4937679   5.080   5.400   7.318 -0.5765  0.3057 -0.1763
  266MOL    H5037680   5.104   5.464   7.485 -1.6805 -0.6652  2.7022
  266MOL    C5137681   4.842   5.394   7.431 -0.0174  0.5710 -0.2155
  266MOL    C5237682   4.804   5.477   7.548 -0.1618 -0.0785 -0.0778
  266MOL    O5337683   4.877   5.594   7.557 -0.5103  0.1040  0.1809
  266MOL    H5437684   4.853   5.457   7.343  0.7395  1.3610  0.4286
  266MOL    H5537685   4.763   5.321   7.415  1.2820 -1.0074  0.4300
  266MOL    H5637686   4.803   5.414   7.636  2.8344 -0.0837  0.0019
  266MOL    H5737687   4.700   5.509   7.544 -0.2748 -0.4498 -0.1691
  266MOL    C5837688   4.864   5.666   7.676 -0.4123  0.1591 -0.1207
  266MOL    C5937689   4.971   5.776   7.685  0.6392  0.5079 -0.0406
  266MOL    O6037690   5.085   5.722   7.755 -0.5356  0.3089  0.1608
  266MOL    H6137691   4.769   5.719   7.688  0.2119  1.0113  1.1192
  266MOL    H6237692   4.870   5.596   7.759  1.8269 -0.5712 -0.8853
  266MOL    H6337693   4.933   5.860   7.744  0.4108  0.5434 -0.2363
  266MOL    H6437694   4.992   5.815   7.586  0.5564  1.1415  0.1890
  266MOL    C6537695   5.176   5.826   0.042 -0.2506 -0.8195  0.6380
  266MOL    C6637696   5.324   5.789   0.028  0.1142 -0.1835  0.3799
  266MOL    O6737697   5.361   5.725   0.154 -0.2585  0.0674  0.2786
  266MOL    H6837698   5.148   5.918   7.762  2.2871 -0.8338 -0.8318
  266MOL    H6937699   5.160   5.841   0.149  1.0579 -0.4889  0.7982
  266MOL    H7037700   5.386   5.878   0.017 -1.1001  0.9125  2.0906
  266MOL    H7137701   5.344   5.716   7.721 -3.2009  0.6329 -1.3100
  266MOL    C7237702   5.311   5.590   0.161 -0.0684  0.3340  0.8255
  266MOL    C7337703   5.325   5.545   0.305 -0.2902 -0.1047  0.1606
  266MOL    O7437704   5.459   5.533   0.348 -0.1104 -0.4553  0.1500
  266MOL    H7537705   5.203   5.577   0.154 -0.1102  1.1689 -0.1548
  266MOL    H7637706   5.358   5.530   0.084 -3.9068  0.4953 -1.7885
  266MOL    H7737707   5.271   5.452   0.317 -1.9882  0.8261 -0.1501
  266MOL    H7837708   5.255   5.610   0.357  0.8614  0.6190  0.8461
  266MOL    C7937709   5.460   5.537   0.494  0.5139  0.4480 -0.1367
  266MOL    C8037710   5.601   5.493   0.548 -0.1356 -0.4790  0.5137
  266MOL    O8137711   5.610   5.352   0.540 -0.5178 -0.5283 -0.2802
  266MOL    H8237712   5.441   5.636   0.536 -3.8151 -0.6031  0.6864
  266MOL    H8337713   5.380   5.478   0.539 -1.0575  2.2340 -0.5150
  266MOL    H8437714   5.609   5.516   0.654  2.3890  1.1105  0.0140
  266MOL    H8537715   5.682   5.555   0.510 -2.1515  0.9293 -1.7064
  266MOL    C8637716   5.651   5.293   0.420  0.4019  0.0743  0.1707
  266MOL    C8737717   5.680   5.144   0.433 -0.2710  0.6411  0.1279
  266MOL    O8837718   5.702   5.097   0.305 -0.2492  0.0651 -0.3800
  266MOL    H8937719   5.579   5.293   0.338  0.4265 -0.2554  0.1502
  266MOL    H9037720   5.741   5.342   0.383  1.3218 -1.8751 -0.2552
  266MOL    H9137721   5.600   5.087   0.481  0.6171 -1.1284 -0.4536
  266MOL    H9237722   5.762   5.134   0.505  0.2352  2.9776 -0.0709
  266MOL    C9337723   5.783   4.974   0.310  0.2543 -0.2414 -1.2203
  266MOL    C9437724   5.926   4.988   0.377 -0.2687 -0.0910 -0.8322
  266MOL    O9537725   5.923   4.986   0.522  0.1605  0.8341  0.1834
  266MOL    H9637726   5.725   4.891   0.350  0.1944 -0.5643 -1.9743
  266MOL    H9737727   5.789   4.948   0.204  0.0703 -0.2804 -1.2223
  266MOL    H9837728   5.978   5.083   0.360 -1.9141  0.7307 -1.3214
  266MOL    H9937729   5.992   4.903   0.361  1.2274  0.7632  0.5350
  266MOL   C10037730   6.046   4.981   0.592  0.0685  0.1562  0.2594
  266MOL   C10137731   6.042   5.049   0.730 -0.4969 -0.3704  0.2729
  266MOL   O10237732   5.967   4.977   0.828  0.0035 -0.0899 -0.4042
  266MOL   H10337733   6.071   4.877   0.612  0.1245  0.1938  0.3796
  266MOL   H10437734   6.126   5.035   0.542  1.1080 -0.0139  1.7387
  266MOL   H10537735   6.006   5.151   0.714 -0.2758 -0.5681 -1.5013
  266MOL   H10637736   6.140   5.059   0.776  0.0483  0.2725 -1.0176
  266MOL   C10737737   5.976   5.036   0.954 -0.4376  0.2203  0.0926
  266MOL   C10837738   5.898   5.172   0.971  0.5904  0.1558 -0.1191
  266MOL   O10937739   5.979   5.278   0.958 -0.2794 -0.3999 -0.3090
  266MOL   H11037740   5.938   4.963   1.024 -0.3884 -0.3915 -0.5135
  266MOL   H11137741   6.081   5.050   0.980 -0.0515 -0.0420 -1.2987
  266MOL   H11237742   5.861   5.169   1.074 -1.6607 -0.7620 -0.9180
  266MOL   H11337743   5.823   5.186   0.893  0.6518 -1.5042 -0.4967
  266MOL   C11437744   5.924   5.397   1.009  0.5305  0.5944  0.1811
  266MOL   C11537745   5.837   5.458   0.901  0.3552 -0.3496  0.0732
  266MOL   O11637746   5.916   5.529   0.810  0.0520 -0.0817  0.4851
  266MOL   H11737747   5.864   5.386   1.099 -0.0853  1.2344 -0.1461
  266MOL   H11837748   6.005   5.466   1.034  0.9028  1.1214 -2.3043
  266MOL   H11937749   5.772   5.533   0.944  0.2591  0.1721 -0.9645
  266MOL   H12037750   5.767   5.393   0.848  0.7632  0.8814 -2.0441
  266MOL   C12137751   5.944   5.456   0.689  0.3742 -0.0750 -0.4848
  266MOL   C12237752   6.029   5.547   0.600  0.3435  0.1389  0.4247
  266MOL   O12337753   6.166   5.551   0.634 -0.3770  0.1595 -0.5796
  266MOL   H12437754   5.981   5.358   0.718  1.2837  0.4879  0.3158
  266MOL   H12537755   5.852   5.436   0.636  0.1387  0.7295 -0.3902
  266MOL   H12637756   5.995   5.650   0.611 -1.3655 -0.3551 -0.1195
  266MOL   H12737757   6.008   5.529   0.495 -2.6907  0.3066  0.9658
  266MOL   C12837758   6.191   5.632   0.746  0.5156 -0.4147 -0.0362
  266MOL   C12937759   6.335   5.630   0.781 -0.4054 -0.4116  0.3301
  266MOL   O13037760   6.371   5.518   0.856 -0.1701 -0.0759 -0.2351
  266MOL   H13137761   6.166   5.735   0.720  1.6204 -0.1234  0.0474
  266MOL   H13237762   6.128   5.609   0.832  0.9275 -0.3883  0.2711
  266MOL   H13337763   6.360   5.716   0.843  0.1530 -0.2329 -0.1329
  266MOL   H13437764   6.387   5.643   0.686 -0.1739 -0.1300  0.4930
  266MOL   C13537765   6.507   5.532   0.895 -0.8178 -0.0961 -0.3508
  266MOL   C13637766   6.530   5.410   0.973  0.3671 -0.1781 -0.1563
  266MOL   O13737767   6.445   5.408   1.083  0.6163  0.0486 -0.0989
  266MOL   H13837768   6.583   5.543   0.818  0.9164 -1.5042  1.1285
  266MOL   H13937769   6.520   5.619   0.960  2.3326 -0.8333  0.0836
  266MOL   H14037770   6.633   5.405   1.006  0.2998 -0.3114  0.0338
  266MOL   H14137771   6.502   5.327   0.907 -1.6844 -1.1084  1.8320
  266MOL   H14237772   6.360   5.430   1.048  1.5495  2.2477 -1.0543
  267MOL     C137773   0.974   0.109   0.268  0.0524 -0.3466 -0.0391
  267MOL     C237774   1.026   7.755   0.192  0.0275  0.0936 -0.6035
  267MOL     O337775   1.087   0.044   0.082  0.0742 -0.2185  0.0190
  267MOL     H437776   0.917   0.172   0.200 -1.1719 -2.8398 -1.4000
  267MOL     H537777   1.054   0.174   0.303  0.1472 -0.6507  0.3073
  267MOL     H637778   0.959   7.685   0.142 -0.2536  2.2037 -3.2931
  267MOL     H737779   1.094   7.698   0.255 -2.2696  0.6793  2.5461
  267MOL     H837780   0.907   0.079   0.349  1.2387 -1.8455  0.4099
  267MOL     C937781   1.149   7.713   7.755  0.3042  0.5138 -0.3713
  267MOL    C1037782   1.281   7.687   0.039 -0.2703 -0.5276 -0.2301
  267MOL    O1137783   1.372   0.003   7.746 -0.4323 -0.2006 -0.1830
  267MOL    H1237784   1.085   7.625   7.755 -1.1252  1.5247 -1.0537
  267MOL    H1337785   1.151   7.737   7.649 -0.4949  1.1344 -0.2480
  267MOL    H1437786   1.309   7.587   0.004 -0.3883 -0.3668 -0.7919
  267MOL    H1537787   1.285   7.700   0.147  0.2487  2.3353 -0.5665
  267MOL    C1637788   1.505   7.771   0.033 -0.1873 -0.1606  0.5800
  267MOL    C1737789   1.576   7.637   0.006 -0.1668 -0.5815 -0.2892
  267MOL    O1837790   1.589   7.606   7.644 -0.9537 -0.1067 -0.1493
  267MOL    H1937791   1.555   0.084   7.755 -2.6788 -0.0810 -1.9773
  267MOL    H2037792   1.485   0.025   0.137  1.5925 -2.7719  1.6185
  267MOL    H2137793   1.509   7.565   0.054 -1.2514  0.6315  0.0495
  267MOL    H2237794   1.676   7.641   0.048 -0.4544  1.1042  0.3010
  267MOL    C2337795   1.637   7.475   7.612  0.4362  0.2745  0.5726
  267MOL    C2437796   1.788   7.464   7.616 -0.5030  0.3488 -0.2196
  267MOL    O2537797   1.820   7.331   7.626  0.1192 -0.2230  0.4088
  267MOL    H2637798   1.588   7.409   7.683 -1.6759  1.1166 -0.0653
  267MOL    H2737799   1.607   7.449   7.511  0.0564  0.2014  0.7041
  267MOL    H2837800   1.836   7.521   7.695  0.5802  1.0745 -1.3763
  267MOL    H2937801   1.823   7.490   7.516  0.6097  0.5519  0.2258
  267MOL    C3037802   1.955   7.297   7.651 -0.5219  0.4558 -0.6851
  267MOL    C3137803   1.985   7.155   7.699 -0.2151 -0.1585 -0.2603
  267MOL    O3237804   1.945   7.145   0.060 -0.0175  0.2494  0.6018
  267MOL    H3337805   2.014   7.315   7.561 -0.9991 -1.3760 -1.3845
  267MOL    H3437806   2.004   7.370   7.715 -0.5054  1.3219 -1.6680
  267MOL    H3537807   2.091   7.129   7.697  0.4403  2.4634 -1.3265
  267MOL    H3637808   1.951   7.080   7.628 -1.2807  0.4317 -0.3823
  267MOL    C3737809   1.957   7.013   0.118 -0.1344  0.0232 -0.0057
  267MOL    C3837810   2.094   6.996   0.177 -0.1106 -0.2774 -0.0699
  267MOL    O3937811   2.185   6.964   0.078 -0.1607 -0.0500 -0.8448
  267MOL    H4037812   1.877   6.980   0.184  0.1887 -0.2633  0.2446
  267MOL    H4137813   1.944   6.934   0.044 -2.1084  0.0580  0.2855
  267MOL    H4237814   2.096   6.906   0.240  0.4492  0.4327  0.9338
  267MOL    H4337815   2.122   7.086   0.230 -0.8221 -0.8283  1.2772
  267MOL    C4437816   2.324   6.998   0.102  0.3538 -0.2733 -0.1431
  267MOL    C4537817   2.364   7.141   0.058  0.0476  0.0446 -0.0904
  267MOL    O4637818   2.366   7.129   7.688  0.4681  0.5498 -0.0925
  267MOL    H4737819   2.343   7.001   0.209 -0.0707  1.7731 -0.1051
  267MOL    H4837820   2.396   6.923   0.067 -1.1179 -0.7442 -2.3221
  267MOL    H4937821   2.460   7.163   0.104 -0.6607 -0.9292  1.9155
  267MOL    H5037822   2.281   7.204   0.088 -1.6107 -2.0510 -0.1311
  267MOL    C5137823   2.332   7.252   7.624  1.0895  0.6418  0.1224
  267MOL    C5237824   2.459   7.324   7.577 -0.6769 -0.1948  0.5654
  267MOL    O5337825   2.504   7.407   7.677 -0.1855  0.4385  0.0204
  267MOL    H5437826   2.260   7.232   7.544  0.2926  1.5798  0.5886
  267MOL    H5537827   2.267   7.324   7.674  0.4983  0.7716 -0.8222
  267MOL    H5637828   2.436   7.390   7.494  0.1851  0.8197  1.1157
  267MOL    H5737829   2.525   7.249   7.533  0.2525  0.7946  0.2548
  267MOL    C5837830   2.614   7.487   7.653 -0.2190 -0.6749  0.2883
  267MOL    C5937831   2.696   7.506   0.017  0.1368  0.0451  0.5728
  267MOL    O6037832   2.825   7.562   7.760  0.2411  0.0419  0.8342
  267MOL    H6137833   2.674   7.450   7.570 -1.4999 -0.6053 -0.6776
  267MOL    H6237834   2.581   7.589   7.633 -0.7899 -0.2105  3.2611
  267MOL    H6337835   2.702   7.405   0.057  0.5835  0.6516  2.0730
  267MOL    H6437836   2.629   7.558   0.085 -0.4126  0.9900 -0.6614
  267MOL    C6537837   2.828   7.705   7.756  0.7449  0.4950 -0.2331
  267MOL    C6637838   2.975   7.744   7.731  0.0985  0.4133  0.1696
  267MOL    O6737839   3.070   7.697   0.058 -0.0283 -0.2012 -0.2245
  267MOL    H6837840   2.760   7.750   7.683 -1.1886 -2.2474 -0.1884
  267MOL    H6937841   2.793   7.748   0.079  0.9116 -1.4501  0.7489
  267MOL    H7037842   2.998   0.079   7.717 -2.4956  0.9169 -0.6199
  267MOL    H7137843   3.007   7.701   7.636  1.1294 -0.5717  0.9485
  267MOL    C7237844   3.068   7.764   0.189 -0.1085  0.6557 -1.0094
  267MOL    C7337845   3.216   7.740   0.246 -0.1058 -0.1058 -0.1335
  267MOL    O7437846   3.307   0.047   0.168 -0.5754 -0.0533 -0.2203
  267MOL    H7537847   3.042   0.099   0.194 -3.6216 -0.1436 -0.5571
  267MOL    H7637848   2.996   7.707   0.248  0.0309  1.0557 -0.4584
  267MOL    H7737849   3.232   7.633   0.255 -0.4727  0.0108  2.1716
  267MOL    H7837850   3.219   0.002   0.350 -2.0541  0.6106 -0.2993
  267MOL    C7937851   3.432   0.064   0.226  0.5976  0.2579 -0.3748
  267MOL    C8037852   3.518   0.169   0.164  0.1646  0.6672 -0.1259
  267MOL    O8137853   3.480   0.302   0.158 -0.2623 -0.0444  0.5847
  267MOL    H8237854   3.414   0.095   0.329 -2.5304 -0.4634 -0.6386
  267MOL    H8337855   3.471   7.733   0.227  0.9664  0.3774  2.1701
  267MOL    H8437856   3.535   0.124   0.066 -2.0226  0.7318 -0.5569
  267MOL    H8537857   3.615   0.175   0.214 -0.0756 -0.4638  0.4828
  267MOL    C8637858   3.582   0.380   0.106 -0.1115 -0.1904 -0.1312
  267MOL    C8737859   3.536   0.532   0.123  0.3046 -0.0337 -0.9003
  267MOL    O8837860   3.546   0.577   0.254  0.1530 -0.5565 -0.2987
  267MOL    H8937861   3.684   0.372   0.143  0.9524  2.0911 -2.4044
  267MOL    H9037862   3.591   0.354   0.000  1.1717 -0.3181  0.0100
  267MOL    H9137863   3.437   0.541   0.080 -0.5671 -0.4821  0.9558
  267MOL    H9237864   3.609   0.597   0.074  0.7382  0.2849  0.1484
  267MOL    C9337865   3.526   0.716   0.273 -0.0027  0.0767 -0.4753
  267MOL    C9437866   3.397   0.773   0.210  0.5253  0.6975 -0.6054
  267MOL    O9537867   3.421   0.813   0.075  0.2636 -0.1288 -0.2291
  267MOL    H9637868   3.534   0.728   0.381  0.2494  1.5208 -0.6380
  267MOL    H9737869   3.614   0.766   0.232 -0.0443  1.7675  1.4006
  267MOL    H9837870   3.373   0.860   0.271 -0.6785  1.1149 -1.6397
  267MOL    H9937871   3.312   0.705   0.220  1.2192 -0.0242  0.4213
  267MOL   C10037872   3.300   0.885   0.032 -0.2908 -0.1200 -0.7689
  267MOL   C10137873   3.317   0.917   7.658  0.3022  0.6446 -0.0329
  267MOL   O10237874   3.399   1.029   7.643  0.2851 -0.0722 -0.2737
  267MOL   H10337875   3.205   0.833   0.038  0.2442 -0.9134  1.1830
  267MOL   H10437876   3.289   0.974   0.095 -1.4690 -0.0518 -1.0644
  267MOL   H10537877   3.222   0.917   7.604 -0.5090 -1.4212  1.3311
  267MOL   H10637878   3.370   0.830   7.619  0.6861  0.0291  1.8376
  267MOL   C10737879   3.448   1.064   7.516  0.2777 -0.1318  0.2042
  267MOL   C10837880   3.522   1.198   7.526  0.0682  0.1787  0.6272
  267MOL   O10937881   3.532   1.263   7.396 -0.4853  0.1915 -0.9064
  267MOL   H11037882   3.498   0.984   7.461 -1.1830  0.9978 -2.9012
  267MOL   H11137883   3.369   1.080   7.443  1.3026  0.6152 -0.7700
  267MOL   H11237884   3.616   1.166   7.572 -0.4671 -0.6316  1.1753
  267MOL   H11337885   3.463   1.262   7.591 -2.3906 -0.7041 -0.6646
  267MOL   C11437886   3.629   1.369   7.397  0.0924  0.4211 -1.1599
  267MOL   C11537887   3.612   1.445   7.261  0.3261  0.2897 -0.2536
  267MOL   O11637888   3.726   1.514   7.215  0.1511 -0.1563 -0.0788
  267MOL   H11737889   3.619   1.438   7.480  0.5235  1.4149 -1.9283
  267MOL   H11837890   3.731   1.332   7.405  0.1260  0.3357 -1.9120
  267MOL   H11937891   3.522   1.506   7.269 -0.0705 -0.3338  0.1338
  267MOL   H12037892   3.593   1.370   7.185 -2.0114 -0.6045  1.1730
  267MOL   C12137893   3.720   1.656   7.205  0.0764  0.5826 -0.2120
  267MOL   C12237894   3.847   1.706   7.135 -0.2444 -0.1078 -0.6803
  267MOL   O12337895   3.829   1.841   7.096 -0.5958  0.4358 -0.2604
  267MOL   H12437896   3.631   1.684   7.148  0.9309  2.3110 -0.7130
  267MOL   H12537897   3.723   1.713   7.298  1.6678  0.8597 -0.4235
  267MOL   H12637898   3.862   1.644   7.047 -2.3352  0.3107 -1.3356
  267MOL   H12737899   3.935   1.695   7.199 -0.8299 -1.1187 -0.0335
  267MOL   C12837900   3.933   1.888   7.010  0.1045 -0.2920  0.8667
  267MOL   C12937901   3.903   2.035   6.961 -0.1055 -0.2129  0.0661
  267MOL   O13037902   3.944   2.120   7.073 -0.1157 -0.3086 -0.2602
  267MOL   H13137903   4.033   1.888   7.051  1.4454  1.0912 -2.2549
  267MOL   H13237904   3.920   1.828   6.920  1.0478 -0.5283  0.8813
  267MOL   H13337905   3.801   2.056   6.931  0.0448 -0.8452 -0.9275
  267MOL   H13437906   3.965   2.075   6.880  0.1035 -2.3233 -0.8561
  267MOL   C13537907   3.945   2.259   7.049  0.4305 -0.1840 -0.2241
  267MOL   C13637908   4.004   2.326   7.177 -0.4842  0.5455 -0.0599
  267MOL   O13737909   4.140   2.302   7.167 -0.1145 -0.1965  0.1319
  267MOL   H13837910   4.007   2.275   6.960  0.9217 -2.6045 -0.3448
  267MOL   H13937911   3.843   2.282   7.018  0.4247 -2.6607 -2.2156
  267MOL   H14037912   3.950   2.287   7.264 -0.7826 -0.0620 -0.5126
  267MOL   H14137913   3.995   2.434   7.171  0.0129  0.5559 -0.6957
  267MOL   H14237914   4.168   2.214   7.187 -0.1080 -0.3506 -0.5504
  268MOL     C137915   0.960   0.384   4.364 -0.3284 -0.4008 -0.3212
  268MOL     C237916   1.035   0.351   4.489 -0.5788  0.8748  0.2708
  268MOL     O337917   1.137   0.253   4.478 -0.0703  0.1104  0.4138
  268MOL     H437918   0.906   0.476   4.384  2.2006  0.7844  1.2919
  268MOL     H537919   0.889   0.315   4.319  0.0676  0.6938 -2.6920
  268MOL     H637920   0.959   0.321   4.562 -1.4177  0.0311 -0.9313
  268MOL     H737921   1.073   0.447   4.523 -0.9145  1.2841 -0.5078
  268MOL     H837922   1.027   0.414   4.284  0.0304 -0.2860  0.0180
  268MOL     C937923   1.232   0.254   4.585  0.4046 -0.1827 -0.1021
  268MOL    C1037924   1.174   0.184   4.708  0.1295 -0.5288  0.4316
  268MOL    O1137925   1.180   0.042   4.687 -0.3080 -0.3008 -0.3906
  268MOL    H1237926   1.313   0.195   4.543  0.4206  0.2770 -0.7420
  268MOL    H1337927   1.268   0.356   4.602  2.5828 -1.1272  1.2284
  268MOL    H1437928   1.073   0.223   4.718 -0.4323 -2.0848  0.9533
  268MOL    H1537929   1.239   0.203   4.793 -1.7781  2.3283  1.3193
  268MOL    C1637930   1.090   7.751   4.778  0.3294  0.1324 -0.1050
  268MOL    C1737931   1.078   7.604   4.736  0.2409  0.3482 -0.3161
  268MOL    O1837932   1.059   7.529   4.856 -0.4442 -0.2217 -0.1273
  268MOL    H1937933   1.124   7.760   4.881 -0.8605  1.3989  0.1837
  268MOL    H2037934   0.995   0.033   4.778  0.3006  0.1173 -2.7837
  268MOL    H2137935   1.169   7.575   4.682 -0.7673 -0.9288 -1.3631
  268MOL    H2237936   0.998   7.590   4.663  0.5538 -0.3222 -0.5350
  268MOL    C2337937   1.039   7.392   4.827 -0.3084 -0.2175 -0.2220
  268MOL    C2437938   1.085   7.313   4.952 -0.1302 -0.7077 -0.0749
  268MOL    O2537939   1.071   7.176   4.923  0.1978  0.5931  0.3629
  268MOL    H2637940   0.934   7.377   4.803 -0.6306 -0.1834  1.0995
  268MOL    H2737941   1.105   7.371   4.743  0.8052 -1.9417  1.0569
  268MOL    H2837942   1.030   7.348   5.039 -0.2636 -0.3928 -0.2817
  268MOL    H2937943   1.191   7.337   4.965 -0.1596  0.3318 -1.5812
  268MOL    C3037944   1.127   7.115   4.808  0.6807  0.8266  0.1576
  268MOL    C3137945   1.167   6.962   4.832  0.0789  0.3143  0.7472
  268MOL    O3237946   1.285   6.948   4.906 -0.0836  0.5322  0.1279
  268MOL    H3337947   1.064   7.128   4.720  0.6722 -0.1263  0.0195
  268MOL    H3437948   1.226   7.154   4.784  0.9657  0.0962  0.1272
  268MOL    H3537949   1.178   6.910   4.737 -2.6179  1.6220 -0.3208
  268MOL    H3637950   1.088   6.908   4.884 -0.2405  1.6033  1.6139
  268MOL    C3737951   1.289   6.986   5.043  0.3314  0.8749 -0.3695
  268MOL    C3837952   1.403   6.907   5.110 -0.0237 -0.3021  0.2062
  268MOL    O3937953   1.393   6.899   5.252  0.0839  0.3538 -0.4318
  268MOL    H4037954   1.290   7.095   5.038  0.0392  0.9001  0.0936
  268MOL    H4137955   1.191   6.959   5.083 -0.1068  1.2809 -1.1419
  268MOL    H4237956   1.496   6.949   5.070 -0.3195 -0.7857 -0.9939
  268MOL    H4337957   1.406   6.804   5.077  1.7688  0.2859 -1.6145
  268MOL    C4437958   1.518   6.844   5.301 -0.1257 -0.4297  0.7061
  268MOL    C4537959   1.527   6.843   5.456  0.1108  0.1811 -0.5339
  268MOL    O4637960   1.663   6.826   5.499 -0.0234 -0.3000 -0.3950
  268MOL    H4737961   1.549   6.744   5.270 -1.6791 -0.9031  0.6359
  268MOL    H4837962   1.598   6.911   5.271 -0.2799 -1.2577 -1.7102
  268MOL    H4937963   1.448   6.784   5.503 -1.7033  3.6091  0.9011
  268MOL    H5037964   1.502   6.945   5.482 -0.4405 -0.4042  1.3095
  268MOL    C5137965   1.702   6.691   5.519  0.1794  0.2113  0.0885
  268MOL    C5237966   1.854   6.665   5.530  0.0458 -0.2737 -0.3025
  268MOL    O5337967   1.878   6.529   5.535  0.0438  0.1707 -0.5035
  268MOL    H5437968   1.640   6.651   5.600  1.1159 -0.5096  0.4579
  268MOL    H5537969   1.670   6.627   5.437  0.3942  1.1306 -0.7108
  268MOL    H5637970   1.884   6.716   5.621  2.2226 -4.7003  1.6189
  268MOL    H5737971   1.896   6.715   5.443 -2.4487  3.6611  0.6241
  268MOL    C5837972   2.010   6.485   5.514  0.1770  0.2558  0.3224
  268MOL    C5937973   2.025   6.337   5.551 -0.0091 -0.0990  0.1066
  268MOL    O6037974   1.970   6.278   5.439 -0.3715  0.2354  0.6435
  268MOL    H6137975   2.050   6.504   5.415 -1.3621  0.4587 -0.2675
  268MOL    H6237976   2.080   6.543   5.574  0.3944  0.4559 -0.1258
  268MOL    H6337977   1.965   6.326   5.642  0.8879  0.0785  0.7272
  268MOL    H6437978   2.129   6.305   5.560 -0.1151 -0.5828 -0.3349
  268MOL    C6537979   1.961   6.141   5.458  0.0200 -0.0493 -0.1087
  268MOL    C6637980   1.867   6.088   5.353  0.1875  0.9623 -0.0390
  268MOL    O6737981   1.934   6.034   5.240  0.2979 -0.3209 -0.1914
  268MOL    H6837982   2.062   6.108   5.433  0.4379  1.9967 -1.2154
  268MOL    H6937983   1.927   6.103   5.554  0.0439  0.5295  0.1349
  268MOL    H7037984   1.789   6.162   5.330 -2.1911 -1.1929  0.8537
  268MOL    H7137985   1.803   6.007   5.388 -1.1320  1.7806 -0.4862
  268MOL    C7237986   1.843   6.013   5.130  0.7105 -0.1946 -0.3118
  268MOL    C7337987   1.908   5.921   5.027  0.2033  0.6179 -0.7654
  268MOL    O7437988   1.902   5.797   5.091  0.1037  0.0452 -0.2728
  268MOL    H7537989   1.750   5.963   5.158  0.5642 -0.1189 -0.6532
  268MOL    H7637990   1.813   6.109   5.087  3.7550  1.5709  1.3357
  268MOL    H7737991   2.010   5.949   5.000  0.7098 -0.6583 -0.2024
  268MOL    H7837992   1.848   5.919   4.936 -0.6939 -3.4073 -0.2013
  268MOL    C7937993   1.997   5.695   5.048 -0.1860  0.6148  0.2474
  268MOL    C8037994   1.974   5.551   5.102 -0.0384  0.0814 -0.1491
  268MOL    O8137995   1.862   5.484   5.048  0.0552  0.3273 -0.2831
  268MOL    H8237996   2.008   5.698   4.940 -1.4635 -2.2835 -0.0075
  268MOL    H8337997   2.090   5.730   5.092 -0.3936  0.7626  0.5719
  268MOL    H8437998   1.989   5.545   5.209  1.6873 -0.0070 -0.3857
  268MOL    H8537999   2.049   5.481   5.066 -1.2435 -0.1813 -2.2783
  268MOL    C8638000   1.745   5.514   5.128 -0.6020  0.4814 -0.1625
  268MOL    C8738001   1.630   5.431   5.080  0.5194 -0.0714 -0.6219
  268MOL    O8838002   1.659   5.296   5.120 -0.1959  0.2931 -0.0688
  268MOL    H8938003   1.756   5.517   5.236  0.6513  0.5450 -0.2792
  268MOL    H9038004   1.728   5.621   5.117 -2.8702 -0.0432 -1.9316
  268MOL    H9138005   1.615   5.444   4.973  0.0939 -0.6118 -0.6315
  268MOL    H9238006   1.535   5.461   5.124 -0.4523 -2.3671 -1.1112
  268MOL    C9338007   1.551   5.206   5.094 -0.5274  0.6510  0.7452
  268MOL    C9438008   1.588   5.066   5.140  0.1393  1.0232  0.3526
  268MOL    O9538009   1.601   5.079   5.283  0.4808 -0.2524  0.2723
  268MOL    H9638010   1.462   5.247   5.140  0.5910 -0.0893  3.6913
  268MOL    H9738011   1.550   5.218   4.985 -1.1803  1.2533  0.8168
  268MOL    H9838012   1.686   5.046   5.096  0.2053  0.5543  0.7077
  268MOL    H9938013   1.510   4.995   5.112 -1.6020  2.7163  0.7789
  268MOL   C10038014   1.709   5.012   5.350 -0.1333  0.3676 -0.1442
  268MOL   C10138015   1.733   5.059   5.497  0.3610 -0.1509 -0.1694
  268MOL   O10238016   1.788   5.197   5.508  0.0895  0.3417  0.2940
  268MOL   H10338017   1.685   4.906   5.356 -2.3641  0.8469 -0.2273
  268MOL   H10438018   1.796   5.024   5.285  0.9397 -0.1622  1.1589
  268MOL   H10538019   1.796   4.982   5.541 -0.9652 -0.5320  1.1182
  268MOL   H10638020   1.635   5.047   5.542 -0.3385 -2.0322 -2.1558
  268MOL   C10738021   1.707   5.308   5.469  0.0132 -0.1318 -0.0558
  268MOL   C10838022   1.580   5.348   5.553 -0.0275  0.4089 -0.1644
  268MOL   O10938023   1.619   5.424   5.670  0.1138 -0.4178  0.3629
  268MOL   H11038024   1.776   5.393   5.469  0.5120 -0.4715  3.2282
  268MOL   H11138025   1.671   5.300   5.366 -2.2188  0.7571  0.6369
  268MOL   H11238026   1.519   5.265   5.588  2.8774 -1.5594  0.4555
  268MOL   H11338027   1.514   5.415   5.499  0.5963  1.0137 -0.1920
  268MOL   C11438028   1.622   5.352   5.786 -0.1181 -0.6289  0.3610
  268MOL   C11538029   1.692   5.444   5.888 -0.0144  0.0426 -0.5803
  268MOL   O11638030   1.612   5.433   6.004  0.6658 -0.8613 -0.3607
  268MOL   H11738031   1.522   5.323   5.815 -0.3120  0.5156  0.8606
  268MOL   H11838032   1.683   5.263   5.769  0.2609 -0.4026  0.5345
  268MOL   H11938033   1.711   5.547   5.855 -1.3895  0.0869 -1.3012
  268MOL   H12038034   1.789   5.406   5.918  1.0310  2.8119 -0.2619
  268MOL   C12138035   1.646   5.521   6.103 -0.3351 -0.1504  0.3674
  268MOL   C12238036   1.568   5.490   6.233 -0.3563 -0.7935 -0.1790
  268MOL   O12338037   1.426   5.506   6.229 -0.1746  0.6208  0.3589
  268MOL   H12438038   1.754   5.519   6.118 -0.5893  0.1811  2.3541
  268MOL   H12538039   1.621   5.623   6.074  1.0672  0.1583  0.2188
  268MOL   H12638040   1.598   5.560   6.311  0.0701  0.7012 -1.6547
  268MOL   H12738041   1.590   5.395   6.283 -1.9950 -0.8897  0.3960
  268MOL   C12838042   1.344   5.391   6.185 -0.5428 -0.6583 -0.5604
  268MOL   C12938043   1.196   5.437   6.164  0.1155 -0.7211  0.0755
  268MOL   O13038044   1.146   5.493   6.286 -0.4131  0.6177  0.5511
  268MOL   H13138045   1.371   5.353   6.087  1.0236 -0.7992 -0.0996
  268MOL   H13238046   1.339   5.311   6.258 -1.6359 -0.5271 -0.4888
  268MOL   H13338047   1.139   5.351   6.128  1.6481 -1.5742 -0.3765
  268MOL   H13438048   1.174   5.512   6.088  1.5893 -0.0026  0.3417
  268MOL   C13538049   1.018   5.557   6.272  0.1349 -0.0911  0.1277
  268MOL   C13638050   0.985   5.620   6.406 -0.7911 -0.4220  0.1016
  268MOL   O13738051   0.842   5.636   6.423  0.2947 -0.0130 -0.8093
  268MOL   H13838052   1.023   5.639   6.199  2.0073  0.0828  0.4131
  268MOL   H13938053   0.943   5.483   6.245  0.8009 -0.6440 -0.2247
  268MOL   H14038054   1.039   5.714   6.413 -1.6375 -0.1075  2.5988
  268MOL   H14138055   1.013   5.544   6.478 -2.0399 -0.8747  0.1274
  268MOL   H14238056   0.834   5.622   6.516 -0.2647 -0.7447 -0.9719
  269MOL     C138057   7.131   0.855   2.093  0.7207  0.4231  0.0029
  269MOL     C238058   7.104   0.704   2.102  0.2955  0.4357 -0.3817
  269MOL     O338059   7.056   0.678   2.228 -0.5621  0.4601  0.1646
  269MOL     H438060   7.189   0.885   2.181  1.5323  0.3461 -0.4974
  269MOL     H538061   7.037   0.910   2.093 -0.3829 -1.4249  0.3136
  269MOL     H638062   7.202   0.660   2.084  0.4819  0.5184  0.3874
  269MOL     H738063   7.025   0.672   2.035  0.6422 -1.3298  0.0431
  269MOL     H838064   7.194   0.881   2.008 -0.4394  1.1218 -0.6616
  269MOL     C938065   7.034   0.536   2.239  0.3969 -0.2031  0.4182
  269MOL    C1038066   6.956   0.514   2.372 -0.2596 -0.8327 -0.0735
  269MOL    O1138067   6.820   0.533   2.372  0.1273  0.3829  0.4160
  269MOL    H1238068   6.973   0.505   2.154 -1.3099  1.9618  0.7894
  269MOL    H1338069   7.133   0.491   2.236 -0.1416 -1.2983 -2.0207
  269MOL    H1438070   6.994   0.575   2.454 -1.3694  2.0171 -1.6125
  269MOL    H1538071   6.970   0.409   2.397  0.1334 -0.7206  0.1757
  269MOL    C1638072   6.782   0.665   2.338 -0.0634 -0.2183  0.6707
  269MOL    C1738073   6.636   0.692   2.372 -1.2455  0.1153  0.3470
  269MOL    O1838074   6.564   0.725   2.247  0.0071  0.1530 -0.0929
  269MOL    H1938075   6.852   0.734   2.386  1.0414 -1.0236  0.2404
  269MOL    H2038076   6.792   0.683   2.231  0.7045 -0.6084  0.6731
  269MOL    H2138077   6.620   0.768   2.448  1.7652 -1.4221  2.6176
  269MOL    H2238078   6.596   0.608   2.429 -2.5909 -0.1306 -0.9354
  269MOL    C2338079   6.540   0.867   2.232  0.3728 -0.5222 -0.3929
  269MOL    C2438080   6.484   0.895   2.085  0.2628  0.1424 -0.0150
  269MOL    O2538081   6.580   0.926   1.986 -0.0078  0.5370  0.0226
  269MOL    H2638082   6.474   0.909   2.308  0.8266  0.0282 -0.3016
  269MOL    H2738083   6.643   0.900   2.238  0.1886 -0.2603  1.4709
  269MOL    H2838084   6.415   0.980   2.079 -0.5689 -0.6406 -2.2850
  269MOL    H2938085   6.432   0.810   2.041 -0.9487 -1.0449  3.5441
  269MOL    C3038086   6.671   0.821   1.952  0.3386 -0.1441  0.7261
  269MOL    C3138087   6.777   0.881   1.848 -0.6692 -0.6989 -0.9450
  269MOL    O3238088   6.719   0.915   1.724  0.8594 -0.5582  0.2812
  269MOL    H3338089   6.729   0.793   2.040  0.5373  1.8344  1.2609
  269MOL    H3438090   6.628   0.730   1.910 -0.7354  0.2271  1.0061
  269MOL    H3538091   6.853   0.804   1.836  1.4729  1.6165 -2.5728
  269MOL    H3638092   6.835   0.963   1.888 -0.1061 -1.0841 -0.9582
  269MOL    C3738093   6.795   1.006   1.646 -0.0584  0.2745  0.2568
  269MOL    C3838094   6.913   0.952   1.569 -0.4887  0.1418 -0.2753
  269MOL    O3938095   7.009   0.918   1.672 -0.5871 -0.2154  0.1813
  269MOL    H4038096   6.718   1.047   1.579 -2.3070 -2.5422  1.0346
  269MOL    H4138097   6.820   1.100   1.695 -2.5968  0.5373  1.1178
  269MOL    H4238098   6.954   1.006   1.484 -0.2190 -0.7527 -0.7218
  269MOL    H4338099   6.883   0.860   1.518 -1.3110 -0.2155  0.8324
  269MOL    C4438100   7.120   0.845   1.632 -0.5009 -0.2979  0.2167
  269MOL    C4538101   7.215   0.928   1.542  0.2581 -0.3638 -0.4000
  269MOL    O4638102   7.180   0.940   1.405 -0.2881 -0.1626  0.0893
  269MOL    H4738103   7.172   0.822   1.725 -0.5602  0.5507  0.4681
  269MOL    H4838104   7.090   0.749   1.592 -0.2101 -0.6493  0.8398
  269MOL    H4938105   7.316   0.888   1.537  0.6433  0.3779  1.0473
  269MOL    H5038106   7.221   1.021   1.600  1.5053 -0.7225  0.0633
  269MOL    C5138107   7.179   0.826   1.324  0.5912  0.6951 -0.6923
  269MOL    C5238108   7.094   0.851   1.207  0.5098 -0.2420  0.4488
  269MOL    O5338109   6.964   0.854   1.253  0.6209 -0.2501 -0.4555
  269MOL    H5438110   7.277   0.807   1.279 -0.6043 -2.8200 -2.0202
  269MOL    H5538111   7.163   0.732   1.378 -3.1799  1.2188 -0.7698
  269MOL    H5638112   7.111   0.770   1.136  2.3626  0.9976 -0.5667
  269MOL    H5738113   7.128   0.946   1.165  2.1578 -0.9074  0.2267
  269MOL    C5838114   6.868   0.844   1.154  0.6923 -0.1606  0.0796
  269MOL    C5938115   6.732   0.833   1.227 -0.3125 -0.2931 -0.3269
  269MOL    O6038116   6.665   0.956   1.229 -0.1020  0.0560  0.3871
  269MOL    H6138117   6.871   0.922   1.078 -1.0003 -0.1461  0.0026
  269MOL    H6238118   6.890   0.751   1.100 -0.8122 -0.5689  0.1365
  269MOL    H6338119   6.749   0.812   1.332  0.0004 -0.6468 -0.4481
  269MOL    H6438120   6.675   0.748   1.189  2.2750 -1.5835 -1.4512
  269MOL    C6538121   6.549   0.962   1.312 -0.0638 -0.1439  0.1913
  269MOL    C6638122   6.429   0.878   1.262  0.5395 -0.0452  0.8305
  269MOL    O6738123   6.401   0.924   1.128  0.1494 -0.0239 -0.0110
  269MOL    H6838124   6.575   0.937   1.415  1.9059  0.6052 -0.0911
  269MOL    H6938125   6.520   1.067   1.306 -2.0072 -0.7067 -0.4869
  269MOL    H7038126   6.340   0.892   1.323 -1.2880 -0.8458 -1.5709
  269MOL    H7138127   6.460   0.774   1.278  1.5570  0.1287  0.0149
  269MOL    C7238128   6.298   0.850   1.065  0.8901  0.5696  0.4024
  269MOL    C7338129   6.293   0.910   0.921 -0.0345  0.5693  0.1493
  269MOL    O7438130   6.379   0.840   0.829  0.4925 -0.4028 -0.3132
  269MOL    H7538131   6.316   0.744   1.077 -0.3280  0.2521 -0.5504
  269MOL    H7638132   6.206   0.878   1.116  1.0166  0.1065  0.8773
  269MOL    H7738133   6.321   1.014   0.934 -0.9165  0.6568  1.4490
  269MOL    H7838134   6.195   0.901   0.874  0.7888 -1.2790 -1.3078
  269MOL    C7938135   6.371   0.887   0.697 -0.5438 -0.1544 -0.2934
  269MOL    C8038136   6.466   0.807   0.602 -0.5438 -0.1192 -0.2240
  269MOL    O8138137   6.405   0.696   0.541 -0.3875  0.2534  0.0483
  269MOL    H8238138   6.272   0.878   0.651 -0.1644  0.1281 -1.1559
  269MOL    H8338139   6.402   0.990   0.684  0.4634 -0.3610  0.4690
  269MOL    H8438140   6.562   0.786   0.650 -0.0857 -0.6288 -1.3500
  269MOL    H8538141   6.500   0.881   0.530 -2.6132  0.2627 -0.8284
  269MOL    C8638142   6.478   0.654   0.425 -0.6339 -0.2657 -0.0746
  269MOL    C8738143   6.415   0.534   0.367 -0.2020  0.1232 -0.3937
  269MOL    O8838144   6.427   0.424   0.465 -0.0589  0.1265  0.9777
  269MOL    H8938145   6.492   0.726   0.344  0.2003  1.6778  1.7404
  269MOL    H9038146   6.582   0.639   0.453 -0.1824  0.8739 -1.0688
  269MOL    H9138147   6.449   0.507   0.268 -3.3374  0.2160 -1.5521
  269MOL    H9238148   6.310   0.559   0.353  0.2542  1.9180 -0.8172
  269MOL    C9338149   6.499   0.311   0.414 -0.7881  0.4391  0.4168
  269MOL    C9438150   6.657   0.327   0.409  0.5837  0.8740 -0.6450
  269MOL    O9538151   6.702   0.405   0.297  0.4418 -0.1458 -0.0549
  269MOL    H9638152   6.494   0.234   0.491 -0.7241  2.1188  2.1190
  269MOL    H9738153   6.449   0.269   0.326  2.5982 -2.7759 -0.1059
  269MOL    H9838154   6.694   0.226   0.394 -0.8895  0.2985 -0.4709
  269MOL    H9938155   6.688   0.375   0.502 -0.5660  1.1140 -0.3793
  269MOL   C10038156   6.807   0.490   0.324  0.1444  0.1511 -1.4360
  269MOL   C10138157   6.857   0.567   0.202 -0.0377 -0.5510  0.1308
  269MOL   O10238158   6.757   0.666   0.180  0.2348  0.0661 -0.1228
  269MOL   H10338159   6.781   0.564   0.399  0.0984 -0.6940 -0.6122
  269MOL   H10438160   6.886   0.432   0.371 -0.8674 -1.7429 -2.0022
  269MOL   H10538161   6.849   0.505   0.113 -0.9939  0.1307 -0.2649
  269MOL   H10638162   6.953   0.617   0.204 -0.3782  0.1374 -0.8773
  269MOL   C10738163   6.763   0.731   0.050 -0.5343  0.2829 -0.4377
  269MOL   C10838164   6.654   0.828   0.032  0.3671 -0.4530 -0.0232
  269MOL   O10938165   6.540   0.742   0.044 -0.0989 -0.3831  0.3501
  269MOL   H11038166   6.860   0.780   0.054  0.9740 -2.4440 -1.8957
  269MOL   H11138167   6.774   0.657   7.741  3.0383 -0.1324  0.3348
  269MOL   H11238168   6.656   0.863   7.700  1.2479  2.4587  0.9250
  269MOL   H11338169   6.657   0.899   0.115  3.5273 -0.0145 -0.4184
  269MOL   C11438170   6.419   0.816   0.023  0.6083 -0.2460 -0.2843
  269MOL   C11538171   6.294   0.731   0.054 -0.4809 -0.4679 -0.3276
  269MOL   O11638172   6.263   0.639   7.729  0.3805  0.0290 -0.0651
  269MOL   H11738173   6.414   0.902   0.090 -1.5304 -2.6942  2.8767
  269MOL   H11838174   6.424   0.854   7.692 -2.3652 -0.2699 -0.4743
  269MOL   H11938175   6.204   0.792   0.052 -0.0779  0.0836 -3.0178
  269MOL   H12038176   6.320   0.691   0.152  1.1520  0.2115 -0.4710
  269MOL   C12138177   6.212   0.687   7.605 -0.1775  0.4536  0.0589
  269MOL   C12238178   6.181   0.575   7.503  0.4422  0.0125  0.6046
  269MOL   O12338179   6.064   0.507   7.538 -0.4871 -0.1160  0.4530
  269MOL   H12438180   6.117   0.733   7.631 -0.1463  0.7856 -0.4218
  269MOL   H12538181   6.278   0.762   7.562  0.7393 -0.3854 -0.0286
  269MOL   H12638182   6.267   0.507   7.499  0.4142  0.0462 -0.9342
  269MOL   H12738183   6.175   0.608   7.399  2.3936  0.0587  0.4894
  269MOL   C12838184   6.034   0.403   7.448 -0.0538 -0.1725  0.2585
  269MOL   C12938185   5.892   0.341   7.477 -0.1507  0.0262 -0.3496
  269MOL   O13038186   5.785   0.426   7.439  0.7941 -0.0468 -0.1137
  269MOL   H13138187   6.055   0.436   7.346 -2.6495  1.8036  0.3103
  269MOL   H13238188   6.108   0.323   7.457  1.3157  0.9364 -0.7679
  269MOL   H13338189   5.879   0.339   7.586  2.4698  0.6848 -0.0058
  269MOL   H13438190   5.875   0.240   7.441  0.4284 -0.3361  0.3822
  269MOL   C13538191   5.659   0.372   7.476 -0.4180  0.2194 -0.1061
  269MOL   C13638192   5.544   0.471   7.441 -0.7076 -0.1733 -0.0314
  269MOL   O13738193   5.489   0.521   7.566 -0.8254  1.0018  0.2075
  269MOL   H13838194   5.647   0.277   7.424  0.5239 -0.1972  0.4190
  269MOL   H13938195   5.650   0.343   7.581  0.1784 -0.6264 -0.2794
  269MOL   H14038196   5.479   0.423   7.369  0.7857 -0.3594 -1.2788
  269MOL   H14138197   5.587   0.557   7.389 -1.1427  0.1327  0.1076
  269MOL   H14238198   5.565   0.556   7.610  0.6488  1.6295 -2.7201
  270MOL     C138199   4.603   4.585   2.416  0.7876  0.2934 -0.5514
  270MOL     C238200   4.539   4.630   2.292 -0.1223 -0.0194  0.0985
  270MOL     O338201   4.466   4.752   2.306  0.7955  0.7927 -0.1881
  270MOL     H438202   4.616   4.477   2.421  3.0012  0.4916 -1.2397
  270MOL     H538203   4.544   4.626   2.498  1.1604 -0.0475 -0.1093
  270MOL     H638204   4.472   4.549   2.265  1.9726 -1.4283 -1.0179
  270MOL     H738205   4.614   4.634   2.213  0.2249  0.7183  0.4599
  270MOL     H838206   4.700   4.635   2.419  1.1477 -0.3864 -0.9428
  270MOL     C938207   4.468   4.829   2.187 -0.2848 -0.5365 -0.1475
  270MOL    C1038208   4.421   4.977   2.214 -0.3916 -0.1213 -0.5090
  270MOL    O1138209   4.522   5.058   2.265  0.1730  0.1059 -0.0771
  270MOL    H1238210   4.574   4.842   2.164 -0.3585 -0.0848 -0.2380
  270MOL    H1338211   4.412   4.781   2.106  1.8121 -0.2704 -1.7930
  270MOL    H1438212   4.329   4.978   2.272  0.3818  0.4120  0.7410
  270MOL    H1538213   4.399   5.012   2.113 -1.5889 -2.0117 -0.9329
  270MOL    C1638214   4.462   5.185   2.280 -0.4332  0.9926  0.7817
  270MOL    C1738215   4.566   5.274   2.363 -0.6323 -0.1101  0.3398
  270MOL    O1838216   4.649   5.364   2.297 -0.3312 -0.5566 -0.2777
  270MOL    H1938217   4.447   5.235   2.184 -0.4702  2.7387  1.6835
  270MOL    H2038218   4.369   5.180   2.336 -1.7138  0.0303 -1.3801
  270MOL    H2138219   4.626   5.202   2.420 -1.5985 -1.6813 -0.5750
  270MOL    H2238220   4.511   5.329   2.439  0.4607 -0.8236  1.6955
  270MOL    C2338221   4.735   5.308   2.198  0.6179 -0.2837  0.0837
  270MOL    C2438222   4.826   5.419   2.146 -0.2606  0.1391  0.2158
  270MOL    O2538223   4.770   5.511   2.051  0.4300  0.2476  0.2050
  270MOL    H2638224   4.800   5.235   2.247 -0.9828 -0.6862  1.6686
  270MOL    H2738225   4.684   5.265   2.112  1.2899 -0.9141 -0.0064
  270MOL    H2838226   4.915   5.385   2.094  0.5000 -1.4500  2.5031
  270MOL    H2938227   4.865   5.471   2.233  1.6460 -0.6527 -0.1369
  270MOL    C3038228   4.662   5.587   2.095 -0.2949 -0.1596 -0.8767
  270MOL    C3138229   4.678   5.719   2.008  0.6716  0.0385 -0.9227
  270MOL    O3238230   4.555   5.779   1.990  0.1145 -0.1961  0.0523
  270MOL    H3338231   4.569   5.533   2.077  1.3632 -3.1913 -0.6694
  270MOL    H3438232   4.670   5.608   2.201 -1.3827 -1.6852 -0.4691
  270MOL    H3538233   4.713   5.700   1.906  0.1109  0.9298 -1.2863
  270MOL    H3638234   4.747   5.780   2.065  1.1222  0.0421 -1.4696
  270MOL    C3738235   4.554   5.904   1.913  0.1714  0.6541  0.1696
  270MOL    C3838236   4.413   5.964   1.908 -0.3372 -0.7979  0.3980
  270MOL    O3938237   4.361   5.989   2.037  0.5506 -0.4080  0.1548
  270MOL    H4038238   4.624   5.960   1.974  0.1180  2.1663 -1.1442
  270MOL    H4138239   4.596   5.891   1.814  3.3642  2.1737  1.2765
  270MOL    H4238240   4.349   5.891   1.859 -0.2842  0.0495 -0.9619
  270MOL    H4338241   4.419   6.051   1.843 -2.2686 -1.2115 -0.3767
  270MOL    C4438242   4.228   6.036   2.037  0.5508  0.5730  0.8126
  270MOL    C4538243   4.172   6.041   2.175  0.1867 -0.7202  0.1000
  270MOL    O4638244   4.156   6.174   2.228 -0.2081  0.3254  0.3853
  270MOL    H4738245   4.208   6.131   1.987 -1.3408 -0.1561  0.1106
  270MOL    H4838246   4.169   5.963   1.981 -0.9198  0.9875  1.7746
  270MOL    H4938247   4.224   5.981   2.250 -1.7683 -1.5778  0.7996
  270MOL    H5038248   4.070   6.003   2.182  1.4087 -4.0884  0.8544
  270MOL    C5138249   4.285   6.234   2.238 -0.2380 -0.6678  0.2247
  270MOL    C5238250   4.265   6.362   2.328 -0.5240 -0.3948 -0.2042
  270MOL    O5338251   4.390   6.424   2.348 -0.4272  0.0561  0.1988
  270MOL    H5438252   4.359   6.178   2.296 -0.1676 -1.3567 -0.5247
  270MOL    H5538253   4.327   6.254   2.140  1.1507 -1.3818  0.6464
  270MOL    H5638254   4.206   6.339   2.416  1.0160 -2.3363  0.3696
  270MOL    H5738255   4.214   6.437   2.268 -0.0713  2.1980  2.5005
  270MOL    C5838256   4.387   6.525   2.451 -0.0230  0.0885  0.1270
  270MOL    C5938257   4.513   6.612   2.444 -0.5827  0.2668 -0.0738
  270MOL    O6038258   4.484   6.722   2.354 -0.3247  0.8704 -0.5669
  270MOL    H6138259   4.296   6.584   2.445 -0.4352 -0.7569 -2.6687
  270MOL    H6238260   4.378   6.479   2.550  0.4733  0.3673  0.3046
  270MOL    H6338261   4.584   6.537   2.408 -1.9751 -2.1635  2.0768
  270MOL    H6438262   4.540   6.652   2.542 -1.1534  0.2618  0.0843
  270MOL    C6538263   4.599   6.791   2.319  0.6055  0.4978 -0.3808
  270MOL    C6638264   4.553   6.878   2.201 -0.7892  0.4000  0.0067
  270MOL    O6738265   4.464   6.975   2.255 -0.1912  0.1931 -0.1182
  270MOL    H6838266   4.627   6.854   2.403 -1.1178 -1.7067  1.9412
  270MOL    H6938267   4.686   6.729   2.299  0.9978  1.4319 -1.6311
  270MOL    H7038268   4.508   6.813   2.126  1.9153 -1.9365  0.3105
  270MOL    H7138269   4.634   6.933   2.154  0.0047  0.2231  1.1348
  270MOL    C7238270   4.366   7.024   2.162 -0.3927  0.2931 -0.8078
  270MOL    C7338271   4.280   7.135   2.219  0.8833  0.6796 -0.4113
  270MOL    O7438272   4.177   7.094   2.308  0.3063  0.0137 -0.0297
  270MOL    H7538273   4.421   7.067   2.078 -0.2483  0.8767 -0.4134
  270MOL    H7638274   4.305   6.943   2.123 -1.2398  0.4574  0.1611
  270MOL    H7738275   4.226   7.185   2.139  1.7553  0.2362 -1.2817
  270MOL    H7838276   4.342   7.210   2.268  2.0147  0.0775 -0.8809
  270MOL    C7938277   4.226   7.047   2.435  0.1954 -0.6144 -0.2281
  270MOL    C8038278   4.235   6.893   2.449  0.2676 -0.2693 -0.4167
  270MOL    O8138279   4.102   6.848   2.491 -0.1297 -0.6390 -0.1816
  270MOL    H8238280   4.327   7.081   2.457  0.3699  0.4432 -2.5731
  270MOL    H8338281   4.161   7.096   2.507  0.2397  0.9794 -1.2561
  270MOL    H8438282   4.304   6.878   2.531  2.6273 -0.3351 -2.3488
  270MOL    H8538283   4.272   6.843   2.359 -2.0166 -1.1688 -0.8873
  270MOL    C8638284   4.013   6.802   2.385  0.7356 -0.0682 -0.2915
  270MOL    C8738285   3.902   6.720   2.457 -0.2277 -0.9645  0.5517
  270MOL    O8838286   3.936   6.589   2.509  0.5278 -0.5781  0.5225
  270MOL    H8938287   3.968   6.883   2.328 -0.0336  0.2196  0.7110
  270MOL    H9038288   4.068   6.731   2.323  1.8917 -0.3515  1.0408
  270MOL    H9138289   3.824   6.690   2.388  0.5596 -1.8956  0.0539
  270MOL    H9238290   3.854   6.776   2.537  3.8491  2.0992  1.0426
  270MOL    C9338291   3.987   6.579   2.647  0.0667  0.0979  0.3318
  270MOL    C9438292   3.938   6.452   2.702 -0.6401  0.6346  0.3293
  270MOL    O9538293   3.814   6.497   2.754 -0.4478  0.2360  0.2467
  270MOL    H9638294   4.095   6.593   2.633  0.4180 -1.5517  1.2747
  270MOL    H9738295   3.952   6.667   2.700  1.7973  0.4398  0.9491
  270MOL    H9838296   4.000   6.417   2.785  0.5246  1.6282 -0.0948
  270MOL    H9938297   3.927   6.374   2.627 -3.6068  0.0283  1.3211
  270MOL   C10038298   3.739   6.397   2.810 -0.5932 -0.1386 -0.0254
  270MOL   C10138299   3.600   6.451   2.838 -0.3545  0.8957 -0.3266
  270MOL   O10238300   3.608   6.509   2.964 -0.3283  0.6805 -0.2529
  270MOL   H10338301   3.736   6.318   2.735 -0.2780 -0.6433  0.4823
  270MOL   H10438302   3.784   6.361   2.903 -1.2829 -2.2830 -0.4830
  270MOL   H10538303   3.534   6.364   2.851  2.5705 -1.5221 -1.0836
  270MOL   H10638304   3.553   6.519   2.768 -0.5039  2.3863  1.1851
  270MOL   C10738305   3.485   6.565   3.000 -0.0820 -0.0948  0.9781
  270MOL   C10838306   3.490   6.597   3.148  0.0813  0.4231 -0.5454
  270MOL   O10938307   3.554   6.723   3.185  0.4735 -0.3622  0.6167
  270MOL   H11038308   3.448   6.654   2.950 -1.9357 -2.2418 -1.6375
  270MOL   H11138309   3.408   6.491   2.980 -0.5242  0.7225 -0.3745
  270MOL   H11238310   3.536   6.517   3.206  1.1081  2.2809  1.2318
  270MOL   H11338311   3.386   6.600   3.181 -0.1836 -0.5643 -1.2470
  270MOL   C11438312   3.693   6.710   3.183  0.3514 -0.0975  0.1455
  270MOL   C11538313   3.750   6.849   3.208  0.4484  0.3697 -0.3409
  270MOL   O11638314   3.782   6.875   3.343 -0.1124 -0.0824  0.5231
  270MOL   H11738315   3.717   6.642   3.265 -0.1939  0.6714  0.9538
  270MOL   H11838316   3.719   6.693   3.078 -0.8601  1.2414 -0.3958
  270MOL   H11938317   3.688   6.924   3.160  1.9218 -0.2299 -3.2799
  270MOL   H12038318   3.839   6.858   3.146 -0.3267  0.5838 -1.4320
  270MOL   C12138319   3.857   6.992   3.365  0.3845  0.1378 -0.9266
  270MOL   C12238320   3.851   7.034   3.507  0.2607 -0.1645 -1.1093
  270MOL   O12338321   3.901   6.924   3.591  0.7297 -0.2025 -0.6410
  270MOL   H12438322   3.959   6.974   3.332  0.3045  0.4570 -1.3496
  270MOL   H12538323   3.822   7.076   3.306  3.0532  0.3140 -2.3364
  270MOL   H12638324   3.755   7.061   3.549  0.3131 -1.5393 -0.0784
  270MOL   H12738325   3.921   7.115   3.528 -2.4068  1.2923  2.8105
  270MOL   C12838326   3.810   6.835   3.652 -0.3898 -0.1091  0.4651
  270MOL   C12938327   3.762   6.884   3.794  0.7329 -0.1713  0.5894
  270MOL   O13038328   3.857   6.863   3.898  0.5116 -0.3574 -0.9974
  270MOL   H13138329   3.737   6.813   3.574 -0.1902  0.0457  0.2349
  270MOL   H13238330   3.857   6.736   3.658 -0.0438  0.1568  2.8623
  270MOL   H13338331   3.676   6.822   3.820  0.9831 -0.3651  0.9496
  270MOL   H13438332   3.737   6.990   3.789 -1.2171 -0.6383 -0.3714
  270MOL   C13538333   3.816   6.902   4.029  0.6071  0.8054  0.5216
  270MOL   C13638334   3.911   6.839   4.131  0.2226  0.4331  0.4656
  270MOL   O13738335   3.866   6.882   4.257 -0.4038 -0.1676  0.0250
  270MOL   H13838336   3.824   7.011   4.023  0.1442  0.7670 -0.7825
  270MOL   H13938337   3.713   6.873   4.049  0.2232  0.4807 -1.8044
  270MOL   H14038338   4.008   6.883   4.108 -0.4827  0.1626 -3.2382
  270MOL   H14138339   3.913   6.731   4.118 -1.1468  0.6559 -1.8349
  270MOL   H14238340   3.933   6.944   4.284 -1.8164  1.4240 -0.0285
  271MOL     C138341   4.757   2.605   0.298  0.0657 -0.2617  0.8138
  271MOL     C238342   4.757   2.530   0.435 -0.3120 -0.3492  0.6843
  271MOL     O338343   4.649   2.569   0.521  0.3645 -0.0320 -0.3696
  271MOL     H438344   4.660   2.615   0.250  0.9966  0.0364 -1.0468
  271MOL     H538345   4.827   2.554   0.232  1.4656  0.3169  1.8358
  271MOL     H638346   4.851   2.536   0.490  1.9135  0.4545 -3.0558
  271MOL     H738347   4.751   2.422   0.421  0.1647 -0.3439  0.4492
  271MOL     H838348   4.794   2.704   0.326  0.2471  0.2751 -1.2313
  271MOL     C938349   4.671   2.695   0.585  0.0858 -0.4016  0.0428
  271MOL    C1038350   4.542   2.752   0.645  0.5482 -0.9602 -0.5815
  271MOL    O1138351   4.469   2.837   0.562 -0.1356  0.6767  0.1478
  271MOL    H1238352   4.750   2.675   0.657  1.8247 -2.0116 -2.2251
  271MOL    H1338353   4.724   2.764   0.519  1.3716 -0.5081  0.9299
  271MOL    H1438354   4.560   2.797   0.743  0.6777 -0.3661 -0.8725
  271MOL    H1538355   4.467   2.679   0.675 -0.1384  0.0136  0.1152
  271MOL    C1638356   4.413   2.776   0.441 -0.6630 -0.0284  0.1553
  271MOL    C1738357   4.344   2.887   0.356  0.2662  0.5732  0.5198
  271MOL    O1838358   4.437   2.973   0.299  0.0305  0.1557 -0.1319
  271MOL    H1938359   4.482   2.723   0.375  0.3219 -1.0188  1.9482
  271MOL    H2038360   4.337   2.701   0.461 -0.3337 -0.2917  0.4206
  271MOL    H2138361   4.287   2.948   0.426  1.2795 -1.2990  3.0675
  271MOL    H2238362   4.275   2.838   0.286  1.7420  1.4771 -1.5996
  271MOL    C2338363   4.510   2.916   0.187 -0.3033 -0.1405 -0.3402
  271MOL    C2438364   4.601   3.005   0.111 -0.3695 -0.1397  0.8254
  271MOL    O2538365   4.738   3.015   0.152 -0.7489  0.5065 -0.4145
  271MOL    H2638366   4.569   2.831   0.220 -0.5077  0.4107  1.4716
  271MOL    H2738367   4.441   2.869   0.117  1.0308 -2.9354  0.1699
  271MOL    H2838368   4.560   3.106   0.119 -1.8421 -0.5102 -1.4556
  271MOL    H2938369   4.600   2.975   0.006 -0.3908 -0.4780  0.9243
  271MOL    C3038370   4.756   3.087   0.278 -0.2070 -0.3488 -0.1591
  271MOL    C3138371   4.896   3.085   0.325  0.3836 -0.1840 -0.4413
  271MOL    O3238372   4.913   2.966   0.404  0.3050 -0.0126 -0.8039
  271MOL    H3338373   4.722   3.189   0.262 -4.3011 -1.5025  0.6606
  271MOL    H3438374   4.692   3.046   0.356  0.8179  0.4137  1.0827
  271MOL    H3538375   4.906   3.173   0.389  1.3994 -0.5096 -0.1436
  271MOL    H3638376   4.955   3.087   0.234  0.0490 -0.1947 -0.6573
  271MOL    C3738377   5.041   2.965   0.466 -0.6270 -0.3298  0.0866
  271MOL    C3838378   5.040   2.853   0.570 -0.2924 -0.5576 -0.1043
  271MOL    O3938379   5.161   2.829   0.631  0.2921 -0.2944 -0.2998
  271MOL    H4038380   5.109   2.948   0.382 -1.2852 -0.9370 -0.3294
  271MOL    H4138381   5.068   3.056   0.520 -1.1278 -1.0538  1.5834
  271MOL    H4238382   5.022   2.762   0.512 -0.3712  0.7329 -2.1747
  271MOL    H4338383   4.962   2.864   0.645  1.5499 -3.5910  2.4003
  271MOL    C4438384   5.180   2.701   0.688  0.0278  0.1290 -0.0863
  271MOL    C4538385   5.191   2.582   0.596 -0.7964 -0.8282  0.7856
  271MOL    O4638386   5.184   2.476   0.690 -0.0384  0.4106 -0.3831
  271MOL    H4738387   5.277   2.695   0.737  0.2342 -1.0195 -0.6307
  271MOL    H4838388   5.109   2.684   0.769 -0.3665  1.2968 -0.1656
  271MOL    H4938389   5.284   2.584   0.540 -2.0925 -0.3453 -1.4074
  271MOL    H5038390   5.107   2.577   0.527 -1.0501  1.0852  0.9386
  271MOL    C5138391   5.208   2.351   0.635  0.2084  0.1381 -0.6544
  271MOL    C5238392   5.190   2.239   0.733  0.5657  0.3721 -0.3446
  271MOL    O5338393   5.053   2.229   0.778  0.2342 -0.2988  0.3365
  271MOL    H5438394   5.139   2.336   0.551 -3.3814 -1.2233  2.3759
  271MOL    H5538395   5.303   2.347   0.582  0.8707 -0.6375  0.5720
  271MOL    H5638396   5.253   2.265   0.818 -1.6030 -1.8561  2.0541
  271MOL    H5738397   5.221   2.150   0.678  0.9291  0.1462  0.2231
  271MOL    C5838398   5.025   2.112   0.857  0.0300 -0.7660 -0.3267
  271MOL    C5938399   5.065   2.110   1.003 -0.8767  0.2446  0.0441
  271MOL    O6038400   5.171   2.015   1.012 -0.7048  0.0480 -0.0298
  271MOL    H6138401   4.916   2.109   0.870  0.2377 -0.1017  1.8003
  271MOL    H6238402   5.039   2.015   0.810  1.0756 -0.5183 -0.5335
  271MOL    H6338403   4.984   2.066   1.061  0.0730 -0.2458  1.0182
  271MOL    H6438404   5.079   2.210   1.044  0.6716 -0.1096  0.4176
  271MOL    C6538405   5.263   2.042   1.117 -1.0439  0.5228 -0.6219
  271MOL    C6638406   5.356   1.916   1.109 -0.2893  0.5118  0.6991
  271MOL    O6738407   5.300   1.807   1.182 -0.1511 -0.0889  0.6336
  271MOL    H6838408   5.327   2.128   1.096 -2.8871  2.3928  1.2387
  271MOL    H6938409   5.224   2.053   1.217  0.4640  0.9782 -0.0686
  271MOL    H7038410   5.456   1.937   1.146  0.4256  0.2496 -1.0573
  271MOL    H7138411   5.373   1.891   1.004  1.3724 -2.6564  1.6490
  271MOL    C7238412   5.398   1.709   1.219  0.6423 -0.3812 -0.1447
  271MOL    C7338413   5.341   1.612   1.322  0.3614 -0.3578 -0.3543
  271MOL    O7438414   5.319   1.688   1.438  0.4573  0.3133 -0.1753
  271MOL    H7538415   5.442   1.657   1.134 -0.7159  0.5351 -1.4302
  271MOL    H7638416   5.481   1.746   1.281 -0.6658 -0.9656  2.0049
  271MOL    H7738417   5.414   1.538   1.354  1.0101  0.5655  0.3207
  271MOL    H7838418   5.249   1.567   1.283  0.0796  0.9041 -1.1904
  271MOL    C7938419   5.290   1.610   1.552  0.4191 -0.1243 -0.1989
  271MOL    C8038420   5.238   1.704   1.661  0.9394  0.2215 -0.1173
  271MOL    O8138421   5.115   1.772   1.616  0.9252 -0.3751 -0.2175
  271MOL    H8238422   5.218   1.530   1.534 -0.5466  0.9026 -0.9190
  271MOL    H8338423   5.379   1.563   1.595  0.6803 -1.5390 -2.1784
  271MOL    H8438424   5.311   1.778   1.695 -0.0076  0.7304  0.8043
  271MOL    H8538425   5.215   1.647   1.751 -0.1983  0.5943 -0.1659
  271MOL    C8638426   5.072   1.887   1.688 -0.2449  0.1224 -0.1645
  271MOL    C8738427   5.025   1.838   1.828 -0.2185 -0.7327 -0.1221
  271MOL    O8838428   5.135   1.810   1.917 -0.0202 -0.2934 -0.0016
  271MOL    H8938429   5.151   1.963   1.689 -0.1297  0.0077 -0.4930
  271MOL    H9038430   4.990   1.928   1.629  1.7480  1.1674 -2.2622
  271MOL    H9138431   4.963   1.751   1.812 -1.9735  0.5648 -0.5139
  271MOL    H9238432   4.959   1.912   1.873  0.6329 -0.3568  0.5458
  271MOL    C9338433   5.090   1.746   2.038 -0.6519  0.4710 -0.2896
  271MOL    C9438434   5.217   1.726   2.117 -0.1597 -0.6439 -0.3463
  271MOL    O9538435   5.262   1.837   2.186  0.2725 -0.4827 -0.1394
  271MOL    H9638436   5.021   1.804   2.099  0.5567 -0.6651  2.2382
  271MOL    H9738437   5.045   1.649   2.015 -0.9466  0.6798 -0.5870
  271MOL    H9838438   5.290   1.682   2.050  0.3467 -2.3334  1.2570
  271MOL    H9938439   5.194   1.658   2.200 -0.2522 -0.1657  0.0240
  271MOL   C10038440   5.188   1.910   2.277 -0.1204 -0.4347 -0.0163
  271MOL   C10138441   5.270   2.023   2.342  0.3983  0.4701 -0.0166
  271MOL   O10238442   5.262   2.140   2.257 -0.3731  0.0931 -0.1290
  271MOL   H10338443   5.107   1.969   2.235 -0.9057 -0.8618  0.8886
  271MOL   H10438444   5.151   1.836   2.348 -1.3395  0.5315  0.3654
  271MOL   H10538445   5.372   1.984   2.346 -0.2427 -1.5341 -1.8635
  271MOL   H10638446   5.216   2.048   2.433 -1.3200  0.2854 -0.9476
  271MOL   C10738447   5.320   2.250   2.329 -0.2463 -0.9435 -0.2704
  271MOL   C10838448   5.469   2.234   2.318  0.1446 -0.2378  0.4738
  271MOL   O10938449   5.527   2.331   2.403  0.3234  0.3075 -0.3902
  271MOL   H11038450   5.294   2.342   2.277  0.1845  0.4569  1.9309
  271MOL   H11138451   5.281   2.266   2.429  1.8139 -0.8960  0.5382
  271MOL   H11238452   5.508   2.258   2.219 -0.2531 -0.1989  0.3260
  271MOL   H11338453   5.507   2.138   2.353  1.6818  0.4601  0.7699
  271MOL   C11438454   5.663   2.358   2.383  0.3859 -0.1857 -0.7546
  271MOL   C11538455   5.706   2.446   2.503  0.1060 -0.1355  0.1739
  271MOL   O11638456   5.622   2.558   2.499 -0.7268  0.4814 -0.0342
  271MOL   H11738457   5.715   2.262   2.386  1.3813  0.4028  1.8399
  271MOL   H11838458   5.687   2.400   2.285  1.6380 -0.0317 -0.3955
  271MOL   H11938459   5.814   2.465   2.501 -0.2803  2.2058 -0.2951
  271MOL   H12038460   5.691   2.387   2.594 -2.6428 -1.0128 -0.8176
  271MOL   C12138461   5.665   2.672   2.565 -0.5615  0.1771 -0.6366
  271MOL   C12238462   5.690   2.659   2.720  0.5108 -0.0091  0.0013
  271MOL   O12338463   5.785   2.555   2.743  0.6074 -0.1085  0.3709
  271MOL   H12438464   5.758   2.718   2.530  1.1913 -2.8253 -0.1677
  271MOL   H12538465   5.589   2.748   2.552 -1.7652 -0.5427  1.7963
  271MOL   H12638466   5.593   2.632   2.761 -0.0364 -0.2435 -1.4094
  271MOL   H12738467   5.726   2.749   2.769 -1.3320  1.3926 -1.1514
  271MOL   C12838468   5.826   2.525   2.874  0.4156  0.0656 -0.3750
  271MOL   C12938469   5.709   2.453   2.954 -0.1365  0.1004 -0.6146
  271MOL   O13038470   5.613   2.546   3.011 -0.6324  0.5414 -0.1022
  271MOL   H13138471   5.911   2.458   2.859  0.0799  0.1159 -2.5191
  271MOL   H13238472   5.861   2.615   2.925 -0.0649  0.1136 -0.1328
  271MOL   H13338473   5.757   2.392   3.031  1.9089  3.5122  0.9241
  271MOL   H13438474   5.669   2.368   2.899  0.9219  0.1897 -1.5185
  271MOL   C13538475   5.648   2.632   3.113  0.0188  0.2812 -0.1953
  271MOL   C13638476   5.536   2.741   3.113  0.0251 -0.6306  0.0982
  271MOL   O13738477   5.422   2.670   3.166 -0.1209 -0.3270 -0.6060
  271MOL   H13838478   5.661   2.581   3.208 -0.5995 -0.9007 -0.7333
  271MOL   H13938479   5.745   2.674   3.088 -0.8919  1.7840 -1.3331
  271MOL   H14038480   5.512   2.774   3.012 -1.9096  1.6369  1.2509
  271MOL   H14138481   5.578   2.824   3.169  0.7104  0.9085 -2.6475
  271MOL   H14238482   5.418   2.595   3.109 -1.5477 -2.7925  2.6396
  272MOL     C138483   2.268   3.245   6.814 -0.0292  0.5482 -0.5889
  272MOL     C238484   2.144   3.152   6.814 -0.0594  0.0407 -0.1139
  272MOL     O338485   2.153   3.046   6.913 -0.7765 -0.4150  0.5746
  272MOL     H438486   2.280   3.293   6.717 -1.9042  1.5490 -0.3447
  272MOL     H538487   2.357   3.182   6.826 -0.1413  0.7416  1.4528
  272MOL     H638488   2.124   3.107   6.717 -0.8627 -0.8018  0.4268
  272MOL     H738489   2.055   3.198   6.859 -1.3558 -2.1745 -0.3378
  272MOL     H838490   2.275   3.311   6.901  3.8257 -0.0751 -0.3161
  272MOL     C938491   2.045   2.948   6.901 -1.1540  0.1702  0.3062
  272MOL    C1038492   2.068   2.832   6.993 -0.2664 -0.7981  0.3662
  272MOL    O1138493   1.966   2.736   6.960 -0.5365 -0.4503  0.1121
  272MOL    H1238494   1.957   2.998   6.942 -1.1812 -0.3040  0.8318
  272MOL    H1338495   2.032   2.927   6.795 -0.3274 -1.8117  0.5800
  272MOL    H1438496   2.071   2.853   7.100 -0.3983 -1.5791  0.5195
  272MOL    H1538497   2.168   2.797   6.971  0.4353  2.5912 -2.3161
  272MOL    C1638498   2.015   2.603   6.993 -0.1319 -0.5342  0.3628
  272MOL    C1738499   1.906   2.505   6.961  0.6955  0.3600 -0.1012
  272MOL    O1838500   1.841   2.470   7.074 -0.0600  0.1153 -0.2843
  272MOL    H1938501   2.100   2.570   6.932  0.1187  0.7101  0.0358
  272MOL    H2038502   2.035   2.593   7.099  0.3344  0.2429  0.3495
  272MOL    H2138503   1.943   2.415   6.912  0.2412  0.4962 -0.6906
  272MOL    H2238504   1.839   2.547   6.886  0.2602 -1.0103 -0.4924
  272MOL    C2338505   1.726   2.382   7.051 -0.3192 -0.0016 -0.3397
  272MOL    C2438506   1.619   2.380   7.167 -0.0796 -0.4771  0.4656
  272MOL    O2538507   1.566   2.510   7.178  0.1340 -0.0803 -0.0145
  272MOL    H2638508   1.677   2.401   6.955 -1.3060  1.5518  0.4413
  272MOL    H2738509   1.756   2.278   7.042  1.0585  0.2050  1.5652
  272MOL    H2838510   1.664   2.355   7.263 -1.6774 -2.0357  0.8527
  272MOL    H2938511   1.550   2.301   7.139 -1.5268 -0.0218  2.6231
  272MOL    C3038512   1.499   2.521   7.294 -0.0157 -0.5904 -0.6921
  272MOL    C3138513   1.431   2.658   7.315  1.0717 -0.0764 -0.1890
  272MOL    O3238514   1.290   2.654   7.287 -0.5156  0.0254  0.5983
  272MOL    H3338515   1.418   2.448   7.307 -0.4550  0.0471  0.2169
  272MOL    H3438516   1.563   2.508   7.381  0.1657 -1.7857 -0.9964
  272MOL    H3538517   1.482   2.725   7.246 -0.3105 -0.9672 -2.1413
  272MOL    H3638518   1.443   2.699   7.414  1.5553 -1.0509  0.1653
  272MOL    C3738519   1.214   2.777   7.297 -0.1538  0.1381 -0.8400
  272MOL    C3838520   1.071   2.760   7.257  0.3684  0.4515  0.1150
  272MOL    O3938521   1.012   2.727   7.377  0.4884 -0.1688 -0.4025
  272MOL    H4038522   1.221   2.819   7.397  0.7015 -3.5267  0.7399
  272MOL    H4138523   1.248   2.855   7.229  2.3595 -0.5349 -0.4159
  272MOL    H4238524   1.069   2.681   7.183 -2.4528  1.7773 -1.3183
  272MOL    H4338525   1.030   2.857   7.225 -2.5116 -1.4528 -2.2466
  272MOL    C4438526   0.880   2.678   7.356  0.1161  0.0570 -0.5737
  272MOL    C4538527   0.798   2.665   7.485 -0.4225  0.0493  0.1224
  272MOL    O4638528   0.743   2.795   7.505  0.2663 -0.2797 -0.4981
  272MOL    H4738529   0.832   2.749   7.289  0.2302  2.0457  1.3571
  272MOL    H4838530   0.884   2.587   7.296  1.2833 -0.8729  0.8616
  272MOL    H4938531   0.848   2.618   7.570 -1.9615  0.9461  1.5476
  272MOL    H5038532   0.714   2.596   7.475 -0.6459  0.5550 -1.6385
  272MOL    C5138533   0.644   2.794   7.598  0.4761  0.4462 -0.3852
  272MOL    C5238534   0.571   2.928   7.617  0.2916 -1.0166  0.5926
  272MOL    O5338535   0.455   2.944   7.545 -0.1983 -0.3706  0.5109
  272MOL    H5438536   0.569   2.719   7.576  0.7414  0.1815 -0.3961
  272MOL    H5538537   0.687   2.754   7.690  1.2385 -0.0520 -0.9569
  272MOL    H5638538   0.642   3.010   7.609 -0.1691 -0.4603  2.1849
  272MOL    H5738539   0.548   2.918   7.723  0.5994  0.3471  0.7904
  272MOL    C5838540   0.406   3.075   7.550  0.0722 -0.0528 -0.0113
  272MOL    C5938541   0.321   3.117   7.429  0.3672  0.1198  0.6905
  272MOL    O6038542   0.209   3.022   7.421  0.1097 -0.3973 -0.4301
  272MOL    H6138543   0.340   3.083   7.636  1.7933  1.7329  1.1745
  272MOL    H6238544   0.481   3.153   7.558 -1.3853  1.1345  2.4299
  272MOL    H6338545   0.390   3.105   7.346 -2.0832  1.7855 -1.6876
  272MOL    H6438546   0.286   3.220   7.435  0.3345  0.1196  0.5008
  272MOL    C6538547   0.083   3.064   7.469  0.0836 -0.3751  0.8490
  272MOL    C6638548   7.751   2.958   7.427 -0.8746 -1.0502  0.4104
  272MOL    O6738549   7.706   2.987   7.294  0.3569 -0.1110  0.3439
  272MOL    H6838550   0.097   3.065   7.577 -2.6487  2.3083  1.2294
  272MOL    H6938551   0.063   3.166   7.438  0.8335 -0.8606 -1.3410
  272MOL    H7038552   7.674   2.960   7.504  0.0054  0.6004  1.2799
  272MOL    H7138553   0.014   2.856   7.442  1.1275 -0.4306  0.1995
  272MOL    C7238554   7.599   2.904   7.249  0.7782 -0.6434  0.1776
  272MOL    C7338555   7.642   2.764   7.206 -0.0184  0.1350 -0.7501
  272MOL    O7438556   7.576   2.722   7.090  0.0911 -0.6991 -0.5194
  272MOL    H7538557   7.532   2.903   7.334 -0.2830 -1.3489 -0.6564
  272MOL    H7638558   7.551   2.959   7.168  3.2420 -1.4363 -1.9100
  272MOL    H7738559   7.624   2.696   7.289 -2.3958 -1.1279 -2.2367
  272MOL    H7838560   7.749   2.776   7.191  0.0517  1.0482  0.3939
  272MOL    C7938561   7.596   2.585   7.054 -0.2730 -0.7113 -0.3652
  272MOL    C8038562   7.542   2.566   6.912  0.6770 -0.2268  0.1552
  272MOL    O8138563   7.551   2.427   6.883 -0.1526  0.2240 -0.2858
  272MOL    H8238564   7.703   2.565   7.057  0.0231  0.9159  0.3764
  272MOL    H8338565   7.544   2.522   7.126 -1.2272  0.5532  0.0697
  272MOL    H8438566   7.595   2.629   6.841  0.2525 -1.3391 -1.1536
  272MOL    H8538567   7.437   2.597   6.907  0.7638  0.0701  0.1919
  272MOL    C8638568   7.491   2.391   6.759  0.5357 -0.1788 -0.6232
  272MOL    C8738569   7.503   2.241   6.733  0.2056 -0.3950  0.0460
  272MOL    O8838570   7.607   2.207   6.649  0.5862  0.0753 -0.3614
  272MOL    H8938571   7.389   2.426   6.772  0.6739  1.0679 -2.6863
  272MOL    H9038572   7.547   2.434   6.675  3.4508 -0.5221  1.0661
  272MOL    H9138573   7.408   2.195   6.707 -1.1817  1.9339  0.8575
  272MOL    H9238574   7.509   2.190   6.829 -2.8087 -0.8546  0.0283
  272MOL    C9338575   7.572   2.094   6.567 -0.7458 -0.5828 -0.1874
  272MOL    C9438576   7.689   2.037   6.493 -0.0224  0.4719 -0.2546
  272MOL    O9538577   0.003   1.963   6.576  0.3461 -0.2313  0.7489
  272MOL    H9638578   7.540   2.008   6.626  2.2913 -0.4112  1.8139
  272MOL    H9738579   7.488   2.123   6.504 -1.1429  1.7899  1.3726
  272MOL    H9838580   7.752   2.124   6.474  1.6845 -0.6952 -0.0099
  272MOL    H9938581   7.659   1.991   6.398  0.3153  0.4232 -0.3377
  272MOL   C10038582   0.140   1.955   6.529  0.0490 -0.3191 -0.0119
  272MOL   C10138583   0.144   1.873   6.397  0.2699  0.3166  0.0547
  272MOL   O10238584   0.143   1.962   6.285 -0.2657  0.0247  0.4209
  272MOL   H10338585   0.196   2.047   6.520  1.1628 -1.2945 -4.0899
  272MOL   H10438586   0.187   1.896   6.608  1.8034  0.7498 -0.2550
  272MOL   H10538587   0.059   1.808   6.380  0.6965 -0.4323  0.7697
  272MOL   H10638588   0.222   1.797   6.406 -0.1042 -0.3784 -2.1288
  272MOL   C10738589   0.168   1.882   6.168 -0.1146  0.4519 -0.2532
  272MOL   C10838590   0.177   1.968   6.045 -0.5537 -0.1562 -0.6354
  272MOL   O10938591   0.177   1.882   5.932 -0.2797  0.4803 -0.3102
  272MOL   H11038592   0.259   1.822   6.172 -0.6448 -0.2719  2.0535
  272MOL   H11138593   0.080   1.820   6.154 -0.3085  0.8417 -0.7457
  272MOL   H11238594   0.263   2.034   6.051 -0.3191 -0.4773 -0.4619
  272MOL   H11338595   0.090   2.033   6.034 -1.6202 -0.9310  2.5090
  272MOL   C11438596   0.180   1.967   5.820 -0.0405 -0.3707  0.8455
  272MOL   C11538597   0.166   1.874   5.698  0.4076 -0.3071 -0.3936
  272MOL   O11638598   0.285   1.801   5.657 -0.3709 -0.5881  0.0497
  272MOL   H11738599   0.095   2.035   5.812  1.3539  1.2862 -0.2719
  272MOL   H11838600   0.269   2.030   5.826 -0.4423  0.1243  1.6879
  272MOL   H11938601   0.124   1.941   5.623  0.4102  3.0477  2.4678
  272MOL   H12038602   0.082   1.807   5.714  0.8403 -0.9752 -0.9031
  272MOL   C12138603   0.262   1.755   5.521 -0.0213 -0.3699  0.4034
  272MOL   C12238604   0.376   1.658   5.488 -0.2774  0.1438 -0.1479
  272MOL   O12338605   0.502   1.732   5.491  0.3611 -0.5799 -0.2555
  272MOL   H12438606   0.165   1.707   5.510 -0.8361  1.0709  1.1764
  272MOL   H12538607   0.254   1.833   5.445  2.6181  0.0257  0.4769
  272MOL   H12638608   0.362   1.613   5.390 -0.4771 -0.8784  0.3385
  272MOL   H12738609   0.395   1.580   5.562 -2.5118 -0.3182 -0.0461
  272MOL   C12838610   0.608   1.652   5.454  0.3611 -0.4361  0.1064
  272MOL   C12938611   0.735   1.728   5.487 -0.3746  0.2727 -0.2238
  272MOL   O13038612   0.851   1.649   5.496 -0.4103 -0.2744  0.0450
  272MOL   H13138613   0.616   1.563   5.518 -0.6440  0.8383  2.0475
  272MOL   H13238614   0.609   1.619   5.351 -0.8090  0.3470 -0.1581
  272MOL   H13338615   0.721   1.774   5.584 -1.9751  0.2830 -0.4434
  272MOL   H13438616   0.750   1.817   5.425  3.4325  0.2216  0.4880
  272MOL   C13538617   0.889   1.589   5.380  0.9007 -0.4479  0.5861
  272MOL   C13638618   1.030   1.543   5.399 -0.1800 -0.4946  0.7832
  272MOL   O13738619   1.038   1.437   5.483 -0.0170 -0.5279  0.3596
  272MOL   H13838620   0.827   1.509   5.339  0.0357  0.4510  0.1202
  272MOL   H13938621   0.897   1.671   5.309  1.0225 -2.2505 -1.5378
  272MOL   H14038622   1.086   1.626   5.443 -3.4809  1.6903  1.1256
  272MOL   H14138623   1.070   1.526   5.299 -0.1522  2.1753  0.2797
  272MOL   H14238624   1.017   1.473   5.567 -1.3182  1.0808 -0.6269
  273MOL     C138625   6.696   6.916   6.705  0.1880 -0.4685 -0.1578
  273MOL     C238626   6.584   6.822   6.683  0.0768  0.8102  0.4453
  273MOL     O338627   6.469   6.841   6.768  0.7481  0.5121  0.5098
  273MOL     H438628   6.678   7.022   6.687  0.8656 -0.3449 -0.1225
  273MOL     H538629   6.777   6.888   6.639 -2.0888 -2.8439 -2.0112
  273MOL     H638630   6.611   6.721   6.713 -0.7550  0.2588 -0.6246
  273MOL     H738631   6.554   6.826   6.578 -2.0379  1.6346  1.0402
  273MOL     H838632   6.728   6.894   6.807  1.8446 -0.8850 -0.7695
  273MOL     C938633   6.358   6.747   6.761 -0.3911 -1.1348 -0.3823
  273MOL    C1038634   6.297   6.733   6.622  0.1069 -0.7214 -0.4576
  273MOL    O1138635   6.156   6.698   6.639 -0.2183 -0.5522 -0.3721
  273MOL    H1238636   6.391   6.655   6.808 -0.2376 -0.0113  1.7492
  273MOL    H1338637   6.270   6.772   6.821 -1.1667 -1.2274 -1.4646
  273MOL    H1438638   6.336   6.643   6.572 -0.6738 -2.3898  1.8536
  273MOL    H1538639   6.303   6.828   6.569 -2.9270 -0.8038 -1.0513
  273MOL    C1638640   6.101   6.645   6.523  0.7418  0.5708 -0.1864
  273MOL    C1738641   5.955   6.659   6.530 -0.5897 -0.4693  0.0962
  273MOL    O1838642   5.892   6.621   6.407 -0.1169  0.2564  0.0824
  273MOL    H1938643   6.135   6.689   6.429 -1.1636 -0.9696 -1.6413
  273MOL    H2038644   6.126   6.540   6.514 -1.3758 -0.1723  1.9141
  273MOL    H2138645   5.938   6.767   6.533 -2.6796 -0.7631 -0.7826
  273MOL    H2238646   5.904   6.609   6.613 -0.0783 -2.2698 -0.6493
  273MOL    C2338647   5.747   6.618   6.418 -0.1347  0.3420  0.5260
  273MOL    C2438648   5.684   6.746   6.370  0.7480 -0.0691 -0.1702
  273MOL    O2538649   5.679   6.755   6.228  0.3506  0.2058  0.5832
  273MOL    H2638650   5.720   6.534   6.353  0.9304 -0.2553  0.8494
  273MOL    H2738651   5.707   6.596   6.517 -0.9012  0.4073  0.2344
  273MOL    H2838652   5.718   6.840   6.413  0.6792 -0.0458 -0.1668
  273MOL    H2938653   5.579   6.743   6.402  0.3286  1.6277 -1.3188
  273MOL    C3038654   5.801   6.821   6.186  0.4065 -0.0676 -0.5913
  273MOL    C3138655   5.818   6.761   6.041 -0.0813 -0.7402  0.0756
  273MOL    O3238656   5.721   6.817   5.957 -0.3905  0.1966  0.2942
  273MOL    H3338657   5.796   6.930   6.189  0.3328 -0.0653 -0.7934
  273MOL    H3438658   5.895   6.805   6.239  0.2681 -0.3805 -0.4362
  273MOL    H3538659   5.791   6.656   6.049  0.1903 -0.7729  0.5486
  273MOL    H3638660   5.919   6.764   6.000 -0.2693 -1.0040 -0.4092
  273MOL    C3738661   5.752   6.788   5.824 -0.2480  0.8517  0.1250
  273MOL    C3838662   5.665   6.876   5.740  0.3355 -0.3013 -0.5888
  273MOL    O3938663   5.659   6.836   5.604  0.6557  0.1352  0.6889
  273MOL    H4038664   5.855   6.794   5.792  0.3932  1.1061  2.1521
  273MOL    H4138665   5.720   6.686   5.799  1.5640  0.4296 -0.5065
  273MOL    H4238666   5.707   6.977   5.744  2.2794 -1.1332  0.5336
  273MOL    H4338667   5.561   6.873   5.775  0.1945 -0.4298 -1.0160
  273MOL    C4438668   5.632   6.940   5.511  0.2192  0.5055  0.6251
  273MOL    C4538669   5.647   6.876   5.375 -0.6092  0.1768 -0.0989
  273MOL    O4638670   5.790   6.855   5.348  0.4091  1.3407 -0.0133
  273MOL    H4738671   5.535   6.981   5.537  0.0039 -1.6097  3.4890
  273MOL    H4838672   5.707   7.018   5.525  1.2565 -0.4968  0.8043
  273MOL    H4938673   5.611   6.945   5.298  0.5875  1.0927  0.1549
  273MOL    H5038674   5.591   6.783   5.365  0.9841 -0.7330 -0.6677
  273MOL    C5138675   5.817   6.764   5.237 -0.4257 -0.4046  0.0756
  273MOL    C5238676   5.766   6.821   5.106 -0.4505 -0.3280 -0.4653
  273MOL    O5338677   5.629   6.802   5.072 -0.4630  0.4182 -0.3258
  273MOL    H5438678   5.926   6.765   5.235 -0.4041  2.4627  0.3578
  273MOL    H5538679   5.791   6.660   5.255 -2.6392  0.4947  2.4321
  273MOL    H5638680   5.832   6.775   5.033  1.5976 -0.8367  1.6318
  273MOL    H5738681   5.793   6.926   5.112 -3.1377  0.3249  1.6163
  273MOL    C5838682   5.588   6.875   4.957  0.0607  0.3239  0.0360
  273MOL    C5938683   5.643   6.818   4.823  0.8144  0.2549  0.2310
  273MOL    O6038684   5.729   6.909   4.773  0.4352  0.4018 -0.5854
  273MOL    H6138685   5.480   6.880   4.975 -0.1162 -1.3412 -0.5575
  273MOL    H6238686   5.619   6.979   4.969 -2.9504  0.8519  4.6679
  273MOL    H6338687   5.558   6.807   4.757  1.0223  4.3496 -0.8743
  273MOL    H6438688   5.688   6.721   4.846  1.0635  0.6638  1.5497
  273MOL    C6538689   5.771   6.878   4.642  0.2556 -0.3433  0.0662
  273MOL    C6638690   5.909   6.943   4.593  1.0435 -0.0755 -0.1590
  273MOL    O6738691   6.020   6.864   4.629  0.7044  0.0293 -0.3466
  273MOL    H6838692   5.779   6.770   4.630  3.5228 -0.1072 -0.1331
  273MOL    H6938693   5.694   6.916   4.575 -2.0175 -2.7159  1.2146
  273MOL    H7038694   5.921   7.044   4.633  2.9046  0.3784 -1.8201
  273MOL    H7138695   5.906   6.939   4.484 -0.9303 -0.0951 -0.1238
  273MOL    C7238696   6.074   6.897   4.758  0.7974 -0.5932 -0.3332
  273MOL    C7338697   6.168   6.779   4.800  0.1494  0.0406  0.5275
  273MOL    O7438698   6.115   6.675   4.877 -0.3731 -0.4921  0.1184
  273MOL    H7538699   6.131   6.989   4.746 -1.5152  1.1923  1.8093
  273MOL    H7638700   6.008   6.906   4.844  2.0966  1.2051  0.4963
  273MOL    H7738701   6.248   6.828   4.856  2.3041 -2.3619 -0.3673
  273MOL    H7838702   6.214   6.732   4.714 -1.2446 -1.0112  0.3289
  273MOL    C7938703   6.015   6.609   4.801 -0.4663  0.0687 -0.2449
  273MOL    C8038704   5.942   6.491   4.872  0.7998 -0.4218  0.3008
  273MOL    O8138705   5.798   6.507   4.878  0.3195 -0.6227  0.1571
  273MOL    H8238706   5.935   6.677   4.770 -0.9380 -0.3990 -0.0685
  273MOL    H8338707   6.054   6.573   4.706 -1.7928  1.3121 -1.2874
  273MOL    H8438708   5.972   6.494   4.977  0.0862  3.1621  0.4667
  273MOL    H8538709   5.965   6.391   4.837 -2.5864 -0.3892 -2.2145
  273MOL    C8638710   5.744   6.416   4.970  0.2542 -0.5680  0.0433
  273MOL    C8738711   5.589   6.400   4.941 -0.1054 -0.9132 -0.3741
  273MOL    O8838712   5.509   6.518   4.946  0.0165 -0.2630 -0.2537
  273MOL    H8938713   5.781   6.317   4.942 -0.9379  0.2101 -4.8011
  273MOL    H9038714   5.761   6.440   5.075  1.1514  0.7745 -0.4015
  273MOL    H9138715   5.548   6.329   5.012  0.1242  1.8232  2.6198
  273MOL    H9238716   5.577   6.353   4.843  0.0404 -1.7971  0.0350
  273MOL    C9338717   5.380   6.487   4.916 -0.9401  0.6141 -0.4291
  273MOL    C9438718   5.302   6.617   4.934 -0.6253 -0.4168 -0.2417
  273MOL    O9538719   5.345   6.697   4.829 -0.3480  0.1389  0.3445
  273MOL    H9638720   5.369   6.449   4.814  0.2117 -1.8954  0.3449
  273MOL    H9738721   5.343   6.402   4.973  0.2043 -0.8964 -1.8952
  273MOL    H9838722   5.318   6.677   5.024  0.7563 -1.0874 -0.0271
  273MOL    H9938723   5.197   6.591   4.927 -0.8407  0.2125  0.5398
  273MOL   C10038724   5.242   6.801   4.809  0.2820 -0.5157  0.0464
  273MOL   C10138725   5.269   6.895   4.697  0.8867  0.8181 -0.5633
  273MOL   O10238726   5.377   6.982   4.736  0.0144  0.2081 -0.1629
  273MOL   H10338727   5.150   6.745   4.791  1.2145 -1.2049 -2.7996
  273MOL   H10438728   5.215   6.862   4.895  1.5235  2.4230 -1.5891
  273MOL   H10538729   5.178   6.950   4.678 -0.6151 -1.8285 -1.2877
  273MOL   H10638730   5.268   6.833   4.607 -0.7669 -1.4106  0.9589
  273MOL   C10738731   5.421   7.065   4.630 -0.6674 -0.5764  0.0973
  273MOL   C10838732   5.524   7.162   4.687 -0.5998 -0.1277  0.3145
  273MOL   O10938733   5.460   7.283   4.728  0.4683  0.0536 -0.2702
  273MOL   H11038734   5.467   7.008   4.549 -1.3505 -0.5811 -0.2851
  273MOL   H11138735   5.334   7.117   4.590 -0.0069 -1.8026 -3.0872
  273MOL   H11238736   5.594   7.186   4.607  0.2195 -1.0226  0.7637
  273MOL   H11338737   5.575   7.115   4.771  2.3050  1.0187 -0.7577
  273MOL   C11438738   5.546   7.357   4.814  0.2073  0.1317 -0.8122
  273MOL   C11538739   5.495   7.506   4.821  0.0635  0.0783 -0.4136
  273MOL   O11638740   5.527   7.575   4.699  0.3101 -0.2151 -0.4213
  273MOL   H11738741   5.541   7.314   4.914 -1.8216 -2.2793 -1.8800
  273MOL   H11838742   5.647   7.355   4.774  0.1373 -2.5147 -0.9313
  273MOL   H11938743   5.541   7.565   4.900 -0.6784  0.3082 -0.1509
  273MOL   H12038744   5.387   7.510   4.834  0.1902  0.0647  0.7736
  273MOL   C12138745   5.519   7.714   4.716  0.0181  0.4283 -0.1974
  273MOL   C12238746   5.537   7.767   4.573 -0.1885  0.0151 -0.2547
  273MOL   O12338747   5.660   0.059   4.568 -0.1598 -0.1418 -0.2286
  273MOL   H12438748   5.422   7.740   4.758 -0.1897  0.2043 -0.5333
  273MOL   H12538749   5.601   7.756   4.773  0.9266 -1.0579 -0.3978
  273MOL   H12638750   5.458   0.067   4.549  1.0663  1.0206 -1.4577
  273MOL   H12738751   5.534   7.685   4.501  1.5159 -0.0283 -0.2843
  273MOL   C12838752   5.678   0.128   4.439 -0.0926  0.1150 -0.6232
  273MOL   C12938753   5.775   0.050   4.351  0.2331 -0.0199 -0.3344
  273MOL   O13038754   5.699   7.757   4.252 -0.0418 -0.0283 -1.1048
  273MOL   H13138755   5.585   0.158   4.391  0.1645  1.4735 -0.3161
  273MOL   H13238756   5.726   0.219   4.476 -0.5537 -0.2735  0.9400
  273MOL   H13338757   5.850   7.761   4.402 -2.3579 -1.5646  1.7682
  273MOL   H13438758   5.833   0.130   4.303 -0.4978  1.0957  0.6020
  273MOL   C13538759   5.783   7.669   4.179 -0.3571 -0.4031 -0.1077
  273MOL   C13638760   5.707   7.573   4.083 -0.2896  0.1682  0.0103
  273MOL   O13738761   5.711   7.620   3.950 -0.2820 -0.2460 -0.2557
  273MOL   H13838762   5.862   7.719   4.123 -1.8185  0.0231 -1.8117
  273MOL   H13938763   5.845   7.606   4.243 -0.8858 -0.4368  0.3734
  273MOL   H14038764   5.604   7.552   4.109  0.5560 -4.0023  0.3081
  273MOL   H14138765   5.757   7.476   4.083  1.1049  0.8688  0.1256
  273MOL   H14238766   5.718   7.714   3.958 -1.4803 -0.3323  2.3493
  274MOL     C138767   2.713   4.646   1.589 -0.4566  0.1434  0.3040
  274MOL     C238768   2.841   4.706   1.528 -0.0205  0.5307 -0.1782
  274MOL     O338769   2.873   4.816   1.610  0.6728  0.2451 -0.2703
  274MOL     H438770   2.634   4.713   1.555 -0.2157  1.5935  2.5329
  274MOL     H538771   2.704   4.644   1.697  0.4366 -1.1948  0.3616
  274MOL     H638772   2.820   4.726   1.423 -0.5813  0.4991 -0.0703
  274MOL     H738773   2.923   4.635   1.538 -0.5282  0.0153  0.4321
  274MOL     H838774   2.696   4.543   1.557 -0.5362 -0.5918  2.6638
  274MOL     C938775   2.979   4.891   1.554  0.3665  0.8559 -0.1158
  274MOL    C1038776   3.000   5.019   1.626  0.0818 -0.2615 -0.3984
  274MOL    O1138777   3.078   5.008   1.751 -0.3804 -0.0650  0.0565
  274MOL    H1238778   3.066   4.825   1.548 -0.2045  0.1593 -0.8124
  274MOL    H1338779   2.965   4.918   1.450  1.1351 -2.3394 -1.1253
  274MOL    H1438780   2.907   5.075   1.638  0.2944  0.7720 -3.1097
  274MOL    H1538781   3.054   5.076   1.551 -0.6934  0.2102 -0.6052
  274MOL    C1638782   3.135   5.127   1.800 -0.5215 -0.1398  0.3537
  274MOL    C1738783   3.195   5.105   1.941 -0.9938 -0.0021  1.2839
  274MOL    O1838784   3.263   5.210   2.008  0.3120  1.1910  0.3899
  274MOL    H1938785   3.215   5.163   1.737 -0.3276  0.5060  0.9685
  274MOL    H2038786   3.054   5.200   1.805 -0.9812 -0.5156 -1.2909
  274MOL    H2138787   3.271   5.031   1.920 -0.5811  0.4518  1.1739
  274MOL    H2238788   3.116   5.075   2.010 -0.6429  2.3655  2.7955
  274MOL    C2338789   3.379   5.254   1.947 -0.0255  0.2866 -0.2181
  274MOL    C2438790   3.470   5.322   2.051 -0.0689 -0.5977  0.4175
  274MOL    O2538791   3.539   5.223   2.127  0.2429  0.2389  0.5050
  274MOL    H2638792   3.431   5.169   1.904 -0.2749 -0.8630  1.6974
  274MOL    H2738793   3.350   5.326   1.870  0.4387  1.2154  0.4707
  274MOL    H2838794   3.408   5.379   2.121 -1.0221  2.7110 -2.9833
  274MOL    H2938795   3.538   5.393   2.005 -0.5598  0.1263  0.7913
  274MOL    C3038796   3.627   5.271   2.226  0.4846 -0.2567 -0.5900
  274MOL    C3138797   3.572   5.271   2.365  0.2361  0.3657 -0.5557
  274MOL    O3238798   3.587   5.139   2.408 -0.1184 -0.2486  0.1414
  274MOL    H3338799   3.712   5.203   2.219  1.2995  0.7100 -0.2301
  274MOL    H3438800   3.654   5.375   2.208  1.4839  0.0251  2.2709
  274MOL    H3538801   3.465   5.288   2.372  0.3086  0.0094  1.7682
  274MOL    H3638802   3.621   5.350   2.423  2.0078  0.5413 -2.2317
  274MOL    C3738803   3.526   5.122   2.538  0.7047 -0.0236 -0.4573
  274MOL    C3838804   3.545   4.978   2.582 -0.4009  0.2140 -0.0382
  274MOL    O3938805   3.674   4.961   2.638 -0.3090  0.0286 -0.1751
  274MOL    H4038806   3.558   5.189   2.617 -2.4793  1.0632 -0.0031
  274MOL    H4138807   3.418   5.136   2.536  0.5534 -0.8839  0.7459
  274MOL    H4238808   3.543   4.905   2.501  1.6283 -0.7155  0.7014
  274MOL    H4338809   3.467   4.948   2.653 -0.2580 -0.2590 -0.0811
  274MOL    C4438810   3.688   4.835   2.713 -0.2832 -0.2138  0.3320
  274MOL    C4538811   3.662   4.868   2.858 -0.6852 -0.6548 -0.0730
  274MOL    O4638812   3.712   4.760   2.939  0.2245  0.2212  0.5778
  274MOL    H4738813   3.616   4.759   2.682  0.1322 -0.3062 -0.4095
  274MOL    H4838814   3.786   4.797   2.683 -0.9206 -0.5429 -1.3489
  274MOL    H4938815   3.559   4.893   2.882  0.2250  2.6046  0.6947
  274MOL    H5038816   3.718   4.958   2.883 -1.1649 -0.4233  0.1709
  274MOL    C5138817   3.621   4.644   2.942  0.3639 -0.1573  0.4670
  274MOL    C5238818   3.675   4.538   3.038  0.5105  0.1053  0.6035
  274MOL    O5338819   3.783   4.469   2.975  0.1520 -0.1439 -0.2377
  274MOL    H5438820   3.524   4.672   2.981  0.5148 -0.9069  1.3863
  274MOL    H5538821   3.606   4.603   2.842 -0.1009  1.2089 -0.0406
  274MOL    H5638822   3.589   4.475   3.060  1.4558 -1.4541 -0.0496
  274MOL    H5738823   3.716   4.589   3.125  0.4091  0.4282  0.4628
  274MOL    C5838824   3.879   4.418   3.069  0.2139  0.2735  0.1626
  274MOL    C5938825   3.830   4.298   3.146 -0.3991 -0.1268  0.5885
  274MOL    O6038826   3.737   4.329   3.242  0.0540 -0.1364 -0.2645
  274MOL    H6138827   3.965   4.394   3.006 -0.5539 -2.3086  0.0513
  274MOL    H6238828   3.906   4.499   3.137  1.3825 -0.5630  0.7081
  274MOL    H6338829   3.914   4.240   3.185  0.7744 -0.2044 -1.9504
  274MOL    H6438830   3.774   4.237   3.076 -3.1428  1.1076  1.6442
  274MOL    C6538831   3.680   4.210   3.307  0.2965 -0.9691 -0.3140
  274MOL    C6638832   3.586   4.245   3.422  0.3781 -0.3457  0.5089
  274MOL    O6738833   3.589   4.156   3.529 -0.6892 -0.4377  0.2829
  274MOL    H6838834   3.636   4.148   3.228  0.0753 -0.7993 -0.3241
  274MOL    H6938835   3.766   4.156   3.347  0.7085  0.0956  0.2539
  274MOL    H7038836   3.486   4.254   3.379  0.3280  0.0163  0.7055
  274MOL    H7138837   3.599   4.350   3.446  0.0638 -0.1437 -0.1774
  274MOL    C7238838   3.650   4.211   3.642  0.1281 -0.4739  0.2101
  274MOL    C7338839   3.734   4.111   3.725  0.1530  0.2289 -0.3002
  274MOL    O7438840   3.821   4.185   3.802  0.4398 -0.1675 -0.5242
  274MOL    H7538841   3.718   4.292   3.614 -0.7357  0.1931  0.0119
  274MOL    H7638842   3.574   4.271   3.692 -0.3357  0.9026 -2.0795
  274MOL    H7738843   3.787   4.038   3.664 -1.4007  0.7226 -2.3304
  274MOL    H7838844   3.659   4.069   3.793 -0.4855  1.2970 -0.3237
  274MOL    C7938845   3.888   4.109   3.903 -0.3054 -0.4690  0.3329
  274MOL    C8038846   4.010   4.202   3.939  0.8763  0.1364 -0.4578
  274MOL    O8138847   4.089   4.217   3.831 -0.0379 -0.2476 -0.1094
  274MOL    H8238848   3.821   4.109   3.989 -0.2695 -0.0347  0.3597
  274MOL    H8338849   3.917   4.007   3.876  0.0690  0.0726 -1.3934
  274MOL    H8438850   4.077   4.157   4.013 -0.1359  0.6325  0.7854
  274MOL    H8538851   3.976   4.296   3.984 -0.5810 -0.4649 -0.2752
  274MOL    C8638852   4.210   4.287   3.854  0.8664 -0.0817 -0.0222
  274MOL    C8738853   4.282   4.337   3.725  0.6523 -0.0859  0.1003
  274MOL    O8838854   4.386   4.249   3.678  0.0688  0.1022 -0.3336
  274MOL    H8938855   4.175   4.380   3.898 -0.8720  0.0018 -1.5345
  274MOL    H9038856   4.282   4.237   3.920 -0.0270 -1.0377  0.2495
  274MOL    H9138857   4.318   4.438   3.747  1.6967 -0.6915  1.2072
  274MOL    H9238858   4.209   4.351   3.646 -0.2843 -0.5954  0.8632
  274MOL    C9338859   4.455   4.310   3.573 -0.8977 -0.2276 -0.2181
  274MOL    C9438860   4.537   4.205   3.502 -0.3722 -0.1190 -0.7658
  274MOL    O9538861   4.456   4.154   3.397 -0.2173 -0.3163 -0.5322
  274MOL    H9638862   4.383   4.347   3.500 -0.3083  1.4172  0.0020
  274MOL    H9738863   4.516   4.393   3.610 -2.6276  0.6901  0.6063
  274MOL    H9838864   4.579   4.130   3.570 -1.0973 -0.1554 -0.3557
  274MOL    H9938865   4.622   4.259   3.460 -0.2992 -1.1580 -1.9611
  274MOL   C10038866   4.486   4.030   3.329  0.8735 -0.1419  0.1862
  274MOL   C10138867   4.620   4.034   3.258  0.3097  0.7015  0.7632
  274MOL   O10238868   4.634   3.931   3.160  0.0291  0.2823 -0.3540
  274MOL   H10338869   4.476   3.952   3.405 -0.5641 -0.6656 -0.5032
  274MOL   H10438870   4.407   4.014   3.255  1.2002 -0.0501 -0.1850
  274MOL   H10538871   4.692   4.004   3.334 -1.5377 -1.1811  1.8492
  274MOL   H10638872   4.640   4.131   3.213 -1.6452 -0.0765 -1.9196
  274MOL   C10738873   4.763   3.899   3.105 -0.4141 -1.1957  0.5617
  274MOL   C10838874   4.851   4.020   3.080  0.7429  0.0686  0.7037
  274MOL   O10938875   4.780   4.096   2.978 -0.1878 -0.3084  0.3605
  274MOL   H11038876   4.812   3.834   3.178 -0.3712 -1.4880  0.2697
  274MOL   H11138877   4.752   3.841   3.014  0.7000  0.6440 -0.7717
  274MOL   H11238878   4.947   3.987   3.041  0.7883  0.6402  0.3255
  274MOL   H11338879   4.862   4.082   3.170  0.3584  1.2133 -0.0214
  274MOL   C11438880   4.867   4.132   2.872  0.2886  0.1669  0.3094
  274MOL   C11538881   4.798   4.222   2.765 -0.7833  0.2211 -0.3130
  274MOL   O11638882   4.714   4.140   2.703  0.0138  0.4472  0.2554
  274MOL   H11738883   4.950   4.195   2.903 -0.5835  0.7717  1.4928
  274MOL   H11838884   4.916   4.046   2.827  0.9732  1.4423 -1.4557
  274MOL   H11938885   4.861   4.270   2.691 -0.6481 -1.0483 -1.0227
  274MOL   H12038886   4.750   4.296   2.829  0.0736 -0.6833  1.4245
  274MOL   C12138887   4.636   4.203   2.609  0.5884  0.7515 -0.0433
  274MOL   C12238888   4.519   4.117   2.560 -0.6059 -0.8378 -0.0845
  274MOL   O12338889   4.547   4.085   2.425 -0.4759 -0.9567 -0.2324
  274MOL   H12438890   4.581   4.293   2.639 -0.4351  0.5820 -1.3799
  274MOL   H12538891   4.695   4.242   2.526  1.9672  1.2241  1.1436
  274MOL   H12638892   4.426   4.174   2.558  0.9126  1.6675 -0.7676
  274MOL   H12738893   4.503   4.030   2.624 -0.3654 -0.6345  0.2493
  274MOL   C12838894   4.448   4.000   2.379  0.6555  0.2968  0.5195
  274MOL   C12938895   4.462   3.997   2.222  0.7244 -0.1218  0.2666
  274MOL   O13038896   4.442   4.123   2.162 -0.4858 -0.6031  0.0555
  274MOL   H13138897   4.461   3.897   2.412 -0.8412 -0.0286  0.1038
  274MOL   H13238898   4.343   4.020   2.401  1.1217  1.7703  1.4955
  274MOL   H13338899   4.386   3.928   2.185 -1.2835  0.8509  2.4481
  274MOL   H13438900   4.563   3.966   2.198 -0.1291 -1.5095 -1.6784
  274MOL   C13538901   4.487   4.124   2.027  0.2522 -0.6063 -0.5995
  274MOL   C13638902   4.444   4.251   1.949 -0.0956  0.2413 -0.4951
  274MOL   O13738903   4.497   4.234   1.819 -0.5349  0.6172  0.5794
  274MOL   H13838904   4.595   4.111   2.027  0.2202 -1.0162 -2.0995
  274MOL   H13938905   4.448   4.037   1.974  0.0966 -1.2989  0.6473
  274MOL   H14038906   4.478   4.341   1.999  2.8426 -0.5191 -1.0364
  274MOL   H14138907   4.336   4.262   1.934  0.0117  2.8267  0.3176
  274MOL   H14238908   4.466   4.148   1.793  1.8822  0.0420 -0.5652
  275MOL     C138909   2.052   1.180   7.449  0.9780 -0.0440 -1.3038
  275MOL     C238910   2.002   1.167   7.597  0.4299  0.1666  0.3267
  275MOL     O338911   1.983   1.034   7.633 -0.6800 -0.1749  0.3220
  275MOL     H438912   1.970   1.147   7.385  0.2639  0.2175 -0.5427
  275MOL     H538913   2.138   1.114   7.437  0.9436 -0.4427  0.4676
  275MOL     H638914   1.913   1.222   7.630  0.7369 -0.6207  2.5483
  275MOL     H738915   2.082   1.212   7.656  2.4485 -0.8452 -1.5743
  275MOL     H838916   2.056   1.285   7.423 -0.7754  0.7454  1.3606
  275MOL     C938917   1.958   1.017   0.005 -0.2824  0.2580  0.0039
  275MOL    C1038918   1.953   0.868   0.017 -0.5587  0.3245  0.1033
  275MOL    O1138919   1.819   0.818   0.002 -0.8267 -0.5512 -0.0041
  275MOL    H1238920   2.035   1.053   0.074  0.2607  1.6742 -1.2987
  275MOL    H1338921   1.867   1.061   0.046 -1.0101 -0.2742 -1.0101
  275MOL    H1438922   1.988   0.835   0.115 -0.3236  0.6909  0.1418
  275MOL    H1538923   2.024   0.819   7.721 -1.5213 -2.1026  0.7866
  275MOL    C1638924   1.811   0.678   7.750  0.2291  1.1360 -0.8789
  275MOL    C1738925   1.671   0.637   0.008  0.6486 -0.3478  0.2452
  275MOL    O1838926   1.594   0.669   7.664  1.0750 -0.4065 -0.2687
  275MOL    H1938927   1.835   0.664   7.645  2.9784  2.3353 -0.4637
  275MOL    H2038928   1.885   0.628   0.042  0.7984  1.4826 -1.2591
  275MOL    H2138929   1.628   0.670   0.103  0.0918 -1.2160  0.3038
  275MOL    H2238930   1.674   0.528   0.016 -1.1208 -0.4537 -0.3677
  275MOL    C2338931   1.467   0.608   7.679 -0.5132 -0.2052  0.3748
  275MOL    C2438932   1.474   0.455   7.644  0.6300  0.5758 -0.7394
  275MOL    O2538933   1.351   0.419   7.574 -0.2821  0.3379 -0.4466
  275MOL    H2638934   1.414   0.612   0.003 -0.8469  1.5285  0.1460
  275MOL    H2738935   1.406   0.667   7.610  2.4550  2.8552  0.2134
  275MOL    H2838936   1.461   0.401   7.738  0.6770 -1.1527 -1.7083
  275MOL    H2938937   1.564   0.427   7.590  0.1954 -0.0769 -1.1343
  275MOL    C3038938   1.350   0.279   7.550  0.1806  0.3018 -0.4103
  275MOL    C3138939   1.230   0.241   7.459  0.1501 -0.0069  0.6173
  275MOL    O3238940   1.116   0.272   7.537 -0.2045 -0.2934 -0.0562
  275MOL    H3338941   1.441   0.255   7.497  0.2516 -0.7643  0.1861
  275MOL    H3438942   1.348   0.221   7.643  2.3603 -2.2393 -1.8822
  275MOL    H3538943   1.240   0.140   7.419  1.9996  0.1461  0.6271
  275MOL    H3638944   1.235   0.308   7.374 -1.3800  0.2292  0.7083
  275MOL    C3738945   1.004   0.215   7.470  0.3971  0.1307  0.1184
  275MOL    C3838946   0.874   0.251   7.545 -0.1244 -0.2980  0.1845
  275MOL    O3938947   0.834   0.389   7.502 -0.1084 -0.0958 -0.2404
  275MOL    H4038948   1.004   0.233   7.363 -2.8030  0.2500  0.0855
  275MOL    H4138949   1.017   0.107   7.478  0.0242  0.0906  0.1745
  275MOL    H4238950   0.884   0.246   7.654 -0.9603 -2.5378  0.1796
  275MOL    H4338951   0.795   0.180   7.523 -0.7136  1.1250 -2.4298
  275MOL    C4438952   0.712   0.439   7.568 -0.4253  0.0232  0.6789
  275MOL    C4538953   0.668   0.571   7.499 -0.7495  0.4186 -0.1589
  275MOL    O4638954   0.596   0.537   7.384  0.8746 -0.3461  0.1757
  275MOL    H4738955   0.630   0.368   7.578  0.4975 -1.0646  0.6575
  275MOL    H4838956   0.736   0.472   7.669 -0.2938  0.9671  0.3458
  275MOL    H4938957   0.755   0.635   7.487 -0.6551  0.2045 -0.6296
  275MOL    H5038958   0.605   0.628   7.567  0.7521  2.1995 -0.2375
  275MOL    C5138959   0.555   0.646   7.297  0.1117 -0.7496 -0.4601
  275MOL    C5238960   0.459   0.600   7.184 -0.5492  0.4590 -0.8003
  275MOL    O5338961   0.519   0.502   7.096 -0.6025  0.2874  0.4550
  275MOL    H5438962   0.506   0.725   7.353  0.5722 -2.4539  2.4938
  275MOL    H5538963   0.649   0.681   7.255  0.4853 -0.3713  0.6510
  275MOL    H5638964   0.429   0.686   7.125 -0.7518  2.5886  2.2938
  275MOL    H5738965   0.366   0.568   7.232  0.7772  1.1733  2.3694
  275MOL    C5838966   0.434   0.466   6.989 -0.2545 -1.1272 -0.8597
  275MOL    C5938967   0.454   0.556   6.866  0.2731  0.2757  0.0751
  275MOL    O6038968   0.371   0.672   6.880 -0.0499  0.5145 -0.0406
  275MOL    H6138969   0.475   0.371   6.953  2.2778 -0.6301  0.5839
  275MOL    H6238970   0.328   0.459   7.015 -0.0904  1.4779  0.6260
  275MOL    H6338971   0.417   0.510   6.774 -0.2616 -1.0306  0.9353
  275MOL    H6438972   0.561   0.576   6.853  0.9475 -1.3387  2.9048
  275MOL    C6538973   0.414   0.794   6.825  0.6242  0.0039 -0.0134
  275MOL    C6638974   0.508   0.866   6.913 -0.3132 -0.0235  0.4246
  275MOL    O6738975   0.428   0.905   7.025  0.0719 -0.0360 -0.4977
  275MOL    H6838976   0.455   0.776   6.726  0.0414  0.0132 -0.2574
  275MOL    H6938977   0.328   0.859   6.814  1.6560  1.3941  0.0178
  275MOL    H7038978   0.550   0.956   6.869  1.3730 -1.7075 -1.5028
  275MOL    H7138979   0.592   0.799   6.932  0.5010  0.6148 -0.8535
  275MOL    C7238980   0.504   0.972   7.128  0.2448 -0.2135 -0.0114
  275MOL    C7338981   0.410   1.014   7.243  0.2738 -0.1352  0.8751
  275MOL    O7438982   0.362   0.906   7.322 -0.2086  0.9617  0.5487
  275MOL    H7538983   0.569   0.896   7.169 -0.3680  0.0902  1.5532
  275MOL    H7638984   0.563   1.057   7.094  1.0218 -1.4454 -1.8456
  275MOL    H7738985   0.333   1.078   7.199  0.7839  1.3983  2.1807
  275MOL    H7838986   0.480   1.072   7.303  0.5499  2.5225 -1.8605
  275MOL    C7938987   0.271   0.959   7.420  0.2449 -0.3610 -0.5709
  275MOL    C8038988   0.233   0.842   7.505  0.2400  0.0134  0.6732
  275MOL    O8138989   0.172   0.895   7.621 -1.1843 -0.2007  0.0658
  275MOL    H8238990   0.320   1.033   7.484  1.8385 -2.7334  1.0606
  275MOL    H8338991   0.183   1.006   7.377 -1.7336 -0.1687  3.5238
  275MOL    H8438992   0.322   0.783   7.529  1.7006  1.7088 -0.4381
  275MOL    H8538993   0.168   0.776   7.449 -0.0168 -0.1182  1.1235
  275MOL    C8638994   0.194   0.809   7.734 -0.1298  0.1340 -0.2442
  275MOL    C8738995   0.097   0.691   7.748  0.9741 -0.3513 -0.4867
  275MOL    O8838996   0.137   0.583   7.665 -0.1533 -0.0122  0.1285
  275MOL    H8938997   0.299   0.782   7.739 -0.4576 -1.2846 -0.5658
  275MOL    H9038998   0.191   0.878   0.047  2.2594  1.0694 -0.8776
  275MOL    H9138999   7.769   0.719   7.711  0.9580  0.3959  0.1199
  275MOL    H9239000   0.090   0.666   0.083 -2.0205  1.0584 -0.3051
  275MOL    C9339001   0.049   0.473   7.665  0.3295  0.4334  0.0279
  275MOL    C9439002   0.092   0.374   7.556  0.0692  0.0378  0.3677
  275MOL    O9539003   0.214   0.306   7.605 -0.4060  0.6904  0.7319
  275MOL    H9639004   0.036   0.434   7.766 -1.8525 -2.0716 -1.1509
  275MOL    H9739005   7.717   0.504   7.644  0.2181  1.0589  1.4551
  275MOL    H9839006   0.119   0.424   7.462  1.6546 -0.2346  0.6564
  275MOL    H9939007   0.009   0.305   7.540  0.6520 -0.4936 -0.4225
  275MOL   C10039008   0.252   0.206   7.513  0.8671  0.3449  0.3013
  275MOL   C10139009   0.393   0.169   7.556  0.5934 -1.3091  0.4091
  275MOL   O10239010   0.445   0.108   7.432 -0.9428  0.3017 -0.2347
  275MOL   H10339011   0.195   0.113   7.520 -1.6047  1.8535  0.6283
  275MOL   H10439012   0.248   0.241   7.410 -1.2785 -0.9536 -0.0890
  275MOL   H10539013   0.397   0.105   7.644 -0.1893 -1.2119  0.5182
  275MOL   H10639014   0.454   0.253   7.587 -0.7611  0.5880 -1.8950
  275MOL   C10739015   0.522   0.184   7.344 -0.1926 -0.6326 -0.2957
  275MOL   C10839016   0.553   0.110   7.218 -0.2927 -0.0691 -0.1084
  275MOL   O10939017   0.689   0.128   7.183 -0.1855  0.1862 -1.0107
  275MOL   H11039018   0.470   0.278   7.324  1.7896  0.9241  1.4934
  275MOL   H11139019   0.614   0.206   7.399  0.1398 -0.7500 -0.8062
  275MOL   H11239020   0.485   0.143   7.139 -0.3513  1.2400  0.4746
  275MOL   H11339021   0.538   0.006   7.247  2.3695 -0.6138 -0.6208
  275MOL   C11439022   0.725   0.072   7.054 -0.3788  0.7052  0.0472
  275MOL   C11539023   0.758   7.695   7.064 -0.3397  0.4261  0.1969
  275MOL   O11639024   0.881   7.694   7.139 -0.4555 -0.3091 -0.4306
  275MOL   H11739025   0.643   0.102   6.989 -0.2222  1.5976  0.2654
  275MOL   H11839026   0.815   0.121   7.016 -0.6895  0.2351 -1.3538
  275MOL   H11939027   0.778   7.636   6.974  0.6779 -0.3921  0.9495
  275MOL   H12039028   0.677   7.636   7.108  0.4620  0.0724  1.2215
  275MOL   C12139029   0.865   7.660   7.276 -0.3972 -0.6188 -0.4371
  275MOL   C12239030   0.982   7.564   7.316  0.2609  0.6590 -0.1688
  275MOL   O12339031   1.093   7.632   7.373  0.3339 -0.1031  0.4396
  275MOL   H12439032   0.870   7.744   7.345 -2.8639 -0.1912 -0.7419
  275MOL   H12539033   0.768   7.615   7.297 -0.6975 -0.6686 -1.9070
  275MOL   H12639034   1.023   7.518   7.227  0.5292  0.7970 -0.1171
  275MOL   H12739035   0.940   7.487   7.381  1.2657 -1.1334 -1.5917
  275MOL   C12839036   1.205   7.543   7.398 -0.0476  0.2487  0.5652
  275MOL   C12939037   1.333   7.622   7.426  0.1504 -0.1070 -0.6014
  275MOL   O13039038   1.378   7.687   7.307  0.3688 -0.1340  0.1603
  275MOL   H13139039   1.190   7.490   7.492  0.8062 -0.7019  0.1686
  275MOL   H13239040   1.214   7.462   7.325 -0.3999  2.1590 -1.6754
  275MOL   H13339041   1.405   7.553   7.470  0.2936  0.5220  0.1525
  275MOL   H13439042   1.308   7.698   7.500  0.0402  0.3129 -1.0595
  275MOL   C13539043   1.513   7.712   7.320 -0.5617  0.7667 -0.5348
  275MOL   C13639044   1.565   0.010   7.201 -0.5428  0.5649  0.1124
  275MOL   O13739045   1.482   0.125   7.183  0.1115  0.0670  0.4795
  275MOL   H13839046   1.536   7.771   7.409  2.2603  2.7292 -2.5013
  275MOL   H13939047   1.573   7.627   7.353  0.7201  2.7379  2.5069
  275MOL   H14039048   1.576   7.715   7.114 -1.4430  1.4916 -0.7259
  275MOL   H14139049   1.662   0.051   7.228 -1.7137  2.6804  1.2674
  275MOL   H14239050   1.392   0.101   7.166 -0.1288  1.1615  0.1852
  276MOL     C139051   1.525   1.043   5.574  0.3324  0.2975 -0.0627
  276MOL     C239052   1.386   1.018   5.637 -0.0258 -0.7304  0.0080
  276MOL     O339053   1.403   0.963   5.767  0.1463 -0.2480 -0.4958
  276MOL     H439054   1.577   0.950   5.596 -1.2432 -0.2790  1.3071
  276MOL     H539055   1.575   1.134   5.608 -1.1102  0.7455  0.9241
  276MOL     H639056   1.328   0.950   5.575  0.5113 -2.1846  1.0650
  276MOL     H739057   1.345   1.119   5.650  1.7201 -0.1497  1.2575
  276MOL     H839058   1.497   1.062   5.470 -1.7321  0.9623  0.5846
  276MOL     C939059   1.363   0.825   5.778 -0.0999  0.3257 -0.2053
  276MOL    C1039060   1.368   0.763   5.924 -0.2590  0.6199  0.3589
  276MOL    O1139061   1.424   0.632   5.912 -0.1843  0.2810  0.2198
  276MOL    H1239062   1.266   0.797   5.737 -0.1013  0.3625 -0.2272
  276MOL    H1339063   1.427   0.764   5.715  0.8974  2.0322 -0.8805
  276MOL    H1439064   1.266   0.750   5.960 -1.4966 -1.0466 -3.4677
  276MOL    H1539065   1.438   0.819   5.987  1.1112  0.2004 -0.7615
  276MOL    C1639066   1.449   0.590   6.046 -0.3534 -0.0265 -0.1875
  276MOL    C1739067   1.475   0.439   6.048  0.0620  0.1845 -0.9666
  276MOL    O1839068   1.614   0.401   6.044  0.3152 -0.0544 -0.1637
  276MOL    H1939069   1.532   0.640   6.096  0.2904 -2.4161  1.1954
  276MOL    H2039070   1.357   0.605   6.101 -0.2100  0.5750 -0.1073
  276MOL    H2139071   1.400   0.385   5.990  1.2334 -0.3488 -2.0322
  276MOL    H2239072   1.448   0.409   6.149 -1.3361 -0.0257 -1.3935
  276MOL    C2339073   1.640   0.264   6.042 -0.6628 -0.4754  0.1108
  276MOL    C2439074   1.783   0.242   6.095  0.7555  0.2449 -0.2200
  276MOL    O2539075   1.873   0.256   5.997 -0.0674  0.2676 -0.2861
  276MOL    H2639076   1.572   0.219   6.114  2.1388 -0.9436  2.5913
  276MOL    H2739077   1.626   0.221   5.943 -0.5167 -2.1650  0.8070
  276MOL    H2839078   1.775   0.140   6.134  0.9571 -0.9512 -3.1928
  276MOL    H2939079   1.808   0.313   6.173  2.0882  0.9249 -1.2577
  276MOL    C3039080   1.987   0.175   6.025 -0.6126 -0.4101  0.5432
  276MOL    C3139081   2.094   0.215   5.924 -0.0698 -0.2863 -0.8298
  276MOL    O3239082   2.165   0.330   5.959  0.6547  0.2860 -0.1336
  276MOL    H3339083   2.028   0.171   6.126 -0.3230 -2.2079  0.3744
  276MOL    H3439084   1.961   0.071   6.006  1.0488 -0.8431  0.5863
  276MOL    H3539085   2.036   0.223   5.832  0.3826 -2.5532 -1.3392
  276MOL    H3639086   2.169   0.141   5.895 -1.0286 -1.5800 -0.0735
  276MOL    C3739087   2.215   0.397   5.842  0.2054  0.4645 -0.8120
  276MOL    C3839088   2.283   0.517   5.885  0.1757  0.2501  0.0510
  276MOL    O3939089   2.396   0.483   5.960 -0.4833 -0.3427  0.4106
  276MOL    H4039090   2.278   0.341   5.772  0.2905 -0.7204  0.1923
  276MOL    H4139091   2.130   0.441   5.789  1.6192  2.8607 -1.1768
  276MOL    H4239092   2.224   0.574   5.957 -1.0103  0.6809 -1.2358
  276MOL    H4339093   2.316   0.577   5.800  3.1529 -1.5237 -0.1139
  276MOL    C4439094   2.470   0.604   6.000  0.2322 -0.1808 -0.2431
  276MOL    C4539095   2.581   0.570   6.102  0.5669  0.4880  0.5530
  276MOL    O4639096   2.696   0.495   6.048 -0.1289 -0.0378 -0.1696
  276MOL    H4739097   2.508   0.650   5.908 -0.3787  0.9263  0.0421
  276MOL    H4839098   2.402   0.678   6.042  0.2764 -0.1250 -0.2711
  276MOL    H4939099   2.537   0.521   6.189 -1.1189 -3.2661 -2.2709
  276MOL    H5039100   2.619   0.661   6.147 -2.2623  1.4598  1.0361
  276MOL    C5139101   2.800   0.481   6.144 -0.5106  0.2305  0.6099
  276MOL    C5239102   2.890   0.368   6.092 -0.0773 -0.2510  0.4091
  276MOL    O5339103   3.030   0.393   6.103  0.3313 -0.6838 -0.2363
  276MOL    H5439104   2.852   0.577   6.150 -0.4344  0.0993  2.2424
  276MOL    H5539105   2.768   0.450   6.243  2.0425 -0.4029  1.2894
  276MOL    H5639106   2.883   0.376   5.984 -0.1828  0.1173  0.4398
  276MOL    H5739107   2.864   0.265   6.114  1.4245 -0.6769  0.1871
  276MOL    C5839108   3.074   0.414   6.241  0.1894 -0.5434 -0.3602
  276MOL    C5939109   3.228   0.425   6.245  0.3476 -0.2567  0.2060
  276MOL    O6039110   3.279   0.286   6.243 -0.0923  0.1042  0.5370
  276MOL    H6139111   3.031   0.512   6.262  3.1792  0.2209  2.5885
  276MOL    H6239112   3.040   0.337   6.309  2.7940  0.0841  1.7145
  276MOL    H6339113   3.249   0.471   6.342 -3.5107  0.2059  0.8832
  276MOL    H6439114   3.278   0.491   6.174 -0.3128  1.1646  1.0352
  276MOL    C6539115   3.411   0.270   6.272  0.6592 -0.1861 -0.3965
  276MOL    C6639116   3.446   0.126   6.314 -0.6001  0.2473 -0.3188
  276MOL    O6739117   3.398   0.122   6.446 -0.2012 -0.1134 -0.7138
  276MOL    H6839118   3.465   0.302   6.183 -0.2673 -2.1061 -1.6787
  276MOL    H6939119   3.431   0.337   6.356 -0.5326  0.0772 -0.3107
  276MOL    H7039120   3.553   0.123   6.334 -0.8463 -0.5826  0.9382
  276MOL    H7139121   3.404   0.055   6.243 -1.5118 -0.3787  0.8294
  276MOL    C7239122   3.427   7.770   6.516  1.0354  0.2384 -0.0639
  276MOL    C7339123   3.390   0.004   6.657  0.5205 -0.2040  0.7356
  276MOL    O7439124   3.485   0.055   6.740  0.0891 -0.0015  0.4930
  276MOL    H7539125   3.375   7.690   6.464 -0.5729 -0.1030  1.9993
  276MOL    H7639126   3.534   7.752   6.515  0.8054 -1.2105 -0.0416
  276MOL    H7739127   3.394   7.669   6.682 -1.1570 -0.7552 -1.1225
  276MOL    H7839128   3.285   0.031   6.672  0.3243  1.6744 -3.2772
  276MOL    C7939129   3.483   0.194   6.760  0.3608 -0.0098  0.0436
  276MOL    C8039130   3.526   0.213   6.902 -0.5655  0.0911  0.1264
  276MOL    O8139131   3.410   0.186   6.972  0.2392  0.0569 -0.4937
  276MOL    H8239132   3.550   0.225   6.680  0.7466 -0.4106  0.2085
  276MOL    H8339133   3.386   0.240   6.743  0.5106  0.5907  0.7765
  276MOL    H8439134   3.562   0.315   6.912  1.5031 -0.9647  3.9733
  276MOL    H8539135   3.608   0.144   6.920  1.3170  2.3301  0.2421
  276MOL    C8639136   3.420   0.216   7.103  0.3691  0.1538  0.1541
  276MOL    C8739137   3.289   0.193   7.180 -0.0187 -0.2560  0.2749
  276MOL    O8839138   3.179   0.230   7.100 -0.0736  0.8429  0.3121
  276MOL    H8939139   3.497   0.151   7.144 -0.0716  0.1590  0.9987
  276MOL    H9039140   3.448   0.321   7.111  1.6641  0.0523 -2.4516
  276MOL    H9139141   3.277   0.253   7.270 -2.4052 -1.0580  0.5391
  276MOL    H9239142   3.283   0.086   7.205  0.8485 -0.4129 -0.1960
  276MOL    C9339143   3.049   0.208   7.161  0.0698  0.1929 -0.2344
  276MOL    C9439144   2.945   0.273   7.069 -0.0968  0.0413  1.1227
  276MOL    O9539145   2.807   0.242   7.102 -0.2239 -0.3684 -0.3449
  276MOL    H9639146   3.040   0.099   7.157  3.0913 -0.1764  1.7271
  276MOL    H9739147   3.056   0.239   7.265 -0.4757  1.5063 -0.5792
  276MOL    H9839148   2.975   0.245   6.968  1.6238  1.9110  1.0706
  276MOL    H9939149   2.954   0.382   7.068  2.7887 -0.1490 -2.6279
  276MOL   C10039150   2.706   0.301   7.011  1.0288 -0.2948 -0.5040
  276MOL   C10139151   2.580   0.217   7.033  0.0924  0.2685  0.4725
  276MOL   O10239152   2.540   0.233   7.168 -0.2316  0.2416  0.2849
  276MOL   H10339153   2.694   0.403   7.048 -0.6445  0.5726 -3.2901
  276MOL   H10439154   2.740   0.308   6.907  1.2290  0.4481 -0.3930
  276MOL   H10539155   2.611   0.112   7.028  3.0585  0.9665  2.7724
  276MOL   H10639156   2.493   0.236   6.969 -0.9835 -1.0685  1.5007
  276MOL   C10739157   2.432   0.328   7.201 -0.2361  0.5484 -0.4901
  276MOL   C10839158   2.299   0.244   7.184  0.1351 -0.5111  0.4104
  276MOL   O10939159   2.200   0.291   7.276 -0.2371  0.1311  0.3860
  276MOL   H11039160   2.453   0.347   7.307  1.0163 -0.6377 -0.4997
  276MOL   H11139161   2.444   0.417   7.141 -0.1046  1.0446  0.2642
  276MOL   H11239162   2.313   0.138   7.204  1.5643 -0.5072 -0.4669
  276MOL   H11339163   2.257   0.244   7.084  0.5264 -0.1529  0.2417
  276MOL   C11439164   2.067   0.244   7.247 -0.0211 -0.3668  0.1274
  276MOL   C11539165   1.976   0.366   7.214  0.2601 -0.3544  0.7285
  276MOL   O11639166   2.002   0.415   7.083  0.3426 -0.3410  0.0599
  276MOL   H11739167   2.078   0.172   7.166  1.0705 -0.5108  0.4019
  276MOL   H11839168   2.028   0.186   7.331  1.3641  0.4180  1.3293
  276MOL   H11939169   2.005   0.442   7.286  1.7129 -0.9266  0.7638
  276MOL   H12039170   1.871   0.337   7.222  0.6839 -1.7399  1.5848
  276MOL   C12139171   1.944   0.537   7.052  0.7896 -0.1958 -0.1267
  276MOL   C12239172   1.989   0.599   6.918  0.3050  0.2290  0.1219
  276MOL   O12339173   1.952   0.516   6.813  0.0794  0.0664 -0.2605
  276MOL   H12439174   1.835   0.537   7.046  0.6270 -0.2663  2.2430
  276MOL   H12539175   1.955   0.610   7.132 -1.7557 -0.2404  0.3151
  276MOL   H12639176   2.095   0.622   6.922  0.0748  1.3243 -0.0186
  276MOL   H12739177   1.936   0.694   6.918  2.2105  1.3205  0.7437
  276MOL   C12839178   1.941   0.580   6.687 -0.7896 -0.0108 -0.0287
  276MOL   C12939179   1.851   0.486   6.606  0.1907  0.0563  0.2782
  276MOL   O13039180   1.938   0.381   6.554  0.0978 -0.1122  0.1021
  276MOL   H13139181   1.897   0.680   6.684 -0.1984  0.2001 -3.4470
  276MOL   H13239182   2.038   0.592   6.639 -0.6805 -2.0488 -0.3636
  276MOL   H13339183   1.795   0.528   6.523 -0.4065 -3.5759 -1.2351
  276MOL   H13439184   1.779   0.444   6.676  0.5010 -1.7522 -0.4729
  276MOL   C13539185   1.865   0.266   6.512 -0.0072  0.6928  1.2760
  276MOL   C13639186   1.967   0.154   6.499 -0.1784 -0.4145 -0.1595
  276MOL   O13739187   2.010   0.124   6.366 -0.0228 -0.3238  0.6860
  276MOL   H13839188   1.785   0.250   6.584  0.8518 -1.5646  1.7568
  276MOL   H13939189   1.811   0.278   6.418  3.4526 -1.4458 -1.0802
  276MOL   H14039190   1.918   0.063   6.533  0.7298 -0.7816  0.1744
  276MOL   H14139191   2.056   0.168   6.560  0.0678  1.0899 -0.8416
  276MOL   H14239192   2.050   0.202   6.331  0.7195 -0.2967  1.5722
  277MOL     C139193   7.184   0.129   2.296 -0.0789  0.0075  0.3395
  277MOL     C239194   7.095   0.067   2.183  0.9962 -0.2138  0.1819
  277MOL     O339195   6.992   7.749   2.229 -0.3133  0.1221  0.2054
  277MOL     H439196   7.263   0.058   2.319 -0.8438 -1.3283 -1.1204
  277MOL     H539197   7.124   0.149   2.385  0.3331  0.5780  0.4968
  277MOL     H639198   7.166   0.017   2.117  2.0812 -0.6297  1.6460
  277MOL     H739199   7.040   0.143   2.127 -0.7634  0.3839  2.6267
  277MOL     H839200   7.232   0.222   2.264 -0.0303 -0.4350 -0.8752
  277MOL     C939201   6.950   7.663   2.128 -0.3595 -0.0138  0.6441
  277MOL    C1039202   6.800   7.634   2.139 -0.5598 -0.2915 -0.0156
  277MOL    O1139203   6.778   7.521   2.225 -0.8146  0.6283  0.0950
  277MOL    H1239204   6.949   7.716   2.033  1.5218 -2.0864 -0.5673
  277MOL    H1339205   7.020   7.580   2.119 -0.4874  0.0082 -0.6366
  277MOL    H1439206   6.751   7.609   2.045 -0.2411 -0.0111 -0.2576
  277MOL    H1539207   6.751   7.716   2.191  0.1815 -0.7612  1.4388
  277MOL    C1639208   6.784   7.537   2.366 -0.0720  0.0063  0.3657
  277MOL    C1739209   6.858   7.425   2.432  0.1041  0.2352 -1.1193
  277MOL    O1839210   6.784   7.308   2.427 -0.1579 -0.0665  0.2735
  277MOL    H1939211   6.829   7.632   2.394  1.0756 -0.4123 -0.0370
  277MOL    H2039212   6.684   7.546   2.410  0.3720  0.1836  1.3662
  277MOL    H2139213   6.890   7.447   2.534 -1.0778  1.4178 -0.9941
  277MOL    H2239214   6.951   7.412   2.376 -0.0032 -0.9660 -1.0378
  277MOL    C2339215   6.861   7.199   2.475  0.0659  0.1700 -0.1543
  277MOL    C2439216   6.754   7.086   2.501 -0.3941 -0.3225  0.5535
  277MOL    O2539217   6.817   6.993   2.583  0.1909  0.2737 -0.5555
  277MOL    H2639218   6.937   7.180   2.400  0.5016 -2.6722  0.9583
  277MOL    H2739219   6.915   7.222   2.567  0.3127 -0.3587 -0.1642
  277MOL    H2839220   6.741   7.038   2.404  0.3262 -0.4201  0.4967
  277MOL    H2939221   6.671   7.137   2.549 -0.8741 -1.7149  1.2233
  277MOL    C3039222   6.738   6.883   2.630 -0.3056 -0.2412  0.4834
  277MOL    C3139223   6.806   6.823   2.751 -0.1386 -0.2500 -0.5020
  277MOL    O3239224   6.746   6.874   2.873  0.3279  0.1699  0.3984
  277MOL    H3339225   6.634   6.912   2.645 -0.3650 -0.2377  0.0555
  277MOL    H3439226   6.752   6.811   2.549 -1.2607  0.8782 -0.6857
  277MOL    H3539227   6.911   6.849   2.758 -0.4770  1.1222 -0.4332
  277MOL    H3639228   6.798   6.716   2.733  1.3243 -0.5422  0.5445
  277MOL    C3739229   6.775   6.789   2.988 -0.2613 -0.2168 -0.4665
  277MOL    C3839230   6.915   6.830   3.051  0.4017  0.5017  0.3339
  277MOL    O3939231   7.027   6.775   2.990  0.6817 -0.2542  0.0996
  277MOL    H4039232   6.705   6.820   3.065  0.6355 -0.0344  0.2808
  277MOL    H4139233   6.755   6.682   2.986 -1.5923 -0.0884  2.8737
  277MOL    H4239234   6.910   6.795   3.154  0.8592 -3.8967 -1.0153
  277MOL    H4339235   6.919   6.938   3.051 -1.6306  0.6062  2.7713
  277MOL    C4439236   7.145   6.837   3.023 -0.1715 -0.1699  0.1575
  277MOL    C4539237   7.265   6.778   2.940  0.3666 -0.5474 -0.8542
  277MOL    O4639238   7.259   6.814   2.801  0.5677  0.1049  0.5161
  277MOL    H4739239   7.139   6.945   3.010  1.2422  0.3057  3.0076
  277MOL    H4839240   7.167   6.824   3.129  0.8436  4.7957  0.6587
  277MOL    H4939241   7.282   6.671   2.950  1.9115 -0.3983 -1.6937
  277MOL    H5039242   7.354   6.826   2.982  2.3372 -4.1142 -0.7298
  277MOL    C5139243   7.254   6.702   2.719 -0.1030 -0.3362  0.3847
  277MOL    C5239244   7.228   6.744   2.568 -0.1675 -0.4428 -0.2680
  277MOL    O5339245   7.262   6.632   2.488  0.3210  0.6185  0.2008
  277MOL    H5439246   7.340   6.639   2.742  0.5715 -0.5319 -2.4903
  277MOL    H5539247   7.173   6.632   2.740 -1.3924  1.0392  0.0709
  277MOL    H5639248   7.287   6.830   2.536 -0.5001 -0.2137 -0.2654
  277MOL    H5739249   7.125   6.768   2.544  0.6381  2.2297 -1.1674
  277MOL    C5839250   7.324   6.662   2.361 -0.9157  0.0532  0.2621
  277MOL    C5939251   7.360   6.535   2.290 -0.5474  0.4066 -0.4821
  277MOL    O6039252   7.475   6.476   2.346 -0.0679  0.0303  0.4725
  277MOL    H6139253   7.250   6.719   2.304 -1.8402 -2.3925 -1.0201
  277MOL    H6239254   7.407   6.728   2.384 -0.2245 -0.9090  0.5221
  277MOL    H6339255   7.371   6.556   2.183  0.6169  1.6395 -0.1250
  277MOL    H6439256   7.288   6.454   2.299  1.1277 -1.0321  0.3296
  277MOL    C6539257   7.589   6.527   2.287 -0.7120  0.1760  0.0980
  277MOL    C6639258   7.713   6.475   2.361  0.1431  0.0050 -0.3775
  277MOL    O6739259   0.068   6.503   2.284 -0.0031  0.0826  0.1815
  277MOL    H6839260   7.587   6.509   2.180 -2.3188  0.0314  0.1441
  277MOL    H6939261   7.597   6.635   2.298 -1.0518 -0.0566  3.0619
  277MOL    H7039262   7.708   6.366   2.359  1.1211 -0.0654  0.7317
  277MOL    H7139263   7.729   6.499   2.466  0.2970  0.4588 -0.5074
  277MOL    C7239264   0.186   6.430   2.328  0.5723  0.3918  0.1197
  277MOL    C7339265   0.210   6.298   2.251  0.5540  0.1802  0.5114
  277MOL    O7439266   0.270   6.328   2.128  0.1991 -0.5135 -0.9863
  277MOL    H7539267   0.274   6.490   2.306  0.7166  0.1660  0.0849
  277MOL    H7639268   0.186   6.411   2.435  1.9626 -1.7343 -0.2393
  277MOL    H7739269   0.121   6.237   2.240  0.4269  0.5609 -0.7287
  277MOL    H7839270   0.275   6.234   2.310  2.1257  1.2835  0.0080
  277MOL    C7939271   0.301   6.216   2.047 -0.4334  0.3391  0.4016
  277MOL    C8039272   0.432   6.229   1.972  0.2713 -0.0602  0.9432
  277MOL    O8139273   0.419   6.331   1.873  0.2690 -0.1613 -0.2595
  277MOL    H8239274   0.314   6.133   2.117 -3.9227 -0.0067  0.7279
  277MOL    H8339275   0.213   6.203   1.983  0.6178 -1.9875 -0.6282
  277MOL    H8439276   0.448   6.132   1.926 -2.8846  0.0573 -0.5384
  277MOL    H8539277   0.517   6.250   2.036 -1.8253  1.0427  3.4511
  277MOL    C8639278   0.544   6.370   1.812  0.0663  0.5234 -0.3645
  277MOL    C8739279   0.524   6.401   1.659  0.0728 -0.6248 -0.2825
  277MOL    O8839280   0.525   6.284   1.587 -0.2409 -0.0133 -1.2225
  277MOL    H8939281   0.587   6.449   1.873 -1.6345  2.1323 -1.2057
  277MOL    H9039282   0.608   6.282   1.820  2.8981  2.5537  0.0312
  277MOL    H9139283   0.608   6.462   1.624  0.6572 -0.9331  0.5654
  277MOL    H9239284   0.439   6.466   1.639 -0.0939 -1.1924 -1.4240
  277MOL    C9339285   0.394   6.223   1.570 -0.5651  0.1721 -0.1883
  277MOL    C9439286   0.407   6.092   1.491  0.0507 -0.0768 -0.3933
  277MOL    O9539287   0.458   5.986   1.568 -0.2742 -0.8080  0.1949
  277MOL    H9639288   0.344   6.209   1.665  1.2987  1.1738  0.9673
  277MOL    H9739289   0.327   6.298   1.527  1.3558  1.3820 -1.1325
  277MOL    H9839290   0.458   6.096   1.395  0.1367  2.2466 -0.2783
  277MOL    H9939291   0.304   6.058   1.480  0.0393 -0.9692  2.2833
  277MOL   C10039292   0.601   5.987   1.571  1.0396  0.6359 -0.0406
  277MOL   C10139293   0.645   5.861   1.647  0.0903 -1.0544 -0.7758
  277MOL   O10239294   0.638   5.900   1.783  0.5395  0.0215  0.0610
  277MOL   H10339295   0.641   5.991   1.469  0.2461 -2.6343 -0.5329
  277MOL   H10439296   0.632   6.082   1.615  0.6096  1.0762 -0.6779
  277MOL   H10539297   0.750   5.839   1.628  0.2446 -1.3099  0.3626
  277MOL   H10639298   0.585   5.776   1.616 -0.6562 -0.6541 -0.4506
  277MOL   C10739299   0.692   5.800   1.866  0.0032  0.3516 -0.0375
  277MOL   C10839300   0.674   5.851   2.014  0.3564 -0.4695 -0.7296
  277MOL   O10939301   0.732   5.974   2.050  0.0845 -0.3512  0.1090
  277MOL   H11039302   0.625   5.713   1.862 -0.6311  0.8498 -0.3785
  277MOL   H11139303   0.791   5.765   1.839 -0.0443  1.7340 -2.1289
  277MOL   H11239304   0.718   5.782   2.086 -2.2662  0.9666  2.3812
  277MOL   H11339305   0.567   5.859   2.036  0.7565  1.2158  0.7157
  277MOL   C11439306   0.865   5.987   2.024 -0.4004  0.7849  0.2307
  277MOL   C11539307   0.926   6.089   2.119  0.5215  0.9433  0.4139
  277MOL   O11639308   0.937   6.215   2.053  0.1694 -0.4641  0.1078
  277MOL   H11739309   0.916   5.891   2.032 -0.2286  0.5643 -3.0046
  277MOL   H11839310   0.875   6.013   1.919  1.2849 -1.5575 -0.2163
  277MOL   H11939311   1.024   6.053   2.151  0.4590 -0.2607 -0.7498
  277MOL   H12039312   0.865   6.110   2.207  1.1715  0.9154  0.8779
  277MOL   C12139313   0.814   6.277   2.040  0.1743  0.1572 -0.3194
  277MOL   C12239314   0.832   6.427   2.021 -0.0676  0.2958  0.6464
  277MOL   O12339315   0.870   6.466   1.884 -0.1069 -0.0117  0.1569
  277MOL   H12439316   0.753   6.227   1.965  1.1933 -0.6565 -0.6087
  277MOL   H12539317   0.746   6.274   2.125 -0.4517  2.1573 -0.7230
  277MOL   H12639318   0.915   6.465   2.081  0.0628  1.0371  0.0040
  277MOL   H12739319   0.745   6.483   2.055 -2.1479 -0.2676 -3.5204
  277MOL   C12839320   0.898   6.601   1.874 -0.1858 -0.2119  0.0697
  277MOL   C12939321   0.875   6.643   1.727  0.1235 -0.2800 -0.0771
  277MOL   O13039322   0.742   6.645   1.686  0.0557 -0.2372 -0.4072
  277MOL   H13139323   0.828   6.657   1.937 -1.6166 -1.3199 -0.4999
  277MOL   H13239324   0.995   6.622   1.918 -0.2377 -0.2564  0.2068
  277MOL   H13339325   0.932   6.569   1.671 -0.8546 -0.4412 -0.8706
  277MOL   H13439326   0.936   6.733   1.713 -0.0424 -0.3022 -1.0096
  277MOL   C13539327   0.715   6.743   1.592  0.3154 -0.6106 -0.4196
  277MOL   C13639328   0.765   6.698   1.451  0.4755 -0.4471  0.4079
  277MOL   O13739329   0.738   6.794   1.350  0.6283  0.3460  0.7486
  277MOL   H13839330   0.608   6.762   1.592  0.3111 -0.6253  0.4957
  277MOL   H13939331   0.750   6.841   1.623 -0.8003 -0.1693 -0.5171
  277MOL   H14039332   0.740   6.601   1.407  3.3819 -1.3021  0.4626
  277MOL   H14139333   0.874   6.685   1.447  0.3115 -1.6381 -0.7418
  277MOL   H14239334   0.645   6.801   1.335  1.3106  1.6712 -3.3358
  278MOL     C139335   2.256   5.113   2.602  0.4363  0.0129 -0.0577
  278MOL     C239336   2.219   5.031   2.478 -0.0849  0.8846  0.1519
  278MOL     O339337   2.126   4.933   2.515 -0.0031 -0.0863 -0.3842
  278MOL     H439338   2.160   5.160   2.625  0.3104 -0.0199 -0.5065
  278MOL     H539339   2.320   5.199   2.586 -1.2342  0.8513 -2.6050
  278MOL     H639340   2.312   4.983   2.446 -0.2881 -0.6159  1.7175
  278MOL     H739341   2.179   5.096   2.400 -2.0630  1.0344  1.2540
  278MOL     H839342   2.280   5.055   2.691 -0.7917  0.7018  0.7521
  278MOL     C939343   2.071   4.856   2.413  0.0765  0.2666 -0.2052
  278MOL    C1039344   2.167   4.771   2.328 -0.4243  0.5451  0.5551
  278MOL    O1139345   2.259   4.843   2.247 -0.2954 -0.2257  0.4805
  278MOL    H1239346   2.007   4.787   2.468  2.1792 -1.4222  0.1759
  278MOL    H1339347   2.015   4.914   2.339  0.1804  0.9034  0.2138
  278MOL    H1439348   2.117   4.700   2.262 -0.5595  0.1211  1.1056
  278MOL    H1539349   2.213   4.708   2.404 -2.5711 -1.0825  0.5553
  278MOL    C1639350   2.374   4.770   2.207 -1.5067  0.2383  0.4264
  278MOL    C1739351   2.473   4.861   2.139 -0.5311  0.8001  0.3989
  278MOL    O1839352   2.476   4.834   1.998  0.3390  0.1588 -0.6933
  278MOL    H1939353   2.423   4.717   2.289 -1.1445 -1.4409 -0.8486
  278MOL    H2039354   2.361   4.691   2.133  1.9532 -0.1497  0.1821
  278MOL    H2139355   2.572   4.841   2.182 -0.1620  1.3991 -0.1671
  278MOL    H2239356   2.450   4.966   2.158 -1.5194  0.4728  1.0449
  278MOL    C2339357   2.563   4.904   1.919 -0.2249 -0.1352  0.1254
  278MOL    C2439358   2.712   4.917   1.980  0.6155 -0.0075 -0.1266
  278MOL    O2539359   2.724   5.022   2.069  0.2211  0.3344 -0.4974
  278MOL    H2639360   2.564   4.877   1.814  0.4279  0.3179  0.0151
  278MOL    H2739361   2.519   5.003   1.917 -0.5400 -0.2911 -0.9547
  278MOL    H2839362   2.786   4.935   1.901 -0.2356  0.4677 -0.8226
  278MOL    H2939363   2.741   4.827   2.034  0.8063 -0.4490 -0.9481
  278MOL    C3039364   2.852   5.069   2.100 -0.0362 -0.6361 -0.1485
  278MOL    C3139365   2.861   5.145   2.233  0.0132  0.3625  0.7393
  278MOL    O3239366   2.783   5.267   2.233  0.5996 -0.6292  0.1970
  278MOL    H3339367   2.916   4.981   2.105  1.7976  0.6238 -0.9017
  278MOL    H3439368   2.887   5.129   2.016  2.2748 -2.9508 -0.9078
  278MOL    H3539369   2.964   5.179   2.246  1.1938 -1.2432 -3.4845
  278MOL    H3639370   2.843   5.066   2.306 -1.2837 -1.0874 -1.1156
  278MOL    C3739371   2.644   5.227   2.260  0.3208 -0.2235 -0.6450
  278MOL    C3839372   2.563   5.349   2.292  0.2564  0.7247 -0.3440
  278MOL    O3939373   2.560   5.447   2.191  0.2387 -0.4215  0.3907
  278MOL    H4039374   2.601   5.179   2.173 -0.5130 -1.8252  0.6154
  278MOL    H4139375   2.628   5.160   2.344 -1.2968 -0.0245 -0.7760
  278MOL    H4239376   2.600   5.390   2.385 -1.3769  1.7987 -0.1630
  278MOL    H4339377   2.459   5.323   2.310  0.6859 -0.8885 -0.0522
  278MOL    C4439378   2.567   5.578   2.238 -0.0058  0.2350 -0.0027
  278MOL    C4539379   2.588   5.669   2.110 -0.4346  0.2545 -0.0693
  278MOL    O4639380   2.465   5.656   2.040  0.1145  0.0135 -0.0586
  278MOL    H4739381   2.475   5.619   2.279  0.2412 -1.6900  2.6672
  278MOL    H4839382   2.644   5.608   2.310 -0.1602  1.4722 -0.3352
  278MOL    H4939383   2.681   5.636   2.065 -0.3588  1.1103 -0.5312
  278MOL    H5039384   2.601   5.769   2.152  1.0555  1.0461 -2.3678
  278MOL    C5139385   2.480   5.679   1.900 -0.5031 -0.2754  0.0579
  278MOL    C5239386   2.468   5.831   1.871  0.1908  0.8526 -0.1050
  278MOL    O5339387   2.340   5.867   1.821  0.4213  0.0180  0.1950
  278MOL    H5439388   2.581   5.650   1.871 -1.3359 -1.5563 -1.5709
  278MOL    H5539389   2.410   5.619   1.842  0.4037 -0.6941 -0.6142
  278MOL    H5639390   2.537   5.844   1.788  0.4920  1.4036  0.2340
  278MOL    H5739391   2.499   5.902   1.947  0.7372  1.7897 -1.2030
  278MOL    C5839392   2.235   5.855   1.919 -0.1794  0.0586  0.4118
  278MOL    C5939393   2.107   5.875   1.845  0.1044 -0.3272 -0.5121
  278MOL    O6039394   2.082   5.753   1.781  0.4428  0.0040  0.2539
  278MOL    H6139395   2.234   5.758   1.969  0.6226 -0.2008 -0.0609
  278MOL    H6239396   2.264   5.938   1.983  0.9947  1.7971 -2.2363
  278MOL    H6339397   2.122   5.953   1.771  2.3186 -1.2844 -1.1160
  278MOL    H6439398   2.018   5.903   1.902  0.7044 -3.2535  2.0212
  278MOL    C6539399   1.966   5.754   1.696 -1.1365 -0.7199 -0.6896
  278MOL    C6639400   1.829   5.780   1.759 -0.7137  0.8657  0.2130
  278MOL    O6739401   1.806   5.901   1.829 -0.3422 -0.6814  0.4306
  278MOL    H6839402   1.982   5.824   1.613  1.9046  0.1983  0.6114
  278MOL    H6939403   1.965   5.655   1.649  0.7670 -0.8735 -0.4299
  278MOL    H7039404   1.816   5.700   1.832  0.2953  1.5424  1.1604
  278MOL    H7139405   1.756   5.752   1.683  1.5815  0.1094 -1.7447
  278MOL    C7239406   1.670   5.937   1.849  0.7797  0.4048  0.3940
  278MOL    C7339407   1.653   6.091   1.851  0.6504 -0.1774 -0.8656
  278MOL    O7439408   1.608   6.118   1.989 -0.3357  0.1292 -0.2634
  278MOL    H7539409   1.599   5.908   1.771 -1.9631  0.1490  2.9119
  278MOL    H7639410   1.640   5.887   1.941  3.3725  0.6316  1.3977
  278MOL    H7739411   1.577   6.121   1.778  0.0729 -0.2151 -0.2865
  278MOL    H7839412   1.748   6.139   1.829  0.9191  0.0750  0.7875
  278MOL    C7939413   1.631   6.254   2.027  0.0001 -0.0603  0.1336
  278MOL    C8039414   1.579   6.279   2.169 -0.5777  0.2572 -0.5794
  278MOL    O8139415   1.442   6.290   2.180 -0.0844 -0.4602  0.0289
  278MOL    H8239416   1.740   6.266   2.028  0.2423 -1.9743  0.1059
  278MOL    H8339417   1.583   6.321   1.957  1.2907  1.4100  0.6372
  278MOL    H8439418   1.635   6.360   2.217  1.5385 -1.6766  0.3203
  278MOL    H8539419   1.607   6.194   2.231 -0.1870  0.9835  0.2615
  278MOL    C8639420   1.383   6.316   2.307  0.3691 -0.2924  0.1546
  278MOL    C8739421   1.236   6.284   2.279  0.0726 -0.2003  0.1357
  278MOL    O8839422   1.174   6.340   2.393 -0.5551 -0.0906 -0.0493
  278MOL    H8939423   1.419   6.253   2.389  0.0342  0.2683  0.7410
  278MOL    H9039424   1.397   6.414   2.352  0.3221 -0.0711 -0.3182
  278MOL    H9139425   1.211   6.182   2.252 -0.9153 -0.2003  0.9726
  278MOL    H9239426   1.195   6.338   2.194 -0.7049  0.3697  0.8563
  278MOL    C9339427   1.034   6.354   2.379  0.0631 -0.0397 -0.1121
  278MOL    C9439428   0.964   6.370   2.522  0.1647 -0.0094 -0.7769
  278MOL    O9539429   0.958   6.512   2.550 -0.6444 -0.3310  0.1093
  278MOL    H9639430   1.011   6.437   2.313 -0.1422 -0.2845 -0.3480
  278MOL    H9739431   0.993   6.266   2.329  0.2224  0.8097 -1.7369
  278MOL    H9839432   1.014   6.307   2.596 -1.4034  1.5862  1.7026
  278MOL    H9939433   0.862   6.331   2.523  0.6942 -1.5481 -3.4976
  278MOL   C10039434   0.938   6.539   2.687  0.1589  0.6685  0.3140
  278MOL   C10139435   0.908   6.683   2.712 -0.0075 -0.1085  0.2148
  278MOL   O10239436   1.026   6.761   2.700  0.5500 -0.6098  0.2368
  278MOL   H10339437   0.860   6.471   2.723 -0.5477  1.3485  0.1039
  278MOL   H10439438   1.028   6.510   2.740  0.1438 -1.2137 -0.6397
  278MOL   H10539439   0.864   6.702   2.810  0.3008 -1.4261  0.6266
  278MOL   H10639440   0.841   6.723   2.636 -1.6105 -1.9449  0.6310
  278MOL   C10739441   1.118   6.758   2.803 -0.7815 -0.8137  0.7786
  278MOL   C10839442   1.246   6.830   2.761 -0.0730  0.1889  0.8713
  278MOL   O10939443   1.229   6.968   2.765  0.0384  0.2294  0.0369
  278MOL   H11039444   1.075   6.810   2.889  1.1943  0.4710  1.0149
  278MOL   H11139445   1.142   6.658   2.838  0.8154  0.2002  2.6511
  278MOL   H11239446   1.275   6.793   2.662 -0.4551 -2.1562  1.6206
  278MOL   H11339447   1.332   6.811   2.825  1.8422  1.1395 -1.3383
  278MOL   C11439448   1.329   7.046   2.696  0.1409 -0.1704 -0.0777
  278MOL   C11539449   1.332   7.192   2.757 -0.2063 -0.1276 -1.0470
  278MOL   O11639450   1.421   7.199   2.869  0.3474  0.7326 -0.0529
  278MOL   H11739451   1.427   6.999   2.702  1.2178  2.2337  2.5610
  278MOL   H11839452   1.301   7.046   2.590 -1.4709 -0.4962  0.3278
  278MOL   H11939453   1.229   7.224   2.775 -0.5192 -1.2343 -0.8561
  278MOL   H12039454   1.368   7.268   2.687  1.6940  1.4418  1.5560
  278MOL   C12139455   1.376   7.145   2.996  0.2058 -0.7768 -0.3373
  278MOL   C12239456   1.488   7.138   3.107  0.3842 -0.2009  0.7082
  278MOL   O12339457   1.490   7.243   3.201  0.3491  0.3504 -0.7079
  278MOL   H12439458   1.293   7.206   3.032  2.8401  0.6848  3.5667
  278MOL   H12539459   1.344   7.041   2.986 -2.5619 -0.1423  1.4781
  278MOL   H12639460   1.579   7.126   3.048  0.6786  1.3824  0.8343
  278MOL   H12739461   1.483   7.038   3.151  2.7585 -0.7160 -0.0979
  278MOL   C12839462   1.609   7.230   3.280  0.1639  0.2621  0.3649
  278MOL   C12939463   1.633   7.350   3.363  0.4305 -0.7259  0.3946
  278MOL   O13039464   1.532   7.364   3.465  0.1050  0.2711  0.7575
  278MOL   H13139465   1.590   7.147   3.349 -0.9376 -1.1543 -1.5997
  278MOL   H13239466   1.701   7.208   3.226 -1.8207 -0.3780 -2.8905
  278MOL   H13339467   1.636   7.440   3.302 -0.3476 -0.4607  0.7420
  278MOL   H13439468   1.731   7.333   3.408 -0.5587  1.4365  3.5226
  278MOL   C13539469   1.583   7.409   3.590 -0.0262 -0.6403  0.9430
  278MOL   C13639470   1.469   7.427   3.691 -0.5758 -0.5799 -0.8062
  278MOL   O13739471   1.505   7.504   3.804 -0.3739 -0.3182  0.6381
  278MOL   H13839472   1.658   7.334   3.617  0.5387 -0.1680  0.6787
  278MOL   H13939473   1.649   7.495   3.585 -1.3012  0.4576  2.4163
  278MOL   H14039474   1.418   7.338   3.727  0.9879 -0.6004  1.5328
  278MOL   H14139475   1.387   7.482   3.646 -1.2108 -0.5306  0.4018
  278MOL   H14239476   1.504   7.592   3.769 -0.6474 -0.3585  0.5464
  279MOL     C139477   0.778   1.909   1.863 -1.0413 -0.0359  0.4492
  279MOL     C239478   0.734   1.834   1.988 -0.1310 -0.1089 -0.0414
  279MOL     O339479   0.829   1.845   2.091  0.0620 -0.3722  0.2325
  279MOL     H439480   0.868   1.879   1.810 -0.9003  4.8191 -2.3462
  279MOL     H539481   0.788   2.014   1.887  1.6498 -0.2957  0.6095
  279MOL     H639482   0.720   1.728   1.966  3.4669 -0.3387 -1.5644
  279MOL     H739483   0.647   1.886   2.028  0.0086  0.4525 -0.4610
  279MOL     H839484   0.698   1.901   1.789  1.0024  0.2494 -1.8305
  279MOL     C939485   0.820   1.740   2.186  0.7177  1.0958  0.3585
  279MOL    C1039486   0.921   1.631   2.144 -0.1711  0.0171  1.6061
  279MOL    O1139487   0.955   1.551   2.256 -0.1277 -0.3735 -0.2116
  279MOL    H1239488   0.868   1.763   2.281 -0.3045 -0.6810  1.3147
  279MOL    H1339489   0.719   1.706   2.206  0.2067  1.5526 -1.2903
  279MOL    H1439490   1.014   1.681   2.119 -0.2992 -0.4240  0.2526
  279MOL    H1539491   0.894   1.578   2.053 -2.1291 -0.3579  2.3690
  279MOL    C1639492   1.047   1.446   2.228 -0.2138  0.1382 -0.3038
  279MOL    C1739493   1.086   1.357   2.342 -0.3895  0.4126 -0.1909
  279MOL    O1839494   1.187   1.415   2.423  0.0646  0.2903 -0.2861
  279MOL    H1939495   0.995   1.376   2.163  0.1961 -0.8166  0.3786
  279MOL    H2039496   1.136   1.477   2.172  1.2258 -0.3299  1.6475
  279MOL    H2139497   1.126   1.263   2.304 -1.2685  0.3001 -0.8439
  279MOL    H2239498   0.990   1.333   2.388 -2.0953  3.0761 -2.2037
  279MOL    C2339499   1.131   1.494   2.527 -0.8657 -0.3449 -0.7544
  279MOL    C2439500   1.253   1.535   2.606  0.6752 -0.2333 -0.8620
  279MOL    O2539501   1.294   1.431   2.693  0.3048 -0.9428 -0.8128
  279MOL    H2639502   1.060   1.571   2.497 -1.6718 -0.9576 -0.4199
  279MOL    H2739503   1.078   1.431   2.598 -0.6829  0.9945  0.6076
  279MOL    H2839504   1.232   1.619   2.673  0.4367 -1.3107  0.4131
  279MOL    H2939505   1.340   1.559   2.545  0.5951 -0.4144 -1.0495
  279MOL    C3039506   1.424   1.435   2.738  0.3308 -0.0086 -0.1503
  279MOL    C3139507   1.455   1.298   2.798  0.3579 -0.1641 -0.5176
  279MOL    O3239508   1.407   1.287   2.932 -1.0067  0.2816 -0.3469
  279MOL    H3339509   1.490   1.457   2.654 -1.6201  1.5823 -1.3004
  279MOL    H3439510   1.442   1.514   2.812  0.9204  1.1750 -1.5291
  279MOL    H3539511   1.562   1.277   2.807  0.3366  0.9419  2.9443
  279MOL    H3639512   1.410   1.225   2.731 -2.8963  0.3329  1.0406
  279MOL    C3739513   1.271   1.247   2.943 -0.8729  0.2797 -0.4594
  279MOL    C3839514   1.229   1.236   3.086 -0.4971  0.0524 -0.7368
  279MOL    O3939515   1.196   1.366   3.132  0.0858  0.1179  0.0946
  279MOL    H4039516   1.205   1.322   2.899 -0.5457  1.0489  0.3408
  279MOL    H4139517   1.270   1.150   2.894 -0.1227 -1.5868  2.9860
  279MOL    H4239518   1.305   1.197   3.154 -0.1621 -1.2692 -1.8301
  279MOL    H4339519   1.142   1.172   3.099 -0.7175  0.4652 -0.1678
  279MOL    C4439520   1.151   1.369   3.268  0.5392  0.1440  0.0335
  279MOL    C4539521   1.012   1.303   3.289  0.1231 -1.1611  0.8764
  279MOL    O4639522   1.028   1.164   3.320  0.1105  0.2236  0.0064
  279MOL    H4739523   1.210   1.337   3.354  0.4130  1.3816  0.5902
  279MOL    H4839524   1.136   1.477   3.277 -0.1501  0.2008 -1.6261
  279MOL    H4939525   0.965   1.311   3.191  3.3651 -0.0085 -0.6380
  279MOL    H5039526   0.952   1.358   3.362  1.6600 -0.6061  1.7492
  279MOL    C5139527   0.905   1.093   3.340  0.2018  0.1333  0.6320
  279MOL    C5239528   0.932   0.939   3.350 -0.5921 -0.0122 -0.3026
  279MOL    O5339529   1.000   0.906   3.227  0.0942 -0.3068 -0.1122
  279MOL    H5439530   0.853   1.122   3.431  0.3584 -1.7351  1.3536
  279MOL    H5539531   0.830   1.101   3.261 -0.2266 -2.2176  0.7531
  279MOL    H5639532   0.836   0.888   3.345  0.4043 -1.8884 -0.9348
  279MOL    H5739533   0.992   0.899   3.432  1.0138  0.3220 -1.2957
  279MOL    C5839534   0.994   0.764   3.204  1.1664  0.2115  0.8941
  279MOL    C5939535   1.054   0.743   3.067  0.4618 -0.5269  0.4712
  279MOL    O6039536   0.945   0.763   2.972 -0.0421  0.2211  0.5564
  279MOL    H6139537   1.052   0.712   3.281 -1.4581 -1.7322  1.6015
  279MOL    H6239538   0.898   0.715   3.198  1.9428 -1.3317  0.9038
  279MOL    H6339539   1.085   0.639   3.054  1.4197 -0.4474  1.9754
  279MOL    H6439540   1.148   0.795   3.049 -2.0469  3.9503 -0.3781
  279MOL    C6539541   0.945   0.897   2.925 -0.4424  0.2056  0.8955
  279MOL    C6639542   1.059   0.910   2.818 -0.1738 -0.7069 -0.0366
  279MOL    O6739543   1.060   1.028   2.738  0.1899 -0.2281 -0.0121
  279MOL    H6839544   0.848   0.917   2.879  0.1779 -0.6632 -0.8166
  279MOL    H6939545   0.950   0.977   2.999  2.6625  1.8201 -0.9390
  279MOL    H7039546   1.031   0.830   2.750 -2.8254 -0.3546  0.5998
  279MOL    H7139547   1.156   0.880   2.858  0.3812  0.7139 -0.2788
  279MOL    C7239548   1.173   1.027   2.649  0.9537 -0.1040  0.2323
  279MOL    C7339549   1.121   1.004   2.509 -0.5188 -0.3005  0.5335
  279MOL    O7439550   1.093   0.863   2.496  0.1999 -0.0314  0.0473
  279MOL    H7539551   1.225   1.123   2.654 -0.7616  0.7398  2.8386
  279MOL    H7639552   1.254   0.961   2.681  0.5145 -0.1246  1.2988
  279MOL    H7739553   1.203   1.022   2.440  1.7950 -0.5702  3.1207
  279MOL    H7839554   1.035   1.064   2.478  0.1422 -1.0861 -3.0833
  279MOL    C7939555   1.038   0.832   2.367 -0.5104 -0.2548  0.3299
  279MOL    C8039556   0.956   0.699   2.362 -0.4826 -0.3796 -0.3406
  279MOL    O8139557   1.049   0.596   2.340 -0.1034  0.1947  0.4016
  279MOL    H8239558   0.969   0.911   2.338 -0.1554 -0.2689 -0.5701
  279MOL    H8339559   1.123   0.827   2.298  0.0607  1.7593  0.8377
  279MOL    H8439560   0.879   0.709   2.285 -0.2321  2.0316 -0.3299
  279MOL    H8539561   0.907   0.679   2.457  0.3965 -0.3217  0.1298
  279MOL    C8639562   1.008   0.469   2.378  0.0464  0.8663 -0.2889
  279MOL    C8739563   1.128   0.375   2.358  0.2547 -0.1363  0.0105
  279MOL    O8839564   1.132   0.329   2.225  0.1376  0.6976 -0.2995
  279MOL    H8939565   0.999   0.471   2.486 -1.2578  1.4784 -0.3946
  279MOL    H9039566   0.907   0.439   2.351  0.7313 -0.3443 -1.5730
  279MOL    H9139567   1.118   0.290   2.426 -2.1498 -0.4561 -0.6703
  279MOL    H9239568   1.215   0.429   2.394 -0.0167  0.1672  0.2245
  279MOL    C9339569   1.252   0.270   2.186 -0.0117 -0.0453  0.0096
  279MOL    C9439570   1.250   0.114   2.195 -0.2389  0.8053 -0.4132
  279MOL    O9539571   1.167   0.069   2.088  0.1703 -0.1650 -0.5167
  279MOL    H9639572   1.259   0.289   2.079  0.8904 -1.1419 -0.1210
  279MOL    H9739573   1.340   0.305   2.239 -0.6895 -0.7198  1.5978
  279MOL    H9839574   1.225   0.084   2.297  1.5763  3.0309  0.7534
  279MOL    H9939575   1.351   0.077   2.179 -1.0960 -1.0848 -1.5528
  279MOL   C10039576   1.028   0.073   2.107 -0.6956  0.6785 -0.1131
  279MOL   C10139577   0.948   7.720   2.060  0.3641  0.6110 -0.6288
  279MOL   O10239578   0.999   7.611   2.129  1.3053  0.6206 -0.0405
  279MOL   H10339579   1.007   0.087   2.213 -0.9000 -0.0946 -0.0504
  279MOL   H10439580   0.992   0.155   2.045  1.3771  1.0121 -0.8957
  279MOL   H10539581   0.964   7.707   1.953 -2.8814 -5.7072 -0.5703
  279MOL   H10639582   0.842   7.738   2.077  0.7863  0.7941  2.1573
  279MOL   C10739583   0.960   7.488   2.074  0.0840 -0.3862  0.3531
  279MOL   C10839584   1.001   7.364   2.153  0.4414  0.1860 -0.1717
  279MOL   O10939585   1.022   7.254   2.070 -0.5330  0.5110 -0.1407
  279MOL   H11039586   0.856   7.502   2.046  0.5707  0.6032 -1.0340
  279MOL   H11139587   1.018   7.489   1.981 -0.0705  0.5341  0.2594
  279MOL   H11239588   0.928   7.334   2.228  1.4311 -0.1834  0.6550
  279MOL   H11339589   1.095   7.382   2.206 -0.9200 -3.3196  3.7043
  279MOL   C11439590   1.025   7.128   2.138 -0.3558 -0.0908  0.4682
  279MOL   C11539591   1.034   7.013   2.036  0.0130 -0.2441 -0.4151
  279MOL   O11639592   0.905   6.982   1.992 -0.1131 -0.4230 -0.4179
  279MOL   H11739593   1.104   7.122   2.214 -0.8937 -0.8703  0.9758
  279MOL   H11839594   0.941   7.119   2.206 -0.5536 -2.1343 -0.0076
  279MOL   H11939595   1.096   6.928   2.067  0.1190  0.3369  0.9881
  279MOL   H12039596   1.103   7.034   1.954  0.2311 -1.1189 -0.4707
  279MOL   C12139597   0.862   7.062   1.883 -0.0059  0.1844 -0.0639
  279MOL   C12239598   0.708   7.056   1.865  0.9666 -0.1796 -0.0423
  279MOL   O12339599   0.647   7.166   1.937 -0.0294 -0.3047 -0.3160
  279MOL   H12439600   0.897   7.165   1.880  0.1681  0.1104 -0.5407
  279MOL   H12539601   0.902   7.021   1.790 -0.3515  0.7733 -0.4719
  279MOL   H12639602   0.672   6.954   1.876  0.8295 -0.2192 -0.7707
  279MOL   H12739603   0.697   7.087   1.761  2.0167 -0.2771 -0.1852
  279MOL   C12839604   0.641   7.140   2.080 -0.1657 -0.4105  0.2391
  279MOL   C12939605   0.585   7.262   2.150 -0.4309 -0.5775 -0.3374
  279MOL   O13039606   0.458   7.280   2.095 -0.6644 -0.2601 -0.2516
  279MOL   H13139607   0.585   7.051   2.107  0.8401 -1.0298  0.3207
  279MOL   H13239608   0.745   7.124   2.107  0.1935 -0.2910 -1.0607
  279MOL   H13339609   0.651   7.348   2.144 -1.8075  0.7351  2.3484
  279MOL   H13439610   0.579   7.240   2.256  0.4206  2.2656  0.3491
  279MOL   C13539611   0.397   7.388   2.147 -0.2814 -0.3767 -0.6345
  279MOL   C13639612   0.251   7.387   2.113  0.0713 -0.1045  0.8109
  279MOL   O13739613   0.193   7.268   2.146  0.5001  0.2856 -0.4797
  279MOL   H13839614   0.412   7.395   2.255  0.9098 -0.5509 -0.7818
  279MOL   H13939615   0.434   7.477   2.098  0.3108 -0.0332  0.4138
  279MOL   H14039616   0.238   7.406   2.007 -1.4749  0.5038  1.0914
  279MOL   H14139617   0.194   7.463   2.167  2.9323  1.0237  2.3878
  279MOL   H14239618   0.264   7.206   2.142  0.9401  0.5648  2.1741
  280MOL     C139619   2.017   0.401   2.128  0.9507 -0.6676  0.8393
  280MOL     C239620   2.076   0.549   2.134 -0.0976  0.7053  0.3102
  280MOL     O339621   2.038   0.612   2.258 -0.3403  0.7329  0.2000
  280MOL     H439622   2.078   0.340   2.195  0.5848  0.1132  1.9023
  280MOL     H539623   2.014   0.365   2.025  0.3652  0.0547  0.5940
  280MOL     H639624   2.029   0.611   2.059 -0.5658 -0.4848 -0.3944
  280MOL     H739625   2.184   0.540   2.124 -0.1821  1.0363 -0.9261
  280MOL     H839626   1.914   0.389   2.160  0.7861 -0.9978  0.1973
  280MOL     C939627   2.115   0.729   2.287 -0.2472  0.3228 -0.0040
  280MOL    C1039628   2.102   0.845   2.189 -0.7360  0.5840  0.8176
  280MOL    O1139629   2.175   0.824   2.070  0.4555 -0.4692 -0.2254
  280MOL    H1239630   2.082   0.769   2.382  2.2853 -1.0323  1.4817
  280MOL    H1339631   2.221   0.705   2.293  0.2851  1.8615 -2.3354
  280MOL    H1439632   2.135   0.935   2.241  1.8940 -0.5526  1.1766
  280MOL    H1539633   1.997   0.858   2.161 -1.3354  1.0491  3.1433
  280MOL    C1639634   2.152   0.916   1.970  0.6464  0.6582  0.0714
  280MOL    C1739635   2.275   1.003   1.944  0.1519  0.3463  0.4043
  280MOL    O1839636   2.384   0.952   1.856  0.4689  0.2877  0.2198
  280MOL    H1939637   2.126   0.864   1.878  4.3169 -1.2503  0.0071
  280MOL    H2039638   2.068   0.980   1.995 -0.0060 -0.2096  0.0914
  280MOL    H2139639   2.307   1.006   2.048  1.0957 -0.4074  0.1363
  280MOL    H2239640   2.253   1.109   1.925  1.1718  0.8803  2.0878
  280MOL    C2339641   2.353   0.996   1.729  0.8244  0.5305 -0.3514
  280MOL    C2439642   2.465   0.953   1.631 -0.0130  0.5917  0.7989
  280MOL    O2539643   2.457   0.817   1.609  0.0745  0.0603 -0.2959
  280MOL    H2639644   2.255   0.966   1.692 -0.1638  1.2126  1.6270
  280MOL    H2739645   2.348   1.105   1.726 -1.0330  0.4544 -0.9880
  280MOL    H2839646   2.560   0.986   1.675 -0.5337  0.0578  2.3413
  280MOL    H2939647   2.465   1.001   1.533  0.6354 -0.1886  0.4055
  280MOL    C3039648   2.506   0.777   1.482 -0.7183  0.2590 -0.6852
  280MOL    C3139649   2.657   0.783   1.493  0.4376  0.3222 -0.1323
  280MOL    O3239650   2.710   0.914   1.459 -0.5196  0.1750  0.2468
  280MOL    H3339651   2.465   0.679   1.456 -0.1852 -0.3937  0.8942
  280MOL    H3439652   2.466   0.845   1.407 -1.3697  0.5579 -0.0729
  280MOL    H3539653   2.698   0.714   1.419 -2.0526 -0.2818 -0.9785
  280MOL    H3639654   2.684   0.742   1.590  2.6101  0.8045 -0.4847
  280MOL    C3739655   2.854   0.915   1.454  1.1098  1.1119  0.1739
  280MOL    C3839656   2.904   1.063   1.444 -0.4042  0.1946 -0.1147
  280MOL    O3939657   3.050   1.066   1.425  0.2785 -0.5086  0.4541
  280MOL    H4039658   2.890   0.873   1.548  1.4496 -0.7754 -0.7945
  280MOL    H4139659   2.900   0.852   1.379  0.4992  1.4255 -0.4671
  280MOL    H4239660   2.879   1.134   1.522  0.0190  1.0035 -0.7036
  280MOL    H4339661   2.863   1.107   1.353  1.7267 -0.5747 -1.5034
  280MOL    C4439662   3.096   1.200   1.422 -0.3683  0.0653 -0.1095
  280MOL    C4539663   3.246   1.194   1.389  0.4889 -0.5844 -0.0567
  280MOL    O4639664   3.317   1.225   1.503 -0.3774 -0.1366  0.4543
  280MOL    H4739665   3.044   1.238   1.334  1.2181  2.5654 -0.0237
  280MOL    H4839666   3.079   1.251   1.516 -2.4006 -2.1627  0.7773
  280MOL    H4939667   3.266   1.265   1.310  1.1039 -0.1210  0.5101
  280MOL    H5039668   3.263   1.095   1.346 -1.4638 -0.5629 -0.9345
  280MOL    C5139669   3.464   1.234   1.491 -0.6137 -0.2047 -0.0579
  280MOL    C5239670   3.516   1.320   1.603  0.4322 -0.4283  0.9497
  280MOL    O5339671   3.536   1.250   1.718  0.0679 -0.5695 -0.3019
  280MOL    H5439672   3.510   1.135   1.499  1.3196  0.7988  1.7073
  280MOL    H5539673   3.484   1.286   1.397  1.7174  1.1095  1.1251
  280MOL    H5639674   3.436   1.392   1.619  1.9575  1.7226 -0.7043
  280MOL    H5739675   3.599   1.378   1.561 -0.5552 -0.7736 -1.5737
  280MOL    C5839676   3.588   1.320   1.823 -0.3031 -0.2083  0.9935
  280MOL    C5939677   3.743   1.331   1.817  0.5423  1.0316 -0.0480
  280MOL    O6039678   3.798   1.373   1.946 -0.7545 -0.1976  0.2970
  280MOL    H6139679   3.540   1.417   1.835 -2.5859 -1.0352 -1.1209
  280MOL    H6239680   3.547   1.272   1.912  0.3512  0.3885  1.6286
  280MOL    H6339681   3.777   1.405   1.743 -0.5955  1.3381 -0.2662
  280MOL    H6439682   3.784   1.237   1.780  0.8307 -0.0870  3.0422
  280MOL    C6539683   3.753   1.485   2.020 -0.3289 -0.1498 -0.0234
  280MOL    C6639684   3.843   1.512   2.137 -0.5309  0.9093  0.2612
  280MOL    O6739685   3.944   1.605   2.115 -0.9362  0.3985  0.2655
  280MOL    H6839686   3.736   1.575   1.960 -0.8910  0.0930  0.4888
  280MOL    H6939687   3.652   1.463   2.056  0.0785 -1.0606  0.5632
  280MOL    H7039688   3.880   1.420   2.181  1.3668  1.6483  0.2497
  280MOL    H7139689   3.795   1.556   2.225 -2.3504  1.1258 -0.8028
  280MOL    C7239690   4.058   1.539   2.066 -0.6441  0.2508  0.1743
  280MOL    C7339691   4.168   1.644   2.019  1.3547  0.1607  0.3168
  280MOL    O7439692   4.131   1.695   1.892  0.7886  0.5251  0.3598
  280MOL    H7539693   4.086   1.472   2.148  2.5576 -0.0082 -1.0567
  280MOL    H7639694   4.023   1.483   1.980  2.2067 -0.8207 -0.3361
  280MOL    H7739695   4.262   1.589   2.009  1.2331 -0.1025  0.5933
  280MOL    H7839696   4.169   1.725   2.092 -2.0045 -0.5127  1.2019
  280MOL    C7939697   4.009   1.767   1.888 -1.1452  0.5075  0.6631
  280MOL    C8039698   4.007   1.818   1.743  0.4794 -0.8969 -0.1938
  280MOL    O8139699   4.033   1.715   1.654  0.1566 -0.3875  0.7911
  280MOL    H8239700   3.930   1.695   1.909  0.5821 -1.1527  1.6043
  280MOL    H8339701   3.989   1.852   1.953  1.5556  1.1026  0.7670
  280MOL    H8439702   4.080   1.899   1.733 -0.1918 -0.2072  0.4144
  280MOL    H8539703   3.913   1.865   1.714  0.1511 -0.9478  0.7753
  280MOL    C8639704   3.984   1.747   1.518  0.3159  0.1829  0.5542
  280MOL    C8739705   4.055   1.658   1.418  0.1076 -0.5787 -0.1583
  280MOL    O8839706   4.051   1.516   1.449  0.2515  0.2166 -0.7874
  280MOL    H8939707   3.878   1.734   1.498  0.5473 -1.9327  0.6089
  280MOL    H9039708   4.002   1.852   1.494 -2.5981  0.6054  0.1140
  280MOL    H9139709   4.162   1.676   1.407  0.0613  1.9045  2.9019
  280MOL    H9239710   3.998   1.667   1.326 -3.7424  1.0320  2.2712
  280MOL    C9339711   4.142   1.482   1.554  0.1553 -0.3472  0.9189
  280MOL    C9439712   4.074   1.440   1.689  0.4046  0.1459 -0.1318
  280MOL    O9539713   4.063   1.298   1.702 -0.7981 -0.2955  0.3131
  280MOL    H9639714   4.207   1.405   1.513  1.9423  1.5591  0.0610
  280MOL    H9739715   4.206   1.566   1.582  2.6829 -1.8034 -0.4164
  280MOL    H9839716   3.974   1.483   1.693 -0.1063 -0.9374 -1.1354
  280MOL    H9939717   4.131   1.484   1.771  2.3013 -1.3121 -0.6391
  280MOL   C10039718   4.177   1.215   1.735  0.0034  0.2820  0.2314
  280MOL   C10139719   4.233   1.250   1.875 -0.1553 -0.5219 -0.2115
  280MOL   O10239720   4.305   1.373   1.868 -0.1927  0.0393  0.0630
  280MOL   H10339721   4.138   1.114   1.741 -0.9658  0.6412  0.0193
  280MOL   H10439722   4.247   1.221   1.652  1.1710  0.9487  1.2514
  280MOL   H10539723   4.292   1.166   1.912  0.5801 -0.3166 -0.8925
  280MOL   H10639724   4.160   1.241   1.955 -0.9852 -1.5823 -1.0617
  280MOL   C10739725   4.443   1.353   1.861  0.0253 -0.1998  0.9169
  280MOL   C10839726   4.516   1.486   1.865 -0.4830 -0.5946  0.1105
  280MOL   O10939727   4.539   1.555   1.990  0.1618  0.0648 -0.3667
  280MOL   H11039728   4.492   1.285   1.931  1.2290  0.2964  0.5689
  280MOL   H11139729   4.450   1.323   1.756 -0.2943 -1.4127  1.2347
  280MOL   H11239730   4.456   1.554   1.805 -1.9448  0.0196  2.2254
  280MOL   H11339731   4.611   1.469   1.813 -2.5720  0.3184 -4.2963
  280MOL   C11439732   4.577   1.689   1.963 -0.3991  0.2963 -0.0763
  280MOL   C11539733   4.645   1.753   2.083  0.3392 -0.1542  0.8433
  280MOL   O11639734   4.709   1.874   2.048 -0.7379  0.0363 -0.2637
  280MOL   H11739735   4.647   1.695   1.880 -0.2767  0.9502  0.0682
  280MOL   H11839736   4.486   1.745   1.943 -1.6537 -1.2662  1.0667
  280MOL   H11939737   4.722   1.681   2.112  2.2454  2.1606  1.6893
  280MOL   H12039738   4.576   1.777   2.164  0.3448 -0.6058  0.9867
  280MOL   C12139739   4.626   1.986   2.062  0.2819 -0.4809 -0.1286
  280MOL   C12239740   4.702   2.112   2.007 -0.2636 -0.2249 -0.1745
  280MOL   O12339741   4.769   2.192   2.114  0.2790 -0.2843 -0.3010
  280MOL   H12439742   4.537   1.969   2.001  1.4766 -1.3871 -1.6375
  280MOL   H12539743   4.593   2.005   2.165 -0.0961 -0.3855 -0.2679
  280MOL   H12639744   4.625   2.178   1.966 -0.5265 -0.2893  0.2113
  280MOL   H12739745   4.779   2.095   1.931  0.3944  0.0675  0.4192
  280MOL   C12839746   4.884   2.138   2.170 -0.0961  0.0909 -1.1714
  280MOL   C12939747   4.949   2.249   2.251 -0.0435 -0.3821 -0.5633
  280MOL   O13039748   4.875   2.275   2.372 -0.5994 -0.0940 -0.1876
  280MOL   H13139749   4.850   2.056   2.233 -0.9223  0.8543 -0.6175
  280MOL   H13239750   4.953   2.102   2.093  0.7538  0.6051 -0.6601
  280MOL   H13339751   4.952   2.339   2.189  2.4724  0.5055  0.7961
  280MOL   H13439752   5.050   2.222   2.281 -0.6786  0.4625  2.5509
  280MOL   C13539753   4.949   2.366   2.461 -0.1555  0.8632 -0.6502
  280MOL   C13639754   4.881   2.383   2.601  0.9035  0.1854 -0.0873
  280MOL   O13739755   4.955   2.476   2.681 -0.1548 -0.3433 -0.0325
  280MOL   H13839756   5.055   2.340   2.469 -0.3056 -0.7075 -3.1465
  280MOL   H13939757   4.958   2.469   2.426  4.3688 -0.2988 -3.3546
  280MOL   H14039758   4.872   2.287   2.652 -0.0438  1.3160  1.9171
  280MOL   H14139759   4.784   2.431   2.588  0.6393 -0.3753 -0.1652
  280MOL   H14239760   5.042   2.444   2.694  0.7948  2.0749 -0.2640
  281MOL     C139761   2.267   1.977   0.937  0.2535  0.1297  0.3653
  281MOL     C239762   2.212   1.834   0.936  0.0063  0.5328 -0.0941
  281MOL     O339763   2.307   1.745   0.999  0.8035 -0.8080 -0.0806
  281MOL     H439764   2.342   1.988   0.859  0.1152  2.1424  0.5062
  281MOL     H539765   2.305   2.004   1.036  2.3810 -0.4886 -0.2371
  281MOL     H639766   2.185   1.798   0.837 -0.4980 -2.2940  1.0345
  281MOL     H739767   2.128   1.843   1.005  0.0185 -2.2569  0.3563
  281MOL     H839768   2.187   2.048   0.919  0.7000  0.9556  1.5509
  281MOL     C939769   2.237   1.642   1.072 -0.2381 -0.1627  0.3273
  281MOL    C1039770   2.338   1.537   1.108 -0.7154  0.7411 -0.1983
  281MOL    O1139771   2.381   1.465   0.988  0.6131  0.1283  0.0565
  281MOL    H1239772   2.195   1.680   1.165 -0.5159  0.6814 -0.1363
  281MOL    H1339773   2.159   1.605   1.004 -1.1295  1.5047  0.4207
  281MOL    H1439774   2.305   1.464   1.182 -2.7154  1.9314  0.0976
  281MOL    H1539775   2.417   1.592   1.158 -2.0101  0.3167  2.3800
  281MOL    C1639776   2.485   1.370   1.021  0.0466 -0.7317 -1.0682
  281MOL    C1739777   2.547   1.314   0.889 -0.0478 -0.4690 -0.3300
  281MOL    O1839778   2.589   1.422   0.807  0.1246 -0.4043  0.2576
  281MOL    H1939779   2.562   1.427   1.072 -0.2598 -0.0133 -1.3975
  281MOL    H2039780   2.452   1.290   1.088 -1.3358 -0.2808 -1.1937
  281MOL    H2139781   2.465   1.255   0.848 -0.0305  0.4887 -1.7745
  281MOL    H2239782   2.633   1.249   0.902  0.3484  0.3763  1.4200
  281MOL    C2339783   2.630   1.389   0.675  0.2851  0.2703  0.4674
  281MOL    C2439784   2.677   1.514   0.606  0.3300  0.0588 -0.5392
  281MOL    O2539785   2.805   1.516   0.542 -0.1975  0.1471 -0.1465
  281MOL    H2639786   2.712   1.317   0.669  0.2388  0.2137  0.5050
  281MOL    H2739787   2.546   1.333   0.633  0.8476 -0.4177  0.2276
  281MOL    H2839788   2.668   1.596   0.677 -0.1731  1.1837 -1.8701
  281MOL    H2939789   2.604   1.537   0.528 -1.1871 -1.2119  0.4744
  281MOL    C3039790   2.847   1.639   0.493  0.2704 -0.6819  0.3072
  281MOL    C3139791   2.987   1.630   0.444  0.5164 -0.0310  0.3819
  281MOL    O3239792   2.992   1.532   0.338  0.4286 -0.2858 -0.3843
  281MOL    H3339793   2.781   1.660   0.409 -0.6945 -1.8081  0.7663
  281MOL    H3439794   2.844   1.714   0.571 -0.0639  0.7184 -1.0431
  281MOL    H3539795   3.048   1.591   0.526 -1.1062 -3.6867 -0.0427
  281MOL    H3639796   3.034   1.724   0.416 -1.3307  0.3212 -1.6476
  281MOL    C3739797   3.101   1.545   0.254  0.3041 -0.8599 -0.3063
  281MOL    C3839798   3.064   1.471   0.117 -0.1935 -0.6616  0.1429
  281MOL    O3939799   3.194   1.452   0.054 -0.1541  0.0086  0.4164
  281MOL    H4039800   3.127   1.649   0.235  1.4211 -1.3579 -1.6225
  281MOL    H4139801   3.185   1.495   0.302 -0.8485 -1.7779  0.7874
  281MOL    H4239802   2.998   1.528   0.052  0.6278  0.3500  0.1720
  281MOL    H4339803   3.012   1.376   0.131 -4.8294  1.3908 -2.1753
  281MOL    C4439804   3.191   1.410   7.688  0.9516 -0.4110  0.3940
  281MOL    C4539805   3.164   1.259   7.697 -0.3608  0.0133  0.2966
  281MOL    O4639806   3.027   1.233   7.716 -0.4764  0.3734 -0.0014
  281MOL    H4739807   3.116   1.457   7.625  0.8961 -1.5165 -0.4012
  281MOL    H4839808   3.287   1.431   7.641 -0.4716  1.3256 -1.8258
  281MOL    H4939809   3.213   1.211   0.011  1.7754  2.1755  0.3244
  281MOL    H5039810   3.196   1.214   7.603 -0.4634 -1.5100  0.9670
  281MOL    C5139811   3.001   1.096   7.734  0.2762  0.2091  0.0304
  281MOL    C5239812   2.859   1.075   0.016  0.2000  0.2172  0.2562
  281MOL    O5339813   2.779   1.047   7.672 -0.0952  0.1162  0.0427
  281MOL    H5439814   3.018   1.026   7.651 -1.3003 -1.1355  0.8199
  281MOL    H5539815   3.075   1.048   0.026 -1.7551 -1.6644  1.0321
  281MOL    H5639816   2.830   1.156   0.083  0.5599 -0.4802  1.2622
  281MOL    H5739817   2.859   0.980   0.070 -4.4197 -0.3112 -0.4754
  281MOL    C5839818   2.647   1.027   7.693  0.7077 -0.2432 -0.3174
  281MOL    C5939819   2.588   1.027   7.553 -0.0172 -0.8891 -0.6199
  281MOL    O6039820   2.600   0.906   7.487  0.4029 -0.4284  0.3551
  281MOL    H6139821   2.621   0.941   7.755  0.1210  0.6948  0.7375
  281MOL    H6239822   2.614   1.112   7.752 -0.2995  0.1262 -1.3944
  281MOL    H6339823   2.630   1.112   7.498  0.3640 -2.4641 -2.8396
  281MOL    H6439824   2.482   1.047   7.564  0.4931  1.3425  0.4848
  281MOL    C6539825   2.724   0.891   7.424 -0.3561 -0.4439 -0.0060
  281MOL    C6639826   2.725   0.774   7.324  0.1628  0.0937 -0.6950
  281MOL    O6739827   2.777   0.658   7.393  0.2486  0.1428  0.1493
  281MOL    H6839828   2.750   0.978   7.364 -1.1328  0.5530  1.0708
  281MOL    H6939829   2.810   0.871   7.489  1.2443  0.9763 -1.6492
  281MOL    H7039830   2.785   0.793   7.236  2.1853  1.3284  0.8953
  281MOL    H7139831   2.624   0.762   7.283 -0.6334 -1.0647  1.4828
  281MOL    C7239832   2.766   0.542   7.315  0.2646  0.8041 -0.4915
  281MOL    C7339833   2.816   0.425   7.407 -0.9356 -0.3911  0.6132
  281MOL    O7439834   2.952   0.448   7.453 -1.0506 -0.0178 -0.0355
  281MOL    H7539835   2.662   0.528   7.287  0.1097 -1.3311  0.9974
  281MOL    H7639836   2.833   0.554   7.229 -0.2608 -0.2968 -1.0752
  281MOL    H7739837   2.805   0.327   7.360  1.1222 -0.4207  0.1183
  281MOL    H7839838   2.755   0.426   7.498 -1.2502 -1.3264  0.4184
  281MOL    C7939839   2.990   0.362   7.559 -0.4348 -0.1400 -0.4038
  281MOL    C8039840   3.131   0.402   7.613 -0.4997 -0.2123 -0.4961
  281MOL    O8139841   3.233   0.353   7.528  0.1031  0.2990 -0.1447
  281MOL    H8239842   2.918   0.359   7.640 -0.6216 -1.3191 -0.5988
  281MOL    H8339843   2.996   0.263   7.514 -1.2099 -0.5706  0.4125
  281MOL    H8439844   3.134   0.344   7.705 -0.8852 -1.6454 -1.3762
  281MOL    H8539845   3.153   0.507   7.632  2.0974 -0.3585 -2.3443
  281MOL    C8639846   3.363   0.337   7.583 -0.4696 -0.0845  0.2995
  281MOL    C8739847   3.457   0.407   7.480 -0.7557 -0.3744 -0.4189
  281MOL    O8839848   3.459   0.545   7.507 -0.1063 -0.1526 -0.3676
  281MOL    H8939849   3.368   0.374   7.685  2.0617  1.7476 -0.4451
  281MOL    H9039850   3.391   0.231   7.584  0.2691  0.1105  0.2972
  281MOL    H9139851   3.439   0.396   7.373 -1.7836  0.5441 -0.3403
  281MOL    H9239852   3.557   0.367   7.495 -0.9998 -0.6963  0.3538
  281MOL    C9339853   3.554   0.626   7.441 -0.4505  0.4640 -0.6205
  281MOL    C9439854   3.665   0.666   7.532 -0.0315 -0.0494 -0.4749
  281MOL    O9539855   3.745   0.552   7.530  0.1849 -0.0366 -0.2372
  281MOL    H9639856   3.577   0.596   7.339  1.8827  0.2358 -0.0598
  281MOL    H9739857   3.508   0.722   7.418  0.3038  1.0947  0.4860
  281MOL    H9839858   3.632   0.687   7.634 -0.3461 -0.9810 -0.3757
  281MOL    H9939859   3.718   0.747   7.482  2.9282 -1.8023 -0.3005
  281MOL   C10039860   3.865   0.574   7.602  0.1395  0.2885  0.0220
  281MOL   C10139861   3.976   0.467   7.597 -0.5601  0.2061 -0.4698
  281MOL   O10239862   4.007   0.425   7.465 -0.2802 -0.0466 -0.1904
  281MOL   H10339863   3.907   0.656   7.544 -1.5367 -0.5146 -2.4176
  281MOL   H10439864   3.840   0.605   7.703 -0.4983 -0.1341 -0.0056
  281MOL   H10539865   3.952   0.382   7.661 -0.1050  0.0716 -0.4783
  281MOL   H10639866   4.067   0.505   7.642  1.2434 -2.2782 -1.8773
  281MOL   C10739867   4.088   0.314   7.447 -0.1079 -0.2710  0.1141
  281MOL   C10839868   4.102   0.290   7.300  0.4753 -0.0571  0.0093
  281MOL   O10939869   3.980   0.277   7.238  0.0201  0.1859 -0.3242
  281MOL   H11039870   4.179   0.335   7.503  0.0405  0.4299 -0.3875
  281MOL   H11139871   4.028   0.238   7.498 -0.0485  0.1721  0.8508
  281MOL   H11239872   4.163   0.200   7.297 -1.8882 -1.7258  0.8276
  281MOL   H11339873   4.164   0.368   7.254 -0.2696  1.6415  1.8178
  281MOL   C11439874   3.995   0.217   7.105  0.0833 -0.5079  0.7606
  281MOL   C11539875   3.867   0.235   7.025  0.7535  0.2467  0.5225
  281MOL   O11639876   3.853   0.356   6.948  0.3236 -0.2354 -0.0138
  281MOL   H11739877   4.083   0.250   7.050 -1.7304  0.9010 -1.4268
  281MOL   H11839878   4.003   0.109   7.116  0.9482 -0.4650  0.5441
  281MOL   H11939879   3.781   0.212   7.089  1.9707 -0.1214  2.0777
  281MOL   H12039880   3.875   0.160   6.946 -0.2548  1.8725 -1.1518
  281MOL   C12139881   3.828   0.473   7.038  0.0857 -0.1947 -0.4129
  281MOL   C12239882   3.752   0.575   6.965  0.3267 -0.1603 -0.4404
  281MOL   O12339883   3.612   0.560   6.969 -0.1385  0.0340 -0.6606
  281MOL   H12439884   3.765   0.440   7.120  0.3550  1.6666  0.5566
  281MOL   H12539885   3.924   0.506   7.075 -1.2148  1.8307  1.2291
  281MOL   H12639886   3.791   0.590   6.864 -2.4052  3.2440 -1.0885
  281MOL   H12739887   3.780   0.673   7.003 -2.1184  1.5857 -2.9056
  281MOL   C12839888   3.534   0.669   6.910 -0.3542 -0.3368 -0.6013
  281MOL   C12939889   3.393   0.626   6.933  0.1914  0.6221 -0.2504
  281MOL   O13039890   3.367   0.625   7.071  0.1759 -0.5093 -0.5250
  281MOL   H13139891   3.538   0.767   6.958  1.2616  0.7510 -2.8336
  281MOL   H13239892   3.558   0.670   6.803 -0.2407 -0.5958 -0.5795
  281MOL   H13339893   3.381   0.529   6.884  1.4939  0.0001  0.6228
  281MOL   H13439894   3.336   0.711   6.897  1.9589  0.7825 -2.7854
  281MOL   C13539895   3.230   0.592   7.101  0.2214  0.0189 -0.1017
  281MOL   C13639896   3.191   0.594   7.248  0.2022 -0.0266 -0.3329
  281MOL   O13739897   3.064   0.636   7.274  0.9953  0.2954  0.3037
  281MOL   H13839898   3.159   0.658   7.052  0.3342 -1.2965 -2.1154
  281MOL   H13939899   3.214   0.492   7.058  0.5751  0.7391 -1.9744
  281MOL   H14039900   3.254   0.666   7.300  0.0541 -1.8496  2.4430
  281MOL   H14139901   3.206   0.497   7.296  0.2326  0.8920  1.5421
  281MOL   H14239902   3.034   0.602   7.357  0.6532  1.3269  0.6084
  282MOL     C139903   1.300   4.759   0.987  0.3147 -0.1157 -0.4155
  282MOL     C239904   1.458   4.770   1.009 -0.7833 -0.2406  0.2688
  282MOL     O339905   1.513   4.788   0.884 -0.4974 -0.1935 -0.4192
  282MOL     H439906   1.275   4.816   0.897 -2.4798 -0.5304  0.0529
  282MOL     H539907   1.241   4.806   1.065  2.9011  1.8456  0.4565
  282MOL     H639908   1.488   4.675   1.053  0.0090 -0.2000 -0.1893
  282MOL     H739909   1.484   4.847   1.081 -1.9952 -0.8488  1.3805
  282MOL     H839910   1.261   4.660   0.965 -0.8011  0.2320 -0.0173
  282MOL     C939911   1.646   4.822   0.892  0.3415 -0.1400  0.1224
  282MOL    C1039912   1.742   4.713   0.950  0.3662 -0.5079  0.1500
  282MOL    O1139913   1.720   4.589   0.882 -0.1345  0.4342 -0.1754
  282MOL    H1239914   1.674   4.847   0.789  0.4988 -0.5345  0.0660
  282MOL    H1339915   1.651   4.925   0.928 -0.2792  0.0866 -0.4399
  282MOL    H1439916   1.716   4.703   1.055  0.1812  2.6507  0.4305
  282MOL    H1539917   1.848   4.735   0.938 -0.0778  1.6721  0.0884
  282MOL    C1639918   1.786   4.479   0.936 -0.5000  0.1818  0.3846
  282MOL    C1739919   1.731   4.347   0.886  0.3401  1.0496  0.0268
  282MOL    O1839920   1.605   4.316   0.937 -0.1500 -0.4891 -0.1185
  282MOL    H1939921   1.889   4.508   0.916 -0.4688  1.2144  1.9830
  282MOL    H2039922   1.785   4.479   1.045  2.1640 -0.7100  0.4435
  282MOL    H2139923   1.805   4.267   0.898 -0.5814 -0.3125 -2.9448
  282MOL    H2239924   1.716   4.350   0.778  0.2526 -1.8681 -0.0862
  282MOL    C2339925   1.488   4.382   0.873 -0.0167  0.1429 -0.1882
  282MOL    C2439926   1.348   4.312   0.902 -0.3587  0.4866  0.4061
  282MOL    O2539927   1.318   4.312   1.040 -0.0923  0.5578  0.3515
  282MOL    H2639928   1.486   4.490   0.890 -0.3651  0.2282 -0.7804
  282MOL    H2739929   1.499   4.367   0.766  1.2232  0.9157 -0.1783
  282MOL    H2839930   1.358   4.206   0.879  0.6155  0.6157  0.2070
  282MOL    H2939931   1.270   4.358   0.842 -1.2995  0.4843  1.6063
  282MOL    C3039932   1.198   4.253   1.085 -0.1855 -0.6465  0.8291
  282MOL    C3139933   1.188   4.265   1.234  0.3365  0.0762  0.0206
  282MOL    O3239934   1.140   4.387   1.295 -0.2049 -0.3263 -0.6000
  282MOL    H3339935   1.110   4.288   1.030  1.4249  0.0882 -1.3592
  282MOL    H3439936   1.207   4.145   1.077  0.3810 -0.9590  4.6982
  282MOL    H3539937   1.289   4.245   1.269  1.7356  2.6166 -2.3989
  282MOL    H3639938   1.120   4.186   1.267  0.8844 -0.4316 -0.0644
  282MOL    C3739939   1.237   4.493   1.280  0.3779 -0.4924 -0.2155
  282MOL    C3839940   1.221   4.592   1.396  0.0191 -1.1876 -0.5403
  282MOL    O3939941   1.147   4.703   1.366  0.1299  0.0413 -0.1103
  282MOL    H4039942   1.338   4.452   1.275  0.9683  1.0988 -1.4875
  282MOL    H4139943   1.223   4.539   1.182  1.6981  1.3733  0.4613
  282MOL    H4239944   1.325   4.618   1.415 -0.3060 -0.1249 -0.1718
  282MOL    H4339945   1.187   4.540   1.485 -0.5307 -0.7488 -0.4908
  282MOL    C4439946   1.133   4.796   1.469 -0.4665 -0.0649 -0.6670
  282MOL    C4539947   1.254   4.883   1.498  0.2736  0.4777 -0.1456
  282MOL    O4639948   1.331   4.821   1.600  0.2506  0.5172 -0.3185
  282MOL    H4739949   1.051   4.861   1.439 -0.5117  1.6888  2.9837
  282MOL    H4839950   1.096   4.745   1.558  0.8834  1.2950  0.7051
  282MOL    H4939951   1.218   4.983   1.524  2.4343  1.5721 -1.2042
  282MOL    H5039952   1.316   4.904   1.411 -1.3679  1.1859 -1.1654
  282MOL    C5139953   1.440   4.894   1.650  0.0744 -0.5489 -0.5628
  282MOL    C5239954   1.389   4.986   1.762  0.3109  0.2119 -0.2614
  282MOL    O5339955   1.372   4.917   1.879 -0.6436 -0.0902  0.1936
  282MOL    H5439956   1.511   4.819   1.685 -0.7586 -0.2845  1.7890
  282MOL    H5539957   1.490   4.960   1.579 -1.7830  1.6913  0.1354
  282MOL    H5639958   1.294   5.032   1.733 -0.1575  0.2618  1.3237
  282MOL    H5739959   1.468   5.057   1.788 -0.2772  0.7529  0.0527
  282MOL    C5839960   1.324   4.996   1.983  0.0736  1.1586  0.1034
  282MOL    C5939961   1.173   4.974   2.007  0.1000 -0.0204  0.3260
  282MOL    O6039962   1.092   5.042   1.920  0.9395  0.2184 -0.4169
  282MOL    H6139963   1.388   4.957   2.063 -1.1931 -1.1832  0.0254
  282MOL    H6239964   1.362   5.098   1.991  0.2691  1.0385  0.8003
  282MOL    H6339965   1.155   5.006   2.110 -0.8561 -1.9521  0.7771
  282MOL    H6439966   1.143   4.869   2.002 -1.6894  0.4932  0.1732
  282MOL    C6539967   1.030   4.959   1.817  0.0936 -0.1218 -0.2307
  282MOL    C6639968   0.919   5.028   1.740  0.3810  0.9054 -0.2871
  282MOL    O6739969   0.985   5.092   1.630 -0.0862 -1.0454 -1.0182
  282MOL    H6839970   1.105   4.926   1.746 -0.9051  0.0358 -1.3659
  282MOL    H6939971   0.979   4.874   1.864 -0.9615 -0.0690 -1.2580
  282MOL    H7039972   0.854   5.089   1.803 -0.9632 -1.8536  1.0649
  282MOL    H7139973   0.847   4.954   1.707  0.7533  0.6869 -0.6265
  282MOL    C7239974   0.895   5.111   1.523  0.4508 -0.4227  0.6529
  282MOL    C7339975   0.976   5.197   1.417  0.5938  0.1691  0.5310
  282MOL    O7439976   1.057   5.126   1.325 -0.6019 -0.0331 -0.2618
  282MOL    H7539977   0.868   5.013   1.484 -2.1669  0.4588  0.1483
  282MOL    H7639978   0.804   5.162   1.555 -0.3531 -2.1375  1.1510
  282MOL    H7739979   1.047   5.253   1.477  1.5924 -0.9697  0.4334
  282MOL    H7839980   0.927   5.280   1.366  0.0818 -1.0788 -1.0476
  282MOL    C7939981   1.005   5.094   1.200 -0.9032  0.3800  0.0467
  282MOL    C8039982   1.121   5.057   1.114 -0.9723  0.1417 -0.2977
  282MOL    O8139983   1.167   5.177   1.046  0.2955  0.8596 -0.4619
  282MOL    H8239984   0.931   5.014   1.213 -1.1914  0.3791 -1.4972
  282MOL    H8339985   0.956   5.180   1.155 -1.3773  1.1619  2.0311
  282MOL    H8439986   1.098   4.980   1.041  2.2222 -0.1918 -1.0327
  282MOL    H8539987   1.201   5.007   1.170  0.3255  0.6234 -1.6703
  282MOL    C8639988   1.245   5.142   0.936 -0.8534  0.0746 -0.0131
  282MOL    C8739989   1.310   5.256   0.863 -0.5521 -0.2436 -0.2929
  282MOL    O8839990   1.401   5.327   0.946 -0.3301  0.4447 -0.3833
  282MOL    H8939991   1.319   5.069   0.967  1.4415  2.8547  1.2440
  282MOL    H9039992   1.171   5.094   0.871 -0.6384 -0.6529  0.2710
  282MOL    H9139993   1.239   5.335   0.842  0.2427  0.2072 -1.3222
  282MOL    H9239994   1.357   5.209   0.777  2.4488 -0.5943  1.4373
  282MOL    C9339995   1.475   5.420   0.871  0.1804  0.8387  0.2671
  282MOL    C9439996   1.600   5.446   0.956 -0.4146 -0.1625 -0.4560
  282MOL    O9539997   1.708   5.361   0.925  0.2604 -0.2815  0.2530
  282MOL    H9639998   1.489   5.383   0.769 -2.3053 -0.6753  0.4422
  282MOL    H9739999   1.432   5.520   0.872 -1.3090  0.2539 -1.6472
  282MOL    H9840000   1.569   5.448   1.060  1.4147 -4.4643  0.2692
  282MOL    H9940001   1.629   5.549   0.931 -0.0557 -0.5267 -1.5871
  282MOL   C10040002   1.821   5.395   1.010 -0.4508  0.3106 -0.4380
  282MOL   C10140003   1.945   5.317   0.980  0.5044 -0.6068 -0.1369
  282MOL   O10240004   2.008   5.367   0.864  0.1059 -0.1618 -0.0847
  282MOL   H10340005   1.847   5.500   1.005  0.5366 -0.0229 -2.6775
  282MOL   H10440006   1.796   5.373   1.114 -0.0269 -0.2740 -0.4553
  282MOL   H10540007   1.912   5.214   0.971 -1.7485 -0.0355  1.2977
  282MOL   H10640008   2.011   5.331   1.065  0.8573 -0.0587 -0.4970
  282MOL   C10740009   2.144   5.347   0.865 -0.2037  0.1824  0.6673
  282MOL   C10840010   2.194   5.320   0.726  0.1791 -0.0558 -0.2740
  282MOL   O10940011   2.119   5.208   0.678  0.2274 -0.1587  0.0184
  282MOL   H11040012   2.191   5.435   0.908  1.0541 -1.3014  2.4284
  282MOL   H11140013   2.183   5.262   0.921  1.7798 -0.6060 -1.7857
  282MOL   H11240014   2.299   5.289   0.721 -0.1858 -1.6786  1.7024
  282MOL   H11340015   2.185   5.405   0.659  1.0794  1.0849  1.0315
  282MOL   C11440016   2.161   5.151   0.561  0.0874  0.4385  0.2396
  282MOL   C11540017   2.050   5.060   0.523 -0.1464  0.6024  0.0690
  282MOL   O11640018   1.930   5.134   0.490  0.0386 -1.0748 -0.2364
  282MOL   H11740019   2.162   5.232   0.489  2.0811  0.5401  0.3671
  282MOL   H11840020   2.259   5.102   0.560 -1.2760 -2.3863 -1.6742
  282MOL   H11940021   2.026   4.979   0.592  1.3508 -0.1919 -0.3375
  282MOL   H12040022   2.073   5.014   0.427  1.7685 -1.0944  1.2974
  282MOL   C12140023   1.831   5.153   0.592 -0.2929  0.6171 -0.1641
  282MOL   C12240024   1.707   5.226   0.543 -0.2474 -0.5439 -0.4308
  282MOL   O12340025   1.616   5.128   0.487 -0.2433  0.2133  0.5188
  282MOL   H12440026   1.800   5.058   0.635 -4.0175  1.4927 -0.7330
  282MOL   H12540027   1.871   5.209   0.677 -0.7764  0.8343 -0.0793
  282MOL   H12640028   1.712   5.310   0.474 -1.1900  0.6067  0.8700
  282MOL   H12740029   1.659   5.251   0.637  0.8031 -0.1758  0.0184
  282MOL   C12840030   1.496   5.181   0.422  0.0810 -0.4776  0.3551
  282MOL   C12940031   1.374   5.088   0.411 -0.7393 -0.2548 -0.2880
  282MOL   O13040032   1.391   5.005   0.293  0.3237 -0.1620  0.0948
  282MOL   H13140033   1.459   5.252   0.495 -0.5743 -0.1623 -0.2768
  282MOL   H13240034   1.518   5.240   0.332 -1.8443 -0.4763 -0.1337
  282MOL   H13340035   1.293   5.153   0.379  1.7026  3.8360  1.4867
  282MOL   H13440036   1.359   5.028   0.501  0.4818  0.8419  0.6603
  282MOL   C13540037   1.323   4.882   0.298  0.4630 -0.3044 -0.3476
  282MOL   C13640038   1.378   4.791   0.191 -0.4310 -0.4261  0.3071
  282MOL   O13740039   1.314   4.825   0.069 -0.7914 -0.1339  0.0960
  282MOL   H13840040   1.336   4.831   0.393 -1.5920  0.4998  0.3737
  282MOL   H13940041   1.216   4.895   0.282  0.5160 -0.5882 -0.9560
  282MOL   H14040042   1.360   4.689   0.226 -0.3860 -0.0275  1.5123
  282MOL   H14140043   1.486   4.795   0.183 -0.5838  0.7063 -1.3738
  282MOL   H14240044   1.341   4.910   0.036  2.3738 -1.7354 -1.6234
  283MOL     C140045   7.382   6.481   7.392  0.1500  0.1886  0.1378
  283MOL     C240046   7.376   6.512   7.241  0.3869  0.3638 -0.3072
  283MOL     O340047   7.363   6.653   7.220  0.0931  0.5632  0.0942
  283MOL     H440048   7.426   6.385   7.421  1.4175  1.0725  1.1853
  283MOL     H540049   7.278   6.483   7.425 -0.1095  0.7667 -0.7018
  283MOL     H640050   7.300   6.453   7.188  0.1538  0.2763  0.1213
  283MOL     H740051   7.472   6.490   7.194  0.9809  1.1335  0.5307
  283MOL     H840052   7.446   6.552   7.443  0.1449  0.9273 -0.8832
  283MOL     C940053   7.340   6.682   7.084 -0.2029 -0.2670 -0.5205
  283MOL    C1040054   7.273   6.819   7.066 -0.2545  0.0381 -0.0291
  283MOL    O1140055   7.134   6.808   7.091  0.4251  0.0453  0.0178
  283MOL    H1240056   7.437   6.688   7.034  0.7115  0.1660  1.2519
  283MOL    H1340057   7.284   6.600   7.040  0.3142 -0.7967 -0.1948
  283MOL    H1440058   7.293   6.851   6.964 -1.5680 -0.4116 -0.4338
  283MOL    H1540059   7.323   6.886   7.137 -1.3942  3.4318 -2.2956
  283MOL    C1640060   7.062   6.916   7.037  0.5645  0.9731 -0.5081
  283MOL    C1740061   6.904   6.902   7.067 -0.7553  1.2176 -0.8296
  283MOL    O1840062   6.852   7.033   7.060  1.0096 -0.1931 -0.7063
  283MOL    H1940063   7.096   7.006   7.086  3.7965  0.1091 -1.0862
  283MOL    H2040064   7.091   6.935   6.934  0.0073  2.5159 -0.3936
  283MOL    H2140065   6.890   6.872   7.171  0.2763 -0.1934 -1.0725
  283MOL    H2240066   6.857   6.830   7.000  1.6569 -0.8592 -0.3711
  283MOL    C2340067   6.715   7.053   7.094  0.1857  0.2096 -0.2212
  283MOL    C2440068   6.674   7.197   7.052  0.7836 -0.4559 -0.0463
  283MOL    O2540069   6.676   7.203   6.908  0.2834 -0.1551  0.3050
  283MOL    H2640070   6.652   6.978   7.047 -0.6016  0.4047  0.5068
  283MOL    H2740071   6.709   7.046   7.203 -0.4852 -2.6308 -0.3986
  283MOL    H2840072   6.741   7.269   7.099  1.2116 -0.1504 -1.1074
  283MOL    H2940073   6.572   7.219   7.085  1.1993 -0.8925  1.5700
  283MOL    C3040074   6.618   7.318   6.850 -0.2133  0.1239 -0.1869
  283MOL    C3140075   6.631   7.311   6.702 -0.0227  0.3128 -0.3543
  283MOL    O3240076   6.763   7.331   6.650  0.6519 -0.5058 -0.2750
  283MOL    H3340077   6.514   7.323   6.884  0.2011 -0.6515  1.2551
  283MOL    H3440078   6.658   7.406   6.900  1.7601 -0.6593 -0.3238
  283MOL    H3540079   6.558   7.381   6.663 -0.3476  0.5340  0.6290
  283MOL    H3640080   6.606   7.218   6.651  2.5792  0.3864 -1.8713
  283MOL    C3740081   6.786   7.474   6.647  0.7319  0.2012  0.2446
  283MOL    C3840082   6.724   7.526   6.522 -0.5100  0.8676  0.2778
  283MOL    O3940083   6.598   7.584   6.554  0.3646 -0.2987 -0.2544
  283MOL    H4040084   6.763   7.521   6.742 -0.2066  1.1110 -0.4235
  283MOL    H4140085   6.894   7.482   6.632  0.6562  0.9953  0.0903
  283MOL    H4240086   6.702   7.448   6.448  1.7136 -0.1298  0.6263
  283MOL    H4340087   6.795   7.596   6.478 -1.1638  2.1534  1.2669
  283MOL    C4440088   6.611   7.720   6.595 -0.6118 -0.7407  0.2666
  283MOL    C4540089   6.623   0.042   6.482 -0.0642 -0.3521 -0.3036
  283MOL    O4640090   6.758   0.052   6.443 -0.7215 -0.0202  0.2688
  283MOL    H4740091   6.524   7.747   6.655  0.2389 -0.3787  1.3560
  283MOL    H4840092   6.695   7.739   6.662 -0.4279  1.7815 -0.6223
  283MOL    H4940093   6.589   0.141   6.514  1.8035  0.4571 -0.7578
  283MOL    H5040094   6.564   0.008   6.397 -0.5619 -1.5375  0.5071
  283MOL    C5140095   6.778   0.159   6.350 -0.4606  0.9642 -0.0704
  283MOL    C5240096   6.920   0.164   6.298 -1.1187  0.1881 -0.3220
  283MOL    O5340097   6.940   0.089   6.183  0.7714 -0.2643 -0.0047
  283MOL    H5440098   6.706   0.148   6.269 -2.0767 -1.2887  1.6137
  283MOL    H5540099   6.761   0.251   6.405  0.7478  1.5965 -0.7350
  283MOL    H5640100   6.988   0.127   6.375 -1.3885 -1.6444 -0.9361
  283MOL    H5740101   6.943   0.266   6.268  0.5614  0.4486  1.7008
  283MOL    C5840102   7.057   0.106   6.107  0.1213  0.1591  0.3558
  283MOL    C5940103   7.053   0.024   5.977  0.6878  0.0067  0.1755
  283MOL    O6040104   7.137   7.685   5.996 -0.8878 -0.1328  0.2497
  283MOL    H6140105   7.048   0.209   6.073  0.2903 -0.6003 -2.1132
  283MOL    H6240106   7.152   0.110   6.160 -1.3029  1.4198  2.8821
  283MOL    H6340107   7.078   0.082   5.888 -0.7023 -2.7421 -2.0655
  283MOL    H6440108   6.948   7.767   5.972  0.8769 -1.2228  2.6008
  283MOL    C6540109   7.122   7.575   5.905  0.6697 -0.3048  0.2202
  283MOL    C6640110   7.000   7.494   5.941 -0.3311  0.0200  0.1555
  283MOL    O6740111   7.006   7.430   6.064 -0.4549  0.7384  0.3236
  283MOL    H6840112   7.114   7.603   5.800  2.8576 -0.4388  0.0092
  283MOL    H6940113   7.215   7.520   5.896 -0.2289 -1.7469 -0.4735
  283MOL    H7040114   6.994   7.414   5.867 -1.0346  1.7590 -1.7292
  283MOL    H7140115   6.902   7.540   5.929 -0.1570  0.4322  0.3132
  283MOL    C7240116   6.992   7.506   6.184 -0.1423  1.0544 -0.3128
  283MOL    C7340117   6.971   7.393   6.283  0.3529 -0.4620 -0.4689
  283MOL    O7440118   6.847   7.328   6.266  0.1181 -0.1822 -0.0318
  283MOL    H7540119   7.086   7.558   6.205 -0.0144  0.4344  0.6677
  283MOL    H7640120   6.903   7.568   6.183  0.5337  2.0421 -1.4318
  283MOL    H7740121   6.980   7.437   6.383 -1.8334  1.0306 -0.8897
  283MOL    H7840122   7.058   7.329   6.271  1.0195  0.5145 -0.8730
  283MOL    C7940123   6.855   7.194   6.321  0.4340  0.3904 -0.0578
  283MOL    C8040124   6.718   7.138   6.356  0.4746  0.2353  0.7588
  283MOL    O8140125   6.699   7.023   6.287 -0.6353  0.7208  0.2093
  283MOL    H8240126   6.906   7.129   6.250  1.0455 -1.0062  1.6245
  283MOL    H8340127   6.913   7.183   6.413  1.9674 -1.2145 -1.2034
  283MOL    H8440128   6.645   7.215   6.329  1.2249  1.0529  1.0231
  283MOL    H8540129   6.697   7.119   6.461  0.6667  0.5169  0.8491
  283MOL    C8640130   6.569   6.965   6.297  0.8946  0.1033  0.1336
  283MOL    C8740131   6.579   6.822   6.250  0.0160  0.2173  0.4545
  283MOL    O8840132   6.630   6.739   6.358 -0.0961  0.3842  0.3706
  283MOL    H8940133   6.535   6.961   6.400 -3.4718  0.6686 -1.1939
  283MOL    H9040134   6.500   7.019   6.231  1.0710 -0.6263 -0.6539
  283MOL    H9140135   6.649   6.816   6.167  0.0369 -0.2181  0.5035
  283MOL    H9240136   6.478   6.790   6.222  1.5496 -3.5915 -0.9768
  283MOL    C9340137   6.660   6.610   6.302  0.7481  0.2017 -0.4430
  283MOL    C9440138   6.685   6.510   6.409 -0.1136  0.3791  0.2713
  283MOL    O9540139   6.561   6.477   6.480  0.3840  0.3901  0.2177
  283MOL    H9640140   6.583   6.580   6.231 -1.4371  0.5855  1.7007
  283MOL    H9740141   6.759   6.624   6.259  1.4012 -0.0148  0.9690
  283MOL    H9840142   6.757   6.545   6.483 -0.3112  0.9096  0.2124
  283MOL    H9940143   6.709   6.411   6.369 -0.0453  0.2821  0.5499
  283MOL   C10040144   6.586   6.407   6.597  0.4312  0.5411  0.4357
  283MOL   C10140145   6.551   6.260   6.574  0.2029 -0.4778 -0.2410
  283MOL   O10240146   6.409   6.247   6.590  0.6495 -0.7288 -0.9122
  283MOL   H10340147   6.693   6.407   6.619  0.8672 -0.6301 -1.5023
  283MOL   H10440148   6.524   6.444   6.679  0.0651 -1.7756  1.2411
  283MOL   H10540149   6.593   6.207   6.659  1.7445 -1.8535 -1.8173
  283MOL   H10640150   6.598   6.223   6.483  1.4496 -1.3220  0.7305
  283MOL   C10740151   6.342   6.272   6.461  0.9954 -0.3098  0.7953
  283MOL   C10840152   6.190   6.262   6.485  0.2578 -0.6322  0.5552
  283MOL   O10940153   6.111   6.283   6.366  0.0737  0.2952 -0.2498
  283MOL   H11040154   6.374   6.369   6.424  1.1459 -1.0206 -0.9936
  283MOL   H11140155   6.380   6.196   6.393  1.9672 -0.5022  1.5523
  283MOL   H11240156   6.158   6.324   6.569 -2.6432  0.3059 -1.1610
  283MOL   H11340157   6.174   6.160   6.520 -0.3770 -0.5785  0.4235
  283MOL   C11440158   5.970   6.300   6.397  0.3251  0.2527 -0.1218
  283MOL   C11540159   5.912   6.159   6.419 -0.2833  0.2851 -0.3205
  283MOL   O11640160   5.925   6.139   6.558 -0.6834 -0.0219 -0.3351
  283MOL   H11740161   5.948   6.370   6.478 -2.1175 -1.2200  0.5217
  283MOL   H11840162   5.911   6.339   6.315  0.1191 -0.2936 -0.2327
  283MOL   H11940163   5.964   6.075   6.373  0.5102  2.4207 -3.4745
  283MOL   H12040164   5.807   6.160   6.388 -0.3197  2.2528 -0.1531
  283MOL   C12140165   5.886   6.008   6.600  0.4394 -0.0408 -0.3686
  283MOL   C12240166   5.731   5.999   6.626 -0.2847  0.5052 -0.0834
  283MOL   O12340167   5.670   5.969   6.502  0.2047  0.3485 -0.4727
  283MOL   H12440168   5.918   5.942   6.519 -2.4405  0.8467 -2.3315
  283MOL   H12540169   5.948   5.981   6.685 -0.3462  0.8185  0.4976
  283MOL   H12640170   5.697   6.095   6.665 -0.4480 -0.1336  1.3768
  283MOL   H12740171   5.695   5.917   6.689 -0.2960 -1.4050 -2.5074
  283MOL   C12840172   5.527   5.990   6.511 -0.5003 -0.1416  0.1942
  283MOL   C12940173   5.445   5.931   6.391  0.5372 -0.3420  0.4885
  283MOL   O13040174   5.423   6.029   6.290 -0.1867  0.0001 -0.7882
  283MOL   H13140175   5.490   5.937   6.599 -1.0493 -0.4284 -0.2059
  283MOL   H13240176   5.493   6.090   6.534 -3.0451 -0.2133 -2.9602
  283MOL   H13340177   5.345   5.908   6.427  0.2570 -0.2257 -0.2200
  283MOL   H13440178   5.492   5.842   6.349  2.9375  0.5781  1.1209
  283MOL   C13540179   5.523   6.033   6.192  0.7576  0.8055 -0.0566
  283MOL   C13640180   5.499   6.161   6.105 -0.2220 -0.4086 -0.0897
  283MOL   O13740181   5.514   6.134   5.966  0.2750 -0.2499 -0.0425
  283MOL   H13840182   5.626   6.019   6.226  0.4306 -1.9691 -0.0469
  283MOL   H13940183   5.523   5.938   6.138  2.6868  0.0459  1.2071
  283MOL   H14040184   5.568   6.237   6.141  1.5162 -1.2580 -1.5737
  283MOL   H14140185   5.402   6.206   6.127  0.9019  1.8177  0.4854
  283MOL   H14240186   5.464   6.197   5.916 -0.4337 -2.7301 -2.5982
  284MOL     C140187   0.505   1.850   6.787 -0.2918  0.6464  0.9823
  284MOL     C240188   0.398   1.757   6.841  0.4591 -0.2113 -0.2468
  284MOL     O340189   0.433   1.720   6.973 -0.2106  0.0658  0.8220
  284MOL     H440190   0.518   1.935   6.854  0.1394  1.3050  0.0650
  284MOL     H540191   0.487   1.871   6.682  2.8336  1.4938  0.5466
  284MOL     H640192   0.380   1.673   6.774 -0.4181  1.0071 -1.5658
  284MOL     H740193   0.306   1.815   6.837  1.5019  1.4814 -0.7142
  284MOL     H840194   0.606   1.809   6.777 -1.7321 -2.4979 -1.5038
  284MOL     C940195   0.324   1.647   7.025  0.0211 -0.0818  0.8491
  284MOL    C1040196   0.359   1.602   7.173  0.8017  0.2120 -0.2184
  284MOL    O1140197   0.423   1.470   7.179 -0.1298  0.4878 -0.1684
  284MOL    H1240198   0.240   1.716   7.024  1.3323  1.5529  0.9249
  284MOL    H1340199   0.309   1.559   6.962  2.7245  0.8918 -1.2826
  284MOL    H1440200   0.269   1.596   7.233  0.8661  1.7438  0.0477
  284MOL    H1540201   0.433   1.667   7.221 -0.6197 -0.2657  2.6755
  284MOL    C1640202   0.464   1.428   7.311  0.5714 -0.0438 -0.5300
  284MOL    C1740203   0.615   1.395   7.303  0.2093 -0.1616 -0.5538
  284MOL    O1840204   0.650   1.281   7.229  0.3710  0.2137 -0.7987
  284MOL    H1940205   0.441   1.501   7.387 -0.5313 -1.8409  0.9057
  284MOL    H2040206   0.405   1.343   7.345 -0.5035  0.3210 -1.4360
  284MOL    H2140207   0.655   1.377   7.403 -1.1102 -1.3030 -0.2145
  284MOL    H2240208   0.659   1.487   7.264 -0.3582  0.2761 -0.1754
  284MOL    C2340209   0.787   1.247   7.230 -0.1449  0.6425 -0.2620
  284MOL    C2440210   0.821   1.118   7.312 -0.1119 -0.4083  0.3731
  284MOL    O2540211   0.753   1.118   7.434  0.6710  0.1931  0.5539
  284MOL    H2640212   0.822   1.234   7.127  0.4694  1.5122 -0.1749
  284MOL    H2740213   0.854   1.324   7.270  1.2178 -0.7123  0.0927
  284MOL    H2840214   0.930   1.112   7.315 -0.0560 -0.0272 -0.7970
  284MOL    H2940215   0.788   1.038   7.247  0.3591  0.0754 -0.4636
  284MOL    C3040216   0.811   1.029   7.518 -1.3207 -0.5214 -0.7947
  284MOL    C3140217   0.708   0.999   7.633 -0.0033 -0.0694  0.5715
  284MOL    O3240218   0.722   1.097   7.741  0.4607 -0.1423  0.2377
  284MOL    H3340219   0.845   0.938   7.469  0.8451 -0.1449 -0.0348
  284MOL    H3440220   0.904   1.062   7.564 -2.2912 -1.0446  1.6202
  284MOL    H3540221   0.739   0.903   7.676 -0.5489 -0.6556 -0.3255
  284MOL    H3640222   0.603   0.995   7.605 -0.3605  1.8012  1.5815
  284MOL    C3740223   0.634   1.068   0.080 -0.4000  0.3479  0.1962
  284MOL    C3840224   0.493   1.110   0.043 -0.0335 -0.4415 -0.2714
  284MOL    O3940225   0.477   1.255   0.045  0.0018  0.3122  0.5148
  284MOL    H4040226   0.636   0.966   0.120  0.0819 -0.4879 -1.8838
  284MOL    H4140227   0.660   1.132   0.164  1.7767  1.1958 -1.0740
  284MOL    H4240228   0.436   1.080   0.130 -0.3622  1.1412  0.0743
  284MOL    H4340229   0.440   1.064   7.731 -3.3887  2.0799  0.3644
  284MOL    C4440230   0.492   1.317   7.689 -0.1297 -0.2032 -0.1032
  284MOL    C4540231   0.485   1.472   7.704  0.2701 -0.1434  0.4213
  284MOL    O4640232   0.345   1.491   7.720  0.1309  0.3133 -0.5402
  284MOL    H4740233   0.588   1.300   7.641 -1.1570 -0.1382 -2.2249
  284MOL    H4840234   0.417   1.270   7.626  0.7622 -1.8557  0.0489
  284MOL    H4940235   0.534   1.521   7.620  0.1393  2.7039  1.9492
  284MOL    H5040236   0.548   1.508   0.014  0.2032 -1.9389  1.2913
  284MOL    C5140237   0.303   1.611   7.663  0.4508  0.4273 -0.2710
  284MOL    C5240238   0.156   1.635   7.689 -0.7470 -0.2090 -0.3463
  284MOL    O5340239   0.079   1.579   7.587 -0.0649 -0.1760  0.7907
  284MOL    H5440240   0.366   1.694   7.698 -0.6045  1.6479 -1.2020
  284MOL    H5540241   0.318   1.593   7.557  0.6698  0.1086 -0.1864
  284MOL    H5640242   0.136   1.742   7.680  0.3274  0.0816  0.5955
  284MOL    H5740243   0.126   1.607   0.019 -0.3351  1.0440  0.1395
  284MOL    C5840244   0.042   1.443   7.601 -0.1597  0.3745  0.1892
  284MOL    C5940245   0.014   1.381   7.467 -0.2578  0.6411 -0.6516
  284MOL    O6040246   0.132   1.359   7.393  0.1119  0.3239 -0.7080
  284MOL    H6140247   0.122   1.395   7.658  0.9881  0.3810 -1.3599
  284MOL    H6240248   7.723   1.439   7.662  0.2842 -0.6390  0.7997
  284MOL    H6340249   7.738   1.456   7.403 -0.8287  0.3549 -0.5705
  284MOL    H6440250   7.727   1.290   7.475  0.8588  0.0804  1.4637
  284MOL    C6540251   0.128   1.273   7.276 -0.5037  0.7776 -1.0926
  284MOL    C6640252   0.096   1.355   7.152  0.1872  0.5493 -0.7169
  284MOL    O6740253   7.750   1.306   7.097 -0.4472 -0.1268  0.6535
  284MOL    H6840254   0.230   1.235   7.272 -1.2647 -1.2085 -2.5503
  284MOL    H6940255   0.071   1.186   7.307 -1.5298  1.8659  0.1421
  284MOL    H7040256   0.185   1.358   7.089  1.2425 -1.3180  0.6436
  284MOL    H7140257   0.079   1.459   7.178 -1.6926  0.4700 -1.5669
  284MOL    C7240258   7.667   1.390   7.016 -0.1426 -0.4110  0.2963
  284MOL    C7340259   7.608   1.296   6.924 -0.0648  0.2407  0.2802
  284MOL    O7440260   7.498   1.226   6.991  0.3751  0.1092 -0.0060
  284MOL    H7540261   7.581   1.432   7.068  0.3510 -0.6406  1.3289
  284MOL    H7640262   7.712   1.460   6.947  0.7442 -0.4357  0.8387
  284MOL    H7740263   7.684   1.230   6.882 -1.0532  0.9623 -2.7332
  284MOL    H7840264   7.579   1.347   6.832  1.7959 -0.5213 -0.7585
  284MOL    C7940265   7.449   1.123   6.910  0.3555 -0.3069  0.5666
  284MOL    C8040266   7.332   1.052   6.989  0.5003  0.0384  0.1398
  284MOL    O8140267   7.227   1.144   7.021 -0.2519 -0.1816  0.4150
  284MOL    H8240268   7.410   1.152   6.812  0.7853 -0.7292  0.2687
  284MOL    H8340269   7.528   1.051   6.888 -0.1145  0.0187 -2.4046
  284MOL    H8440270   7.383   1.010   7.076 -0.3263 -1.7596 -0.2234
  284MOL    H8540271   7.294   0.971   6.927  2.4197 -0.5227 -0.3242
  284MOL    C8640272   7.131   1.076   7.099  0.2649  0.4172  0.4355
  284MOL    C8740273   7.036   1.177   7.159  0.9389 -0.1225 -0.6405
  284MOL    O8840274   6.927   1.203   7.062 -0.1295 -0.4035 -0.3618
  284MOL    H8940275   7.087   1.007   7.027 -1.4602  0.9270  0.9760
  284MOL    H9040276   7.186   1.018   7.173  0.7340 -1.5911 -1.4222
  284MOL    H9140277   7.106   1.259   7.174  0.5002 -0.2862  2.6885
  284MOL    H9240278   7.002   1.130   7.252  0.7950 -1.8947 -1.5577
  284MOL    C9340279   6.836   1.285   7.133 -0.6817 -0.2494  0.4355
  284MOL    C9440280   6.799   1.397   7.030  0.9375 -0.4444  0.2437
  284MOL    O9540281   6.910   1.488   7.012  0.6157  0.1046 -0.0845
  284MOL    H9640282   6.751   1.233   7.176  0.0064 -1.8906 -0.1430
  284MOL    H9740283   6.877   1.335   7.220 -0.4264  1.6377 -0.7460
  284MOL    H9840284   6.715   1.455   7.069  2.0822  3.0405 -2.2382
  284MOL    H9940285   6.764   1.350   6.937  0.8274 -0.1527  0.1363
  284MOL   C10040286   6.892   1.592   6.915  0.1371  0.0100  0.4244
  284MOL   C10140287   7.028   1.662   6.898  0.5092 -0.8250 -0.0927
  284MOL   O10240288   7.113   1.605   6.805  0.1987 -0.3516  0.2937
  284MOL   H10340289   6.861   1.555   6.817 -0.1716 -0.6539  0.7700
  284MOL   H10440290   6.803   1.643   6.952 -0.9464  0.2741 -2.4255
  284MOL   H10540291   7.079   1.672   6.994 -0.9321 -2.8249  0.9370
  284MOL   H10640292   7.024   1.763   6.858  0.3100  0.4062  2.8945
  284MOL   C10740293   7.169   1.480   6.846  0.8563 -0.0982  0.2937
  284MOL   C10840294   7.295   1.450   6.767  0.1596  0.1141 -0.0278
  284MOL   O10940295   7.246   1.405   6.640 -1.1157  0.4248  0.3591
  284MOL   H11040296   7.195   1.487   6.951 -2.4450 -2.9879  1.3967
  284MOL   H11140297   7.093   1.402   6.851  2.4140 -1.6056  1.4000
  284MOL   H11240298   7.345   1.366   6.815  0.2914 -1.0449 -2.1472
  284MOL   H11340299   7.368   1.531   6.757  0.5510 -0.1977  0.3266
  284MOL   C11440300   7.344   1.390   6.538 -0.4334 -0.4002  0.4260
  284MOL   C11540301   7.272   1.332   6.415 -0.4084  0.5857 -1.2537
  284MOL   O11640302   7.355   1.339   6.306 -0.1489  0.7157  0.2159
  284MOL   H11740303   7.403   1.477   6.512 -1.4779  0.1178 -0.2174
  284MOL   H11840304   7.419   1.331   6.591  0.4228  2.7261  2.8456
  284MOL   H11940305   7.178   1.387   6.405 -0.3350  0.5393 -2.3011
  284MOL   H12040306   7.247   1.228   6.436 -0.1965  0.9304  0.7911
  284MOL   C12140307   7.310   1.265   6.190  0.1247 -1.1085 -0.3826
  284MOL   C12240308   7.412   1.271   6.086  0.4348 -0.2446  0.2260
  284MOL   O12340309   7.535   1.208   6.117  1.4359  0.4870 -0.2651
  284MOL   H12440310   7.304   1.162   6.225 -1.1428 -0.6208  0.9142
  284MOL   H12540311   7.211   1.298   6.159  0.5346  1.6100  1.0740
  284MOL   H12640312   7.442   1.376   6.082 -0.6522  0.0276 -0.9470
  284MOL   H12740313   7.377   1.259   5.984  0.0119 -1.9590  0.5539
  284MOL   C12840314   7.628   1.198   6.008 -0.2294 -0.4218  0.0664
  284MOL   C12940315   7.738   1.088   6.029  0.2532 -0.2221  0.1058
  284MOL   O13040316   0.080   1.143   6.106  0.0245  0.5456  0.3675
  284MOL   H13140317   7.574   1.165   5.919  0.8581 -2.4234  0.1153
  284MOL   H13240318   7.670   1.294   5.977  0.8997 -1.2124 -0.9071
  284MOL   H13340319   0.005   1.054   5.932  0.4249 -0.6167  0.3075
  284MOL   H13440320   7.695   0.999   6.074 -0.4645  0.4348  0.7101
  284MOL   C13540321   0.191   1.051   6.125 -0.4204 -0.2821  0.3850
  284MOL   C13640322   0.310   1.104   6.217 -0.1282  0.1816 -0.1200
  284MOL   O13740323   0.399   1.191   6.146 -0.2893 -0.4163  0.0345
  284MOL   H13840324   0.149   0.956   6.158 -1.2248  0.2376  0.8516
  284MOL   H13940325   0.240   1.028   6.030  1.3754 -0.5780  1.3549
  284MOL   H14040326   0.378   1.025   6.249  2.5843  2.9180  1.1574
  284MOL   H14140327   0.268   1.151   6.306  0.8412  0.3059  0.2817
  284MOL   H14240328   0.354   1.254   6.091  0.7239 -0.2857 -0.6654
  285MOL     C140329   2.775   7.123   6.071 -0.6245  0.4548  0.3999
  285MOL     C240330   2.752   7.184   5.933 -0.1196  0.2436 -0.2675
  285MOL     O340331   2.791   7.322   5.940  0.0712  0.3882  0.5750
  285MOL     H440332   2.863   7.060   6.079 -0.2408  0.9365  0.0290
  285MOL     H540333   2.699   7.046   6.084  0.5835 -0.3955  2.9066
  285MOL     H640334   2.645   7.173   5.918 -0.2240 -1.6244  1.4959
  285MOL     H740335   2.807   7.123   5.861 -1.2447 -0.6629 -0.3719
  285MOL     H840336   2.750   7.174   6.164 -2.0605 -0.4198  0.4999
  285MOL     C940337   2.791   7.383   5.812 -0.2383 -0.0541  0.0519
  285MOL    C1040338   2.661   7.462   5.799  0.1230  0.4230 -0.4030
  285MOL    O1140339   2.670   7.591   5.846 -0.0835  0.3220  0.0074
  285MOL    H1240340   2.874   7.453   5.802 -0.3246 -0.0028 -0.2892
  285MOL    H1340341   2.806   7.310   5.732  1.5632 -0.3400  0.6287
  285MOL    H1440342   2.573   7.407   5.833  0.8996 -1.2122 -0.9740
  285MOL    H1540343   2.642   7.470   5.692 -0.1074 -1.0706 -0.4816
  285MOL    C1640344   2.693   7.607   5.981  0.5135  0.8854 -0.0854
  285MOL    C1740345   2.663   7.750   6.023  0.1008  0.4417  0.3448
  285MOL    O1840346   2.539   0.032   5.975 -0.1907 -0.4010  0.0283
  285MOL    H1940347   2.629   7.536   6.035  1.1940  0.8301  0.6480
  285MOL    H2040348   2.793   7.579   6.012  0.6292  1.0515 -0.3127
  285MOL    H2140349   2.744   0.042   5.985  0.0605  1.6423  2.1826
  285MOL    H2240350   2.665   7.752   6.132 -2.3911  0.6674  0.4156
  285MOL    C2340351   2.529   0.174   6.001  0.7412  0.1502 -0.2365
  285MOL    C2440352   2.476   0.193   6.148  0.4771 -0.0934  0.0612
  285MOL    O2540353   2.572   0.168   6.251  0.1975 -0.3279 -0.3779
  285MOL    H2640354   2.616   0.236   5.979 -1.4431  3.2910 -0.3785
  285MOL    H2740355   2.448   0.223   5.946  0.9840 -0.8734 -1.5309
  285MOL    H2840356   2.392   0.124   6.156 -0.8389  1.0552 -2.8635
  285MOL    H2940357   2.439   0.296   6.148  0.4029 -0.1210  0.5262
  285MOL    C3040358   2.512   0.186   6.383  0.5546 -0.2119  0.6359
  285MOL    C3140359   2.591   0.084   6.470  0.3683  0.1900  0.2567
  285MOL    O3240360   2.714   0.123   6.513 -0.2682 -0.8128  0.0528
  285MOL    H3340361   2.503   0.292   6.405 -0.7515  0.2244 -1.7671
  285MOL    H3440362   2.411   0.143   6.390  1.1831 -1.9774 -0.7024
  285MOL    H3540363   2.593   7.759   6.420  0.9151  0.6034 -0.5163
  285MOL    H3640364   2.534   0.058   6.559 -1.3134  1.6698 -0.3528
  285MOL    C3740365   2.811   0.143   6.409  0.2067 -0.4405 -0.3206
  285MOL    C3840366   2.952   0.153   6.474 -0.3445  0.2582 -0.0940
  285MOL    O3940367   2.969   0.281   6.539 -0.2873 -0.3629  0.1956
  285MOL    H4040368   2.800   0.057   6.344 -0.7096 -0.5399 -0.0271
  285MOL    H4140369   2.794   0.233   6.349  1.8928 -1.3246 -2.1987
  285MOL    H4240370   3.023   0.124   6.397 -0.8759  1.2155 -0.9617
  285MOL    H4340371   2.959   0.082   6.556 -0.3530  0.4467  0.0718
  285MOL    C4440372   3.101   0.303   6.593  0.1774 -0.5908 -0.4874
  285MOL    C4540373   3.121   0.437   6.653  1.1087  0.0945  0.2517
  285MOL    O4640374   3.098   0.527   6.541  0.5282 -0.1199 -0.1794
  285MOL    H4740375   3.126   0.221   6.660  0.6091 -0.2879 -0.2736
  285MOL    H4840376   3.174   0.305   6.511  1.3320 -0.8167  0.5138
  285MOL    H4940377   3.220   0.446   6.697  1.7306  0.2194 -1.1355
  285MOL    H5040378   3.061   0.451   6.743  1.4615  2.0595  0.2043
  285MOL    C5140379   3.100   0.655   6.578  0.2034 -0.3231  0.6665
  285MOL    C5240380   3.014   0.743   6.479  0.2523  0.3919 -0.5714
  285MOL    O5340381   3.094   0.770   6.367  0.1272  0.3871 -0.3256
  285MOL    H5440382   3.069   0.679   6.680 -1.3905  1.2884 -0.1772
  285MOL    H5540383   3.201   0.695   6.567 -1.0776  2.6114 -1.2147
  285MOL    H5640384   2.984   0.830   6.537 -2.6043 -0.9516  0.0527
  285MOL    H5740385   2.924   0.691   6.449  0.2982  1.4599 -2.6684
  285MOL    C5840386   3.073   0.899   6.327  0.0921 -0.4800 -0.3256
  285MOL    C5940387   3.081   0.906   6.173  0.0704  0.3193 -0.6182
  285MOL    O6040388   3.218   0.916   6.128 -0.5391  0.2199  0.1346
  285MOL    H6140389   2.968   0.926   6.345 -0.5191 -2.8652 -0.2098
  285MOL    H6240390   3.140   0.970   6.376  0.2438 -0.0676 -1.1332
  285MOL    H6340391   3.024   0.993   6.142 -0.8021 -0.1870 -0.4436
  285MOL    H6440392   3.032   0.820   6.126  1.5004 -0.8802  0.0291
  285MOL    C6540393   3.299   0.798   6.136  0.2116  0.2738 -0.4118
  285MOL    C6640394   3.442   0.836   6.094  0.5939  0.1564  0.3138
  285MOL    O6740395   3.495   0.923   6.199 -0.2580  0.0017 -0.2392
  285MOL    H6840396   3.291   0.745   6.231 -0.2315  0.9559 -0.0657
  285MOL    H6940397   3.259   0.724   6.067  0.8233 -0.0438 -0.4369
  285MOL    H7040398   3.446   0.877   5.994 -0.6799 -1.2618 -0.3527
  285MOL    H7140399   3.501   0.744   6.099 -1.0561 -0.8546  2.2559
  285MOL    C7240400   3.636   0.935   6.181 -0.3721 -0.1329 -0.0000
  285MOL    C7340401   3.675   1.038   6.279  0.1541 -0.5256 -0.0054
  285MOL    O7440402   3.804   1.086   6.253 -0.3454 -0.5454  0.3216
  285MOL    H7540403   3.683   0.839   6.204  0.8548 -0.1615 -2.4088
  285MOL    H7640404   3.662   0.961   6.078 -2.9880 -2.1564 -1.2315
  285MOL    H7740405   3.659   0.996   6.378 -0.7187 -1.2424 -0.4467
  285MOL    H7840406   3.610   1.125   6.284 -1.4805 -1.6087 -1.7513
  285MOL    C7940407   3.858   1.154   6.366  0.3803 -0.0319 -0.4636
  285MOL    C8040408   3.819   1.300   6.370 -0.0552 -0.4203  0.7039
  285MOL    O8140409   3.690   1.314   6.429 -0.1415 -0.6462  0.1752
  285MOL    H8240410   3.823   1.091   6.448 -1.5390  0.6911 -0.6999
  285MOL    H8340411   3.967   1.153   6.363  0.4406  1.2076  0.6691
  285MOL    H8440412   3.823   1.351   6.274  2.3812  0.6173  1.3122
  285MOL    H8540413   3.895   1.352   6.428 -0.3297  0.6828  0.0838
  285MOL    C8640414   3.641   1.448   6.412  0.1841  0.2064 -0.4998
  285MOL    C8740415   3.529   1.464   6.512  0.0866 -0.2369 -0.7004
  285MOL    O8840416   3.595   1.478   6.636  0.3202  0.0596  0.7938
  285MOL    H8940417   3.721   1.519   6.433 -0.0466  0.6848 -1.2099
  285MOL    H9040418   3.589   1.464   6.317  3.0025  3.2296 -1.6340
  285MOL    H9140419   3.455   1.385   6.512  0.1875 -0.3340 -0.1055
  285MOL    H9240420   3.471   1.548   6.474  0.3835  0.7364  0.9277
  285MOL    C9340421   3.500   1.491   6.744 -0.3796  0.4487  0.4190
  285MOL    C9440422   3.435   1.631   6.750 -0.5263  0.2093  0.7280
  285MOL    O9540423   3.547   1.712   6.794  0.1069  0.0477  0.3907
  285MOL    H9640424   3.427   1.409   6.742  0.3908 -0.3334  3.0203
  285MOL    H9740425   3.540   1.458   6.840 -1.2756 -2.4443 -0.1422
  285MOL    H9840426   3.348   1.636   6.815  0.5037 -1.7690  2.2951
  285MOL    H9940427   3.401   1.663   6.651 -3.2954 -1.0402  1.2405
  285MOL   C10040428   3.533   1.845   6.776 -0.4079 -0.0390 -0.3920
  285MOL   C10140429   3.647   1.902   6.692  0.1686 -0.5644 -1.0010
  285MOL   O10240430   3.624   2.036   6.668  0.0966  0.0339  0.3014
  285MOL   H10340431   3.434   1.867   6.736 -0.7837 -1.1233 -0.0795
  285MOL   H10440432   3.532   1.901   6.870  1.1693 -0.4613 -0.1189
  285MOL   H10540433   3.665   1.839   6.605  2.0144 -0.7874 -0.4917
  285MOL   H10640434   3.741   1.902   6.748 -0.7970 -0.3535  0.6511
  285MOL   C10740435   3.671   2.074   6.539  0.9296 -0.4918  0.3589
  285MOL   C10840436   3.828   2.079   6.532 -0.8519 -0.6132 -0.4482
  285MOL   O10940437   3.877   1.947   6.543 -0.4276 -0.2209 -0.5388
  285MOL   H11040438   3.627   2.007   6.464  0.2903 -1.4905  1.5934
  285MOL   H11140439   3.635   2.176   6.525  1.3487 -0.2836  0.7908
  285MOL   H11240440   3.867   2.143   6.611 -0.7967 -1.1951  0.0014
  285MOL   H11340441   3.867   2.111   6.435 -0.1435  0.3480  0.1427
  285MOL   C11440442   4.016   1.948   6.580 -0.9386  0.4491 -0.7162
  285MOL   C11540443   4.064   1.795   6.581  0.3102  0.2412 -0.0479
  285MOL   O11640444   3.995   1.732   6.689  0.5091  0.2854 -0.2449
  285MOL   H11740445   4.071   1.999   6.501  0.2017  0.3867  0.0200
  285MOL   H11840446   4.038   2.009   6.667  0.4231 -0.9223 -0.0662
  285MOL   H11940447   4.167   1.781   6.615  0.2518 -2.2538 -0.7699
  285MOL   H12040448   4.052   1.746   6.484  1.3735 -1.2549  0.5621
  285MOL   C12140449   3.966   1.599   6.650 -0.6103 -0.3504  0.1364
  285MOL   C12240450   3.881   1.524   6.749 -0.2946 -0.5138  0.1909
  285MOL   O12340451   3.959   1.480   6.865 -0.8383 -0.1209  0.3107
  285MOL   H12440452   3.909   1.607   6.558 -2.8594 -1.4821  1.3867
  285MOL   H12540453   4.060   1.547   6.630 -0.3255  0.3562 -0.3689
  285MOL   H12640454   3.835   1.432   6.712  0.4406 -0.9348  0.3118
  285MOL   H12740455   3.799   1.586   6.785  1.2885 -0.1031  3.2227
  285MOL   C12840456   3.875   1.401   6.949  0.7049  0.4889  0.4744
  285MOL   C12940457   3.952   1.362   7.070  1.3723  0.3566 -0.4452
  285MOL   O13040458   4.062   1.279   7.031 -0.8248  0.0212 -0.3675
  285MOL   H13140459   3.786   1.462   6.966 -0.0328 -0.5672  0.4432
  285MOL   H13240460   3.837   1.312   6.900  0.3258  1.9401 -1.9573
  285MOL   H13340461   3.901   1.301   7.145  1.2602  1.7247  0.6148
  285MOL   H13440462   3.990   1.450   7.121 -0.8573  1.1179 -0.0271
  285MOL   C13540463   4.149   1.239   7.129  0.0666 -0.0441  0.2676
  285MOL   C13640464   4.200   1.091   7.111  0.1209 -0.0881 -0.1382
  285MOL   O13740465   4.272   1.083   6.993 -0.1402  0.3101 -0.2697
  285MOL   H13840466   4.236   1.304   7.130  0.6847 -0.8280  3.5258
  285MOL   H13940467   4.105   1.248   7.228 -2.0445  1.8199 -0.7941
  285MOL   H14040468   4.119   1.018   7.117  0.2439 -0.1303  1.2453
  285MOL   H14140469   4.266   1.063   7.193 -0.1729 -0.4234 -0.0153
  285MOL   H14240470   4.241   1.147   6.931 -0.9991 -0.7277 -0.9289
  286MOL     C140471   0.319   5.924   2.408  0.0352  0.0399 -0.2978
  286MOL     C240472   0.469   5.961   2.363 -0.4818 -0.2782 -0.2068
  286MOL     O340473   0.518   6.035   2.468  0.5408  0.5221  0.0237
  286MOL     H440474   0.269   6.021   2.416 -1.7045 -0.7484 -1.4938
  286MOL     H540475   0.317   5.866   2.501  0.7395  0.4313 -0.0321
  286MOL     H640476   0.465   6.021   2.272 -1.3288  0.1486  0.1036
  286MOL     H740477   0.514   5.865   2.339  1.3730 -0.1845  2.6174
  286MOL     H840478   0.263   5.867   2.334  3.3817 -0.4815 -2.5463
  286MOL     C940479   0.653   6.083   2.462 -0.4549 -0.2073  0.5670
  286MOL    C1040480   0.637   6.227   2.409  0.3424  0.1111 -0.2879
  286MOL    O1140481   0.618   6.322   2.515 -0.0778 -0.3907  0.2427
  286MOL    H1240482   0.697   6.081   2.561  0.2879  1.2369  0.2822
  286MOL    H1340483   0.708   6.031   2.383  0.5426  2.6995 -0.7235
  286MOL    H1440484   0.549   6.228   2.345 -0.3726 -2.1855  0.5743
  286MOL    H1540485   0.726   6.250   2.351 -0.3729 -1.5201 -2.0983
  286MOL    C1640486   0.616   6.459   2.474  0.0553 -0.5443  0.5512
  286MOL    C1740487   0.554   6.523   2.590  0.3489  0.1588 -0.3456
  286MOL    O1840488   0.414   6.487   2.594  0.0830 -0.0828  0.0272
  286MOL    H1940489   0.717   6.494   2.456 -0.8448  1.0678 -1.5220
  286MOL    H2040490   0.568   6.475   2.377 -0.5391 -2.0624  0.5710
  286MOL    H2140491   0.563   6.630   2.572 -0.1621  0.1641 -0.5841
  286MOL    H2240492   0.615   6.500   2.677  0.5388  1.0026 -0.2471
  286MOL    C2340493   0.362   6.464   2.727 -0.0941  0.1683  0.0643
  286MOL    C2440494   0.205   6.472   2.727  0.0560  0.0735 -0.2319
  286MOL    O2540495   0.169   6.337   2.704  0.0691 -0.7742  0.5032
  286MOL    H2640496   0.392   6.369   2.772 -0.5037  0.9665  2.0746
  286MOL    H2740497   0.397   6.541   2.796 -0.6404  0.6352 -0.1717
  286MOL    H2840498   0.166   6.535   2.647 -0.4414 -0.7516 -0.6469
  286MOL    H2940499   0.158   6.513   2.817  0.5969  0.4156 -0.1041
  286MOL    C3040500   0.024   6.319   2.724 -0.4571 -0.4294  0.2342
  286MOL    C3140501   7.761   6.177   2.685 -0.0896 -0.3953 -0.4277
  286MOL    O3240502   7.755   6.159   2.549 -0.1290  0.5096  0.7238
  286MOL    H3340503   0.001   6.339   2.828  0.9736  0.0882  0.4584
  286MOL    H3440504   7.733   6.397   2.681 -1.0720 -1.1552 -0.2031
  286MOL    H3540505   7.663   6.152   2.726  0.5824 -2.2795  0.0854
  286MOL    H3640506   0.053   6.095   2.720 -1.6936 -0.8605  1.4259
  286MOL    C3740507   7.736   6.027   2.511 -0.1089 -0.0850 -0.8903
  286MOL    C3840508   7.593   5.969   2.540 -0.4850 -0.0076 -0.2259
  286MOL    O3940509   7.489   6.051   2.501  0.7116 -0.1094  0.6941
  286MOL    H4040510   7.750   6.024   2.403  2.5385 -0.9898 -0.5579
  286MOL    H4140511   0.048   5.963   2.541 -1.3258 -0.4276  1.9537
  286MOL    H4240512   7.577   5.950   2.646 -1.3911  2.4375  0.0942
  286MOL    H4340513   7.570   5.874   2.492  0.0557  0.6712 -1.8825
  286MOL    C4440514   7.358   6.013   2.556 -0.0082  0.0325 -0.0429
  286MOL    C4540515   7.255   6.123   2.558 -0.0037 -0.2170  0.0187
  286MOL    O4640516   7.281   6.204   2.676 -0.0270 -0.3956 -0.2808
  286MOL    H4740517   7.325   5.927   2.496  1.3800  0.0699 -0.8711
  286MOL    H4840518   7.366   5.971   2.656  0.7556  1.2078  0.3960
  286MOL    H4940519   7.162   6.068   2.571 -0.5832  0.3576 -1.5511
  286MOL    H5040520   7.264   6.180   2.466 -1.1153  1.5734  0.9818
  286MOL    C5140521   7.372   6.306   2.645 -0.7726 -0.5184  0.7926
  286MOL    C5240522   7.404   6.373   2.780  0.8539 -0.5259 -0.0332
  286MOL    O5340523   7.495   6.302   2.862  0.1972 -0.1544  0.2185
  286MOL    H5440524   7.464   6.264   2.603 -1.0718 -3.5486  2.9823
  286MOL    H5540525   7.336   6.387   2.581 -2.1917 -0.6648  1.3909
  286MOL    H5640526   7.315   6.402   2.835  2.4803  0.8835  1.9483
  286MOL    H5740527   7.454   6.468   2.759  0.8813 -0.6255 -0.4118
  286MOL    C5840528   7.428   6.208   2.947  0.2549 -0.1276 -0.6930
  286MOL    C5940529   7.530   6.126   3.026 -0.0036 -0.3377  0.6349
  286MOL    O6040530   7.553   6.190   3.153 -0.2684 -0.6533 -0.0820
  286MOL    H6140531   7.352   6.248   3.013  0.1594  1.1582 -1.5619
  286MOL    H6240532   7.370   6.140   2.884 -0.5038  0.0535 -0.1929
  286MOL    H6340533   7.624   6.118   2.971  0.7629 -0.9991  2.0026
  286MOL    H6440534   7.489   6.026   3.038  0.6582 -0.4101  2.4076
  286MOL    C6540535   7.552   6.091   3.257  0.0288  0.1054 -0.0298
  286MOL    C6640536   7.583   6.153   3.393  0.2795  0.2320  0.1195
  286MOL    O6740537   7.719   6.188   3.411 -0.0028  0.4330 -0.1460
  286MOL    H6840538   7.463   6.029   3.248  0.0537  0.2214 -1.2784
  286MOL    H6940539   7.634   6.029   3.221 -0.2534 -1.4283  1.9464
  286MOL    H7040540   7.555   6.083   3.472 -0.0972  1.2027  0.8666
  286MOL    H7140541   7.524   6.242   3.416  0.1468  0.7941 -2.3341
  286MOL    C7240542   7.757   6.263   3.528  0.3448 -0.2568  0.3960
  286MOL    C7340543   0.141   6.260   3.565 -0.0555 -0.5324 -0.4053
  286MOL    O7440544   0.166   6.133   3.617  0.1401 -0.5347  0.3590
  286MOL    H7540545   7.729   6.367   3.516  0.8370 -0.0904  0.6466
  286MOL    H7640546   7.705   6.228   3.617 -1.5184  0.6340 -0.3386
  286MOL    H7740547   0.163   6.340   3.635 -2.1368 -1.8870  1.9129
  286MOL    H7840548   0.201   6.267   3.475  1.7834 -1.0128  0.7616
  286MOL    C7940549   0.287   6.140   3.680  0.5528  0.0522  0.6821
  286MOL    C8040550   0.355   6.006   3.685  0.3513  0.1598  0.0027
  286MOL    O8140551   0.296   5.927   3.787  0.2960 -0.6322  0.1760
  286MOL    H8240552   0.354   6.215   3.638  1.7439 -0.4818  1.5968
  286MOL    H8340553   0.282   6.186   3.779  2.0364  2.1922 -0.1915
  286MOL    H8440554   0.463   6.007   3.699  0.4469 -1.3082 -0.4994
  286MOL    H8540555   0.337   5.955   3.590 -2.3604 -0.8812  1.0088
  286MOL    C8640556   0.356   5.930   3.917  0.7460 -0.3885  0.4030
  286MOL    C8740557   0.284   5.846   4.020  0.0258  0.4580 -0.4188
  286MOL    O8840558   0.307   5.709   3.998 -0.0109 -0.3756 -0.1213
  286MOL    H8940559   0.462   5.907   3.926  1.2891  2.0356  0.3664
  286MOL    H9040560   0.352   6.030   3.959 -2.8227 -0.9911  1.6772
  286MOL    H9140561   0.180   5.877   4.029 -0.0908 -0.4643  1.8563
  286MOL    H9240562   0.335   5.868   4.114  0.7984 -1.0904 -0.4526
  286MOL    C9340563   0.283   5.616   4.099  0.2675  0.1005  0.0266
  286MOL    C9440564   0.139   5.625   4.161  0.0413 -0.5263  0.7785
  286MOL    O9540565   0.156   5.718   4.271 -0.5365 -0.2402  0.2392
  286MOL    H9640566   0.271   5.528   4.036 -0.1641 -0.7299  1.2502
  286MOL    H9740567   0.350   5.606   4.184  0.9753  3.2568 -0.0706
  286MOL    H9840568   0.114   5.523   4.191  1.2963 -1.0769  0.0254
  286MOL    H9940569   0.061   5.657   4.093 -0.5857  0.7322  2.0864
  286MOL   C10040570   0.050   5.711   4.366 -0.4275  0.2723  0.2289
  286MOL   C10140571   0.039   5.587   4.447  0.4728 -0.1635 -0.4975
  286MOL   O10240572   7.724   5.497   4.381  0.3141  0.6585 -0.4302
  286MOL   H10340573   0.066   5.801   4.426  1.3669 -0.1223  0.3889
  286MOL   H10440574   7.729   5.727   4.310 -0.8690 -0.1287  0.8450
  286MOL   H10540575   0.014   5.607   4.551 -0.7684  0.0412 -0.8271
  286MOL   H10640576   0.138   5.543   4.458  0.2566 -0.7056 -0.6917
  286MOL   C10740577   7.755   5.362   4.404  0.7332  0.0779 -0.1814
  286MOL   C10840578   7.623   5.282   4.395  0.2420  0.0009  0.6411
  286MOL   O10940579   7.576   5.273   4.524 -0.1671  0.0729 -0.0202
  286MOL   H11040580   0.059   5.323   4.335 -0.2525 -0.3857 -0.9979
  286MOL   H11140581   0.034   5.344   4.500  2.1426  1.9647 -0.5447
  286MOL   H11240582   7.638   5.182   4.354  0.0115 -0.5041  1.7698
  286MOL   H11340583   7.560   5.341   4.329  3.4699  1.9017 -0.8706
  286MOL   C11440584   7.477   5.178   4.544 -0.1787 -0.0313  0.2705
  286MOL   C11540585   7.419   5.192   4.686  0.6306 -0.6325  0.0046
  286MOL   O11640586   7.322   5.290   4.698  0.2903  0.0385 -0.0044
  286MOL   H11740587   7.406   5.192   4.461 -2.6454 -1.3611  2.0790
  286MOL   H11840588   7.527   5.082   4.529 -1.5762 -0.7878  0.3344
  286MOL   H11940589   7.490   5.218   4.765 -0.8745 -0.1156  1.2114
  286MOL   H12040590   7.370   5.099   4.716 -1.5831 -0.1714 -2.0681
  286MOL   C12140591   7.352   5.424   4.663  0.9092 -0.5252 -0.4830
  286MOL   C12240592   7.220   5.496   4.694  0.1715  0.4532  0.8223
  286MOL   O12340593   7.236   5.638   4.700  0.1895 -0.4377 -0.4553
  286MOL   H12440594   7.440   5.467   4.712  2.2573  0.0030 -3.2648
  286MOL   H12540595   7.382   5.423   4.558  0.8970  1.5832 -0.5196
  286MOL   H12640596   7.181   5.464   4.790 -1.5766  3.0121  1.0165
  286MOL   H12740597   7.143   5.483   4.618 -0.0801 -0.1290  1.1734
  286MOL   C12840598   7.114   5.707   4.716  0.0762 -1.0300  0.1087
  286MOL   C12940599   7.062   5.754   4.577 -0.6248 -0.7153  0.5781
  286MOL   O13040600   7.012   5.644   4.504 -0.1259  0.5788  0.2515
  286MOL   H13140601   7.034   5.648   4.761 -0.0701 -1.2593 -0.4514
  286MOL   H13240602   7.142   5.787   4.784  2.5728 -0.9047 -1.0162
  286MOL   H13340603   7.144   5.809   4.530 -0.2150  0.2490  2.3986
  286MOL   H13440604   6.987   5.833   4.586 -0.8613 -0.6922 -1.3256
  286MOL   C13540605   6.929   5.683   4.397  0.0825 -0.6672  0.1247
  286MOL   C13640606   6.882   5.561   4.309 -0.6047 -1.0001 -0.3021
  286MOL   O13740607   6.980   5.538   4.221  0.4667  0.0637 -0.2317
  286MOL   H13840608   6.846   5.750   4.420 -0.9356 -1.6691 -0.6014
  286MOL   H13940609   7.002   5.741   4.340 -0.2235  2.4826  2.7809
  286MOL   H14040610   6.788   5.594   4.265 -1.0685  1.2327  2.2132
  286MOL   H14140611   6.863   5.470   4.367 -2.6694 -1.7449 -2.0759
  286MOL   H14240612   7.059   5.515   4.268  0.5632  2.0236  0.6127
  287MOL     C140613   1.280   3.649   3.377  0.4274 -0.0394  0.2048
  287MOL     C240614   1.280   3.493   3.378  0.0139 -0.1530  0.1100
  287MOL     O340615   1.305   3.442   3.506 -0.2331  0.4366 -0.0730
  287MOL     H440616   1.208   3.688   3.450 -0.4848 -0.9045 -0.2284
  287MOL     H540617   1.260   3.689   3.278 -2.2977  0.7563  1.0468
  287MOL     H640618   1.343   3.442   3.306  0.4119 -0.9006  0.9757
  287MOL     H740619   1.180   3.458   3.352  1.1177 -2.7881 -0.7509
  287MOL     H840620   1.381   3.681   3.402  0.7839 -0.9736 -0.0159
  287MOL     C940621   1.299   3.306   3.525 -0.3051  1.2522  0.0849
  287MOL    C1040622   1.364   3.270   3.661 -0.3859  0.0575 -0.0012
  287MOL    O1140623   1.508   3.283   3.649 -0.0916  0.2919  0.3716
  287MOL    H1240624   1.195   3.272   3.522  0.0452  0.1863 -0.1208
  287MOL    H1340625   1.350   3.262   3.440 -1.3724  1.1689 -0.5192
  287MOL    H1440626   1.342   3.167   3.690  0.2756  0.0260  0.3953
  287MOL    H1540627   1.322   3.330   3.742 -0.0433  0.6473 -0.2609
  287MOL    C1640628   1.582   3.217   3.747  0.9590 -0.2710  0.2402
  287MOL    C1740629   1.728   3.257   3.740 -0.7454  0.1234 -0.0375
  287MOL    O1840630   1.748   3.370   3.817  0.0682  0.1817 -0.0964
  287MOL    H1940631   1.546   3.235   3.848  1.3108  0.3086  0.2659
  287MOL    H2040632   1.566   3.111   3.724 -0.7211  0.1957 -0.8604
  287MOL    H2140633   1.766   3.259   3.638 -0.0469  1.4124  0.2423
  287MOL    H2240634   1.781   3.178   3.793 -0.2877 -0.5216 -1.4209
  287MOL    C2340635   1.892   3.392   3.823 -1.1076 -0.4498  0.6437
  287MOL    C2440636   1.924   3.535   3.875 -0.3280  0.0470 -1.0940
  287MOL    O2540637   1.892   3.527   4.015  0.5437 -0.1081  0.1111
  287MOL    H2640638   1.955   3.318   3.873  1.6664  0.9829 -0.5873
  287MOL    H2740639   1.924   3.391   3.718 -1.7937  0.9961  0.4128
  287MOL    H2840640   1.875   3.615   3.820 -0.0894  1.4268  0.6536
  287MOL    H2940641   2.032   3.546   3.862 -0.1402  0.6575  0.8249
  287MOL    C3040642   1.862   3.653   4.075 -0.5542  0.0580  0.1849
  287MOL    C3140643   1.826   3.632   4.221  0.3301  0.1021 -0.1662
  287MOL    O3240644   1.705   3.554   4.214 -0.4528  0.7446  0.2147
  287MOL    H3340645   1.940   3.727   4.055 -0.7351 -0.0146 -0.8100
  287MOL    H3440646   1.771   3.686   4.025 -1.6764 -2.4411  0.4629
  287MOL    H3540647   1.805   3.730   4.264 -2.2516 -0.2759 -0.4779
  287MOL    H3640648   1.897   3.584   4.287 -0.3886 -0.7940 -0.0430
  287MOL    C3740649   1.660   3.493   4.335  0.6876  0.4503  0.2747
  287MOL    C3840650   1.533   3.409   4.317  0.4501 -0.2593  0.7419
  287MOL    O3940651   1.560   3.276   4.270  0.1096 -0.3528  0.0705
  287MOL    H4040652   1.741   3.430   4.373  1.9269  0.6884 -1.9005
  287MOL    H4140653   1.634   3.569   4.409 -2.6486 -0.0429 -0.3183
  287MOL    H4240654   1.452   3.456   4.260 -0.2705 -1.0486  1.0992
  287MOL    H4340655   1.486   3.418   4.415 -1.3168 -1.9926  0.1060
  287MOL    C4440656   1.608   3.261   4.138 -0.4832  0.2870  0.2599
  287MOL    C4540657   1.632   3.113   4.109  0.1766 -0.3947 -0.2210
  287MOL    O4640658   1.516   3.045   4.063  0.2335 -0.1328  0.6743
  287MOL    H4740659   1.535   3.318   4.080  0.7493  2.2986  0.6509
  287MOL    H4840660   1.701   3.315   4.123  0.5159 -1.3943  0.2863
  287MOL    H4940661   1.664   3.068   4.204 -1.4538 -0.5341  0.2709
  287MOL    H5040662   1.707   3.099   4.031  1.2797  1.3011  0.5023
  287MOL    C5140663   1.529   2.911   4.041  0.2573 -0.0980 -0.0454
  287MOL    C5240664   1.567   2.882   3.890  0.1165 -0.6826  0.3331
  287MOL    O5340665   1.694   2.922   3.860 -0.7456 -0.2955 -0.3305
  287MOL    H5440666   1.596   2.856   4.106  0.2232  0.5082  0.5088
  287MOL    H5540667   1.438   2.860   4.073  0.5727 -1.2750 -0.9708
  287MOL    H5640668   1.485   2.925   3.833 -0.3685  0.8113  2.1020
  287MOL    H5740669   1.564   2.775   3.869  1.3664 -0.7410  0.4035
  287MOL    C5840670   1.750   2.876   3.735 -0.4020  0.5696 -0.6517
  287MOL    C5940671   1.866   2.766   3.756  0.0880 -0.0045  0.2394
  287MOL    O6040672   1.820   2.636   3.804  0.4726  0.0710 -0.8040
  287MOL    H6140673   1.682   2.832   3.661  0.3949 -1.1801 -0.3495
  287MOL    H6240674   1.802   2.958   3.687 -0.1912  0.3462 -0.8050
  287MOL    H6340675   1.949   2.804   3.816  1.7773 -0.9342 -1.4448
  287MOL    H6440676   1.907   2.740   3.658 -2.7537  0.1679 -1.0169
  287MOL    C6540677   1.802   2.618   3.946  0.5749 -0.4955 -0.3149
  287MOL    C6640678   1.709   2.504   3.977 -0.2333  0.1922 -0.2006
  287MOL    O6740679   1.572   2.538   3.954  0.1516  0.1717  0.3163
  287MOL    H6840680   1.901   2.594   3.984  1.0248  1.0663 -0.4966
  287MOL    H6940681   1.770   2.710   3.994  2.8707 -0.1802  0.6535
  287MOL    H7040682   1.722   2.479   4.082 -3.7556 -0.0940  0.2442
  287MOL    H7140683   1.734   2.418   3.914  1.8559  0.6973 -0.0778
  287MOL    C7240684   1.491   2.426   3.992 -0.2738 -0.1189  0.3001
  287MOL    C7340685   1.347   2.472   4.003 -1.3048  0.5214 -0.4614
  287MOL    O7440686   1.280   2.476   3.884 -0.8356  0.7590  0.1675
  287MOL    H7540687   1.493   2.356   3.908 -1.3779  1.9332 -1.4955
  287MOL    H7640688   1.517   2.381   4.088 -0.4551  1.7135  1.2152
  287MOL    H7740689   1.340   2.568   4.054  1.6748  0.0867  0.9106
  287MOL    H7840690   1.294   2.395   4.059 -0.6708 -0.7464 -1.5774
  287MOL    C7940691   1.342   2.540   3.772  0.0279  0.0516  0.1452
  287MOL    C8040692   1.234   2.590   3.675  0.1078  0.1319 -0.0076
  287MOL    O8140693   1.213   2.496   3.562  0.0598 -0.1661 -0.2229
  287MOL    H8240694   1.417   2.615   3.797 -1.3380  1.6632 -0.5553
  287MOL    H8340695   1.405   2.466   3.721 -0.6433  0.2861 -1.0484
  287MOL    H8440696   1.239   2.692   3.637 -1.4170 -0.2360 -1.2094
  287MOL    H8540697   1.144   2.592   3.735  0.7976 -2.8905  1.1770
  287MOL    C8640698   1.314   2.509   3.454 -0.0784 -0.6714  0.1358
  287MOL    C8740699   1.249   2.464   3.319  0.1037 -0.1493 -0.6674
  287MOL    O8840700   1.276   2.325   3.290  0.7743  0.5263 -0.3210
  287MOL    H8940701   1.345   2.612   3.441 -0.6433 -0.3379  1.3491
  287MOL    H9040702   1.404   2.450   3.472 -0.8525 -1.5158  1.3479
  287MOL    H9140703   1.290   2.515   3.233 -2.3814  0.6565 -1.4034
  287MOL    H9240704   1.142   2.486   3.318  0.1647  0.1596 -0.4580
  287MOL    C9340705   1.208   2.225   3.372  0.3338  0.0745  0.6975
  287MOL    C9440706   1.251   2.079   3.343 -0.5053  0.3384  0.4751
  287MOL    O9540707   1.168   2.009   3.247  0.0839 -0.0188  0.3322
  287MOL    H9640708   1.230   2.246   3.477  2.3380 -0.4359  0.4019
  287MOL    H9740709   1.100   2.228   3.355  0.8841 -0.9288 -3.6329
  287MOL    H9840710   1.270   2.017   3.431  0.5390 -1.4105 -0.9341
  287MOL    H9940711   1.345   2.080   3.287 -1.0228 -0.5820 -0.4352
  287MOL   C10040712   1.166   2.073   3.122  0.5718  0.6404  0.2416
  287MOL   C10140713   1.136   1.957   3.018 -0.0637 -1.3197  0.6401
  287MOL   O10240714   1.255   1.885   2.981  0.5588 -0.4549  0.3461
  287MOL   H10340715   1.084   2.144   3.118  0.9197  1.0472  0.3377
  287MOL   H10440716   1.261   2.109   3.085  1.1961 -1.9468 -0.8194
  287MOL   H10540717   1.086   1.997   2.930  1.3236 -0.1633  0.3383
  287MOL   H10640718   1.054   1.907   3.068 -0.2262  0.3233  2.0713
  287MOL   C10740719   1.216   1.776   2.891 -0.1887  0.2416 -0.4140
  287MOL   C10840720   1.148   1.658   2.952  0.6294  0.4724  0.1632
  287MOL   O10940721   1.006   1.672   2.946 -0.2543  0.0682  0.2381
  287MOL   H11040722   1.164   1.797   2.797 -0.7428  0.6744 -0.0200
  287MOL   H11140723   1.312   1.733   2.863 -0.1300  0.9973 -1.4267
  287MOL   H11240724   1.184   1.651   3.054  2.3716  0.8940 -0.4085
  287MOL   H11340725   1.175   1.561   2.909  0.2470  1.0264 -1.3812
  287MOL   C11440726   0.925   1.568   2.997 -0.2745 -0.2448 -0.0931
  287MOL   C11540727   0.863   1.612   3.131  0.1327  0.1897 -0.1126
  287MOL   O11640728   0.975   1.657   3.208 -0.2332 -0.2512  0.3733
  287MOL   H11740729   0.852   1.548   2.918 -1.7449  1.2410  0.8393
  287MOL   H11840730   0.979   1.474   3.001 -0.4128 -0.3687 -1.0391
  287MOL   H11940731   0.820   1.520   3.172  2.1963  0.3741  2.5613
  287MOL   H12040732   0.789   1.690   3.112  0.6509 -0.0138 -3.2075
  287MOL   C12140733   0.929   1.718   3.324 -0.0042 -0.4631 -0.3474
  287MOL   C12240734   1.039   1.734   3.432 -0.4086  0.3724  0.0974
  287MOL   O12340735   1.035   1.854   3.499  0.3363 -0.5209  0.3049
  287MOL   H12440736   0.899   1.821   3.309  1.4142  0.0421  0.2329
  287MOL   H12540737   0.844   1.666   3.369  0.2463 -2.8095 -2.4937
  287MOL   H12640738   1.138   1.733   3.387 -0.6691 -1.4706 -0.4622
  287MOL   H12740739   1.047   1.647   3.497  0.6035  1.3456  1.3117
  287MOL   C12840740   0.922   1.864   3.581  0.0161 -0.1282 -0.0733
  287MOL   C12940741   0.916   1.783   3.708  0.1952 -0.7583  0.4512
  287MOL   O13040742   0.959   1.861   3.821  0.0242 -0.1830 -0.0379
  287MOL   H13140743   0.913   1.969   3.611 -0.2695 -0.0282 -0.4893
  287MOL   H13240744   0.825   1.853   3.531  0.1205 -0.2087 -0.2587
  287MOL   H13340745   0.975   1.691   3.699 -1.7879 -2.0166 -0.0589
  287MOL   H13440746   0.815   1.744   3.717  0.3762 -1.7789 -1.5665
  287MOL   C13540747   0.949   1.785   3.942  0.0115 -0.3576  0.6783
  287MOL   C13640748   0.993   1.882   4.054  0.1860 -0.1501  0.1191
  287MOL   O13740749   1.128   1.918   4.034 -0.0531 -0.2908 -0.4410
  287MOL   H13840750   0.844   1.767   3.966 -0.2057 -2.4305 -1.6805
  287MOL   H13940751   1.017   1.700   3.941  1.0819  0.4820  1.0559
  287MOL   H14040752   0.993   1.827   4.149  0.0495  0.1821  0.3117
  287MOL   H14140753   0.940   1.978   4.056 -0.3309 -0.4399  1.2410
  287MOL   H14240754   1.123   2.000   3.987 -2.5002 -0.3007 -0.2857
  288MOL     C140755   7.618   1.627   6.284  0.0864  0.7293  0.3509
  288MOL     C240756   7.701   1.498   6.266 -0.6063  0.8635  0.1820
  288MOL     O340757   0.070   1.545   6.279  0.1864 -0.0243  0.3727
  288MOL     H440758   7.514   1.601   6.269 -0.2694  1.7916  0.8837
  288MOL     H540759   7.657   1.705   6.219 -0.3561  2.2233  1.8356
  288MOL     H640760   7.681   1.453   6.169 -1.4724  2.9473 -0.6348
  288MOL     H740761   7.675   1.425   6.343 -0.8531  0.0378 -0.6749
  288MOL     H840762   7.644   1.661   6.385 -0.1535  0.1463  0.6093
  288MOL     C940763   0.168   1.444   6.250  0.1227  0.1035 -0.1644
  288MOL    C1040764   0.301   1.508   6.229  0.5851 -0.2961 -0.2221
  288MOL    O1140765   0.355   1.548   6.352  0.7160  0.3242 -0.0185
  288MOL    H1240766   0.165   1.366   6.326  0.0908 -0.1575 -0.4314
  288MOL    H1340767   0.144   1.402   6.152  0.2652  0.0682 -0.1856
  288MOL    H1440768   0.283   1.603   6.179 -0.5179  0.9936  2.5281
  288MOL    H1540769   0.384   1.458   6.179 -0.2850 -1.7973 -0.1853
  288MOL    C1640770   0.425   1.438   6.419 -0.6722  0.1069 -0.2323
  288MOL    C1740771   0.497   1.501   6.538 -0.2601 -0.1741  0.0194
  288MOL    O1840772   0.636   1.527   6.509  0.7907 -0.2045 -0.7052
  288MOL    H1940773   0.349   1.371   6.458 -0.2249  0.6946  1.6751
  288MOL    H2040774   0.495   1.389   6.351  0.8867  0.7555  0.8834
  288MOL    H2140775   0.492   1.420   6.611 -1.7485  1.5776  1.9049
  288MOL    H2240776   0.449   1.596   6.560  1.2105  0.6044 -0.0713
  288MOL    C2340777   0.686   1.618   6.607 -0.6307  0.1509  0.4073
  288MOL    C2440778   0.837   1.614   6.616 -0.1135  0.4174 -0.0944
  288MOL    O2540779   0.890   1.726   6.691 -0.7295  0.1491  0.3448
  288MOL    H2640780   0.644   1.714   6.579 -1.0445  0.3100  1.5153
  288MOL    H2740781   0.642   1.594   6.704 -0.8820  0.0455  0.2698
  288MOL    H2840782   0.895   1.606   6.525 -1.0082  0.9360 -0.7133
  288MOL    H2940783   0.875   1.534   6.680  2.5040 -1.2036 -3.5050
  288MOL    C3040784   0.917   1.836   6.600 -0.1317 -0.1645  0.1730
  288MOL    C3140785   0.950   1.951   6.688 -0.2388 -0.0439  0.2637
  288MOL    O3240786   1.089   1.947   6.726  0.3527  0.1310 -0.0092
  288MOL    H3340787   0.993   1.806   6.528  0.2465 -2.5351  1.5259
  288MOL    H3440788   0.831   1.864   6.539 -1.0147  1.1331  1.9764
  288MOL    H3540789   0.881   1.970   6.770 -0.2617  4.0708 -0.5702
  288MOL    H3640790   0.947   2.046   6.634 -1.6210  0.1901  0.7522
  288MOL    C3740791   1.117   2.023   6.843 -0.1125  0.0954  0.6452
  288MOL    C3840792   1.046   1.966   6.968  0.2436  0.4094  0.5180
  288MOL    O3940793   1.119   1.977   7.086 -0.0777 -0.0890 -0.5341
  288MOL    H4040794   1.225   2.019   6.858  0.3620  1.7150 -2.1165
  288MOL    H4140795   1.088   2.127   6.828  0.9575  0.3944  0.6241
  288MOL    H4240796   1.027   1.860   6.952  0.5127  0.4683 -0.1962
  288MOL    H4340797   0.948   2.013   6.976  0.2766  0.6675 -0.5867
  288MOL    C4440798   1.082   1.895   7.188 -0.4065 -0.0011 -0.3578
  288MOL    C4540799   1.200   1.893   7.292  0.5002  0.1949  0.1596
  288MOL    O4640800   1.311   1.817   7.251 -0.7996  0.0649  0.6147
  288MOL    H4740801   0.995   1.939   7.238  0.4687 -0.3123  1.4833
  288MOL    H4840802   1.053   1.795   7.158  0.0793  0.2248 -1.6042
  288MOL    H4940803   1.150   1.852   7.380 -1.7096  1.1578 -0.6052
  288MOL    H5040804   1.221   1.997   7.316  0.1840  0.0168  1.2348
  288MOL    C5140805   1.290   1.687   7.190  0.9154 -0.0280 -1.1962
  288MOL    C5240806   1.424   1.627   7.165  0.4560 -0.1389 -0.1459
  288MOL    O5340807   1.434   1.487   7.134  0.1765 -0.5773  0.0103
  288MOL    H5440808   1.230   1.635   7.265 -0.7943  1.2923 -1.6086
  288MOL    H5540809   1.222   1.696   7.105 -0.6779 -1.0285 -0.0687
  288MOL    H5640810   1.484   1.644   7.254  0.5876 -0.2002 -0.2233
  288MOL    H5740811   1.486   1.690   7.101 -0.5477  1.5415  0.4989
  288MOL    C5840812   1.515   1.465   7.015  0.2590 -1.0692  0.5024
  288MOL    C5940813   1.462   1.524   6.881 -0.4181 -0.1143 -0.6974
  288MOL    O6040814   1.351   1.452   6.831  0.1561  0.8392  0.1741
  288MOL    H6140815   1.607   1.515   7.043  0.3330 -1.3581  0.7755
  288MOL    H6240816   1.525   1.358   6.998  0.9255 -1.2918  2.2469
  288MOL    H6340817   1.547   1.529   6.813  0.4153  0.2347  0.3662
  288MOL    H6440818   1.432   1.628   6.887  0.4904  0.1931 -1.2691
  288MOL    C6540819   1.298   1.517   6.718  0.0436 -0.0529  0.2427
  288MOL    C6640820   1.183   1.434   6.666 -0.5228  0.0896 -0.0324
  288MOL    O6740821   1.226   1.315   6.601  0.9228 -0.1528 -0.2405
  288MOL    H6840822   1.261   1.616   6.745  0.6655  0.0896  0.5932
  288MOL    H6940823   1.382   1.512   6.649  0.0576  0.4192  0.2245
  288MOL    H7040824   1.139   1.507   6.599  0.5947 -0.0627 -0.9490
  288MOL    H7140825   1.109   1.409   6.742  0.9946 -3.4882  0.3696
  288MOL    C7240826   1.132   1.268   6.502 -0.1926 -0.2521 -0.1902
  288MOL    C7340827   1.125   1.343   6.364 -1.6317  0.6841 -0.3469
  288MOL    O7440828   1.047   1.465   6.379  0.1794  0.9313  0.2430
  288MOL    H7540829   1.142   1.161   6.486  0.0951 -0.2543  0.0123
  288MOL    H7640830   1.031   1.262   6.545  0.2274 -1.2000  0.6811
  288MOL    H7740831   1.083   1.273   6.292  2.5850 -1.3560 -0.9605
  288MOL    H7840832   1.218   1.371   6.315 -1.0526  1.7847  1.3349
  288MOL    C7940833   0.981   1.501   6.257 -0.5459 -0.3492 -0.9225
  288MOL    C8040834   0.842   1.433   6.245 -1.1533 -0.0586 -0.3314
  288MOL    O8140835   0.861   1.311   6.174  0.5537  0.1402 -0.1327
  288MOL    H8240836   0.964   1.609   6.264  2.5266  0.2276 -1.2839
  288MOL    H8340837   1.035   1.489   6.163  1.0550  0.9537 -0.2164
  288MOL    H8440838   0.769   1.498   6.197  0.8179  0.0119 -3.3729
  288MOL    H8540839   0.816   1.419   6.350  0.7392  0.7223  0.2549
  288MOL    C8640840   0.774   1.204   6.217 -0.5762 -0.0327  0.6015
  288MOL    C8740841   0.807   1.072   6.168 -1.0337  0.6571 -0.1513
  288MOL    O8840842   0.937   1.026   6.220  0.3579  0.5944 -0.2837
  288MOL    H8940843   0.777   1.195   6.326  0.3689  1.6217  0.7412
  288MOL    H9040844   0.675   1.237   6.186  0.1315  0.6857 -0.9548
  288MOL    H9140845   0.806   1.091   6.061 -1.0930  0.6684 -0.1488
  288MOL    H9240846   0.720   1.017   6.204 -0.7287  0.4468  0.2641
  288MOL    C9340847   0.976   0.901   6.164  0.1989  0.7912  0.3649
  288MOL    C9440848   1.055   0.817   6.261 -0.2806 -0.1891 -0.8001
  288MOL    O9540849   0.968   0.718   6.315 -0.0543 -0.3781 -0.3940
  288MOL    H9640850   0.886   0.848   6.133  1.9235 -3.4402  2.1254
  288MOL    H9740851   1.029   0.908   6.069 -0.8519  0.2788 -0.2703
  288MOL    H9840852   1.106   0.882   6.333  0.8219 -0.2705 -1.4894
  288MOL    H9940853   1.139   0.774   6.206  1.4761  1.4849  0.4621
  288MOL   C10040854   1.046   0.637   6.401  0.2411 -0.4194 -0.1873
  288MOL   C10140855   0.993   0.496   6.421  0.5955 -0.1047 -0.2091
  288MOL   O10240856   1.003   0.407   6.310  0.2685 -0.4337 -0.0551
  288MOL   H10340857   1.154   0.644   6.388  0.8345 -0.8793  3.6573
  288MOL   H10440858   1.050   0.691   6.496 -2.9797  0.5052 -0.5199
  288MOL   H10540859   0.887   0.501   6.444  0.7313 -0.0985  0.4138
  288MOL   H10640860   1.041   0.452   6.508 -0.6691 -2.3532 -0.6095
  288MOL   C10740861   1.137   0.383   6.264  0.3202  0.1013  0.0939
  288MOL   C10840862   1.233   0.328   6.374  0.7089 -0.1596  0.5171
  288MOL   O10940863   1.303   0.433   6.437  0.1496  0.2878 -0.5098
  288MOL   H11040864   1.122   0.317   6.178 -2.5632  0.8108 -0.0155
  288MOL   H11140865   1.174   0.466   6.204 -1.9154 -0.3130 -1.9569
  288MOL   H11240866   1.301   0.263   6.320  1.1382  0.9116 -0.2486
  288MOL   H11340867   1.169   0.268   6.439  0.5302 -1.6484 -0.9982
  288MOL   C11440868   1.406   0.388   6.523 -0.5095 -0.6571 -0.1492
  288MOL   C11540869   1.470   0.510   6.590  0.1956 -0.5603 -0.3973
  288MOL   O11640870   1.520   0.592   6.493 -0.5031  0.0265  0.9308
  288MOL   H11740871   1.369   0.317   6.596 -0.6093 -1.9974 -1.4710
  288MOL   H11840872   1.478   0.335   6.461 -2.0667 -2.2460 -0.6441
  288MOL   H11940873   1.543   0.488   6.668  0.2209  1.5021  0.1716
  288MOL   H12040874   1.394   0.565   6.647  0.6573 -1.2896  0.9546
  288MOL   C12140875   1.576   0.712   6.557  0.1660 -0.6864  0.3860
  288MOL   C12240876   1.635   0.803   6.448 -0.1574  0.3162 -0.8019
  288MOL   O12340877   1.782   0.807   6.451  0.1145  0.0882 -0.5885
  288MOL   H12440878   1.494   0.767   6.603 -2.3348  0.1188 -4.6336
  288MOL   H12540879   1.649   0.684   6.633 -0.3699 -2.1196  0.3778
  288MOL   H12640880   1.591   0.902   6.457 -1.1616 -0.3757  2.0685
  288MOL   H12740881   1.596   0.768   6.352  1.3531 -0.8401 -1.0319
  288MOL   C12840882   1.850   0.864   6.333  0.4841  0.3187  0.1745
  288MOL   C12940883   1.885   0.754   6.237  0.1738  0.2611  0.1194
  288MOL   O13040884   1.993   0.677   6.287  0.6084  0.0319  0.2458
  288MOL   H13140885   1.788   0.939   6.282  1.6178 -0.1342 -1.9604
  288MOL   H13240886   1.937   0.923   6.362  1.0173 -1.2270  1.7683
  288MOL   H13340887   1.911   0.802   6.143  0.5012 -1.9244 -0.9374
  288MOL   H13440888   1.799   0.689   6.223 -0.3865  0.7488  1.2270
  288MOL   C13540889   2.027   0.548   6.228 -0.1129  0.2656  0.1724
  288MOL   C13640890   2.151   0.499   6.297 -0.1909 -0.1462 -0.6922
  288MOL   O13740891   2.188   0.376   6.251  0.2868 -0.0894 -0.4806
  288MOL   H13840892   1.946   0.480   6.256  0.1347  0.9472  2.6013
  288MOL   H13940893   2.031   0.543   6.119  0.8245 -0.4805  0.2351
  288MOL   H14040894   2.134   0.504   6.405  1.4780 -2.3977 -0.2829
  288MOL   H14140895   2.238   0.564   6.286  0.4123 -0.6777  0.8664
  288MOL   H14240896   2.177   0.371   6.157 -0.4856  0.0427 -0.3964
  289MOL     C140897   6.248   4.233   0.603 -0.0263  0.2061  0.4658
  289MOL     C240898   6.163   4.157   0.701 -0.3124  0.6777 -0.1422
  289MOL     O340899   6.238   4.073   0.784 -0.0636 -0.2433  0.0401
  289MOL     H440900   6.318   4.303   0.648  1.1560 -0.9737  0.5176
  289MOL     H540901   6.186   4.297   0.540 -0.8420  0.8560  1.9089
  289MOL     H640902   6.082   4.102   0.654 -0.5216  0.5073  0.4147
  289MOL     H740903   6.123   4.235   0.766 -0.4343  1.2385 -0.8811
  289MOL     H840904   6.305   4.169   0.536 -1.4216  1.0188 -1.5462
  289MOL     C940905   6.153   4.006   0.871  0.3171  0.2791  0.4731
  289MOL    C1040906   6.231   3.893   0.940 -0.0529  0.1986 -0.0541
  289MOL    O1140907   6.307   3.946   1.051  0.4963  0.7009  0.4652
  289MOL    H1240908   6.121   4.084   0.940 -1.2691  0.0132  0.0484
  289MOL    H1340909   6.061   3.970   0.825  0.6761 -0.4582  0.3260
  289MOL    H1440910   6.290   3.835   0.869 -0.7674 -0.4139 -0.1452
  289MOL    H1540911   6.155   3.831   0.987  0.9265 -1.1957 -0.2667
  289MOL    C1640912   6.368   3.837   1.122 -0.0031 -0.4486  0.0905
  289MOL    C1740913   6.434   3.890   1.247 -0.2885  0.3447  0.0924
  289MOL    O1840914   6.559   3.950   1.216 -0.2951 -0.3243  0.5455
  289MOL    H1940915   6.297   3.758   1.149  0.3689 -0.5996  0.6434
  289MOL    H2040916   6.439   3.783   1.060 -0.4055 -0.8400 -0.0376
  289MOL    H2140917   6.448   3.810   1.320  0.9863  0.7519  0.3024
  289MOL    H2240918   6.365   3.952   1.305  1.6458  1.8581  0.8023
  289MOL    C2340919   6.632   4.015   1.317  0.1726  0.4638  0.3853
  289MOL    C2440920   6.753   4.086   1.254  0.1612 -0.3691  0.0282
  289MOL    O2540921   6.713   4.215   1.205 -0.2661 -0.1365  0.5863
  289MOL    H2640922   6.563   4.083   1.368 -1.9940 -0.7636 -0.8242
  289MOL    H2740923   6.673   3.941   1.386 -2.1062 -1.0882  0.1068
  289MOL    H2840924   6.794   4.031   1.169  1.6872  0.2780  0.3369
  289MOL    H2940925   6.829   4.092   1.332 -0.1299  3.3674  0.0746
  289MOL    C3040926   6.819   4.286   1.167 -0.1595 -0.2682  0.4747
  289MOL    C3140927   6.775   4.435   1.141 -0.1700  0.1022  0.0938
  289MOL    O3240928   6.728   4.496   1.259 -0.9145  0.3241  0.6688
  289MOL    H3340929   6.880   4.299   1.257  1.4376  2.9644 -0.9888
  289MOL    H3440930   6.880   4.247   1.086 -0.4127 -0.3222  0.3110
  289MOL    H3540931   6.705   4.438   1.058 -1.2805 -1.0423  0.9697
  289MOL    H3640932   6.860   4.497   1.112  0.7660  0.4718  3.4174
  289MOL    C3740933   6.649   4.613   1.236 -0.2644  0.1051  0.2579
  289MOL    C3840934   6.603   4.679   1.370 -0.9708 -0.2116 -0.1572
  289MOL    O3940935   6.651   4.818   1.367  0.1440  0.1602 -0.4453
  289MOL    H4040936   6.706   4.690   1.184  2.2670 -2.7299 -1.3977
  289MOL    H4140937   6.562   4.585   1.176 -0.3300 -1.3543  1.0038
  289MOL    H4240938   6.648   4.617   1.447  1.8070  0.0504 -1.5057
  289MOL    H4340939   6.494   4.681   1.373 -0.9815  2.1214 -0.7353
  289MOL    C4440940   6.610   4.896   1.478  0.6289  0.1035 -0.8263
  289MOL    C4540941   6.731   4.942   1.569  0.0641 -0.6373 -0.0817
  289MOL    O4640942   6.739   4.863   1.685 -0.6826  0.3885 -0.8482
  289MOL    H4740943   6.546   4.979   1.449 -2.8118 -2.3589 -0.7013
  289MOL    H4840944   6.543   4.835   1.539  1.6394  0.3855  0.5854
  289MOL    H4940945   6.712   5.046   1.596 -2.2679 -1.4974  1.7945
  289MOL    H5040946   6.821   4.937   1.508 -1.3691 -0.2814 -2.2784
  289MOL    C5140947   6.819   4.750   1.668 -0.1801 -1.5297  0.1051
  289MOL    C5240948   6.866   4.697   1.799 -0.1256  0.1370  0.2575
  289MOL    O5340949   6.999   4.729   1.850 -0.0163  0.2469 -0.8843
  289MOL    H5440950   6.737   4.684   1.637 -1.6398  0.0236  0.5506
  289MOL    H5540951   6.904   4.760   1.602  0.3850  1.2459  1.1671
  289MOL    H5640952   6.855   4.589   1.793  1.4784 -0.0426  0.2650
  289MOL    H5740953   6.787   4.723   1.870 -0.3662 -2.2379  0.8884
  289MOL    C5840954   7.011   4.870   1.881 -0.2441 -0.6565  0.4189
  289MOL    C5940955   7.152   4.900   1.925 -0.6740 -0.2819 -0.1627
  289MOL    O6040956   7.234   4.910   1.816  0.0384 -0.4022  0.2601
  289MOL    H6140957   6.981   4.926   1.792 -0.8819 -0.4811  0.7384
  289MOL    H6240958   6.941   4.897   1.960 -0.5541 -1.3840  0.3949
  289MOL    H6340959   7.182   4.822   1.995 -2.1832  0.9765  1.9287
  289MOL    H6440960   7.149   4.990   1.986  1.6219 -0.6109  0.4653
  289MOL    C6540961   7.372   4.918   1.854  0.2596  0.6322  0.3391
  289MOL    C6640962   7.474   4.928   1.734  0.0059  0.9769  0.2647
  289MOL    O6740963   7.499   4.789   1.691  0.8231  0.5891  0.2091
  289MOL    H6840964   7.382   5.002   1.923  1.1298  0.3829  0.5243
  289MOL    H6940965   7.400   4.827   1.908  0.8424 -0.1121 -1.1796
  289MOL    H7040966   7.564   4.983   1.761 -0.0880  1.6420 -0.7257
  289MOL    H7140967   7.434   4.994   1.657  3.8429  1.1959 -1.6441
  289MOL    C7240968   7.638   4.770   1.673 -0.0827  0.3317  0.1641
  289MOL    C7340969   7.669   4.627   1.609 -0.5960  0.1399 -0.1691
  289MOL    O7440970   7.663   4.527   1.715  0.8323  0.1850  0.0070
  289MOL    H7540971   7.662   4.833   1.587 -2.0283  0.6619 -0.1469
  289MOL    H7640972   7.693   4.800   1.762  0.8735 -1.3380  0.1568
  289MOL    H7740973   7.770   4.628   1.567 -1.2354 -2.0863 -1.8749
  289MOL    H7840974   7.592   4.619   1.533 -0.3924 -0.7283 -0.2976
  289MOL    C7940975   7.531   4.474   1.731  0.0264 -0.2648  0.1130
  289MOL    C8040976   7.529   4.358   1.830 -0.6574  0.2131 -0.3835
  289MOL    O8140977   7.596   4.246   1.773  0.2303  0.0011 -0.3439
  289MOL    H8240978   7.454   4.549   1.752  0.6969 -0.1658  2.2821
  289MOL    H8340979   7.498   4.431   1.636 -0.2077  0.4100 -0.1206
  289MOL    H8440980   7.434   4.318   1.864  1.5186 -2.9856  2.1442
  289MOL    H8540981   7.574   4.396   1.921 -0.9482  0.0208 -0.1600
  289MOL    C8640982   7.573   4.131   1.853  0.3089  0.2522 -0.1692
  289MOL    C8740983   7.649   4.008   1.780 -0.4750 -0.8419 -0.1461
  289MOL    O8840984   0.022   4.003   1.797 -0.5361 -0.0529 -0.4783
  289MOL    H8940985   7.591   4.145   1.959 -1.6790  0.9941  0.0766
  289MOL    H9040986   7.466   4.117   1.840  0.5126 -0.8949 -0.7181
  289MOL    H9140987   7.648   4.007   1.671  2.3017 -2.5622 -0.2015
  289MOL    H9240988   7.623   3.908   1.817  1.1042 -1.4749 -0.7180
  289MOL    C9340989   0.091   3.990   1.914 -0.6831  0.4531  0.5293
  289MOL    C9440990   0.240   4.008   1.892  0.3689  0.2314  0.4328
  289MOL    O9540991   0.291   3.883   1.851 -0.2493 -0.4644  0.0526
  289MOL    H9640992   0.049   4.064   1.982  2.2720  1.3164  1.4669
  289MOL    H9740993   0.051   3.897   1.955 -0.3636  0.4091  0.7335
  289MOL    H9840994   0.283   4.025   1.990  0.4113  0.4919  0.3703
  289MOL    H9940995   0.248   4.092   1.823 -1.0297  0.4753  0.5500
  289MOL   C10040996   0.415   3.887   1.781 -0.3248 -0.7395 -0.2882
  289MOL   C10140997   0.515   3.939   1.884 -0.0716  0.5098 -0.6832
  289MOL   O10240998   0.539   4.080   1.870  0.0313 -0.2828 -0.0679
  289MOL   H10340999   0.437   3.785   1.749  2.7858 -0.9579  2.2356
  289MOL   H10441000   0.406   3.951   1.694 -0.3732 -0.0764  0.2023
  289MOL   H10541001   0.607   3.884   1.865 -0.7586 -0.8493 -0.1688
  289MOL   H10641002   0.477   3.913   1.983 -0.7752 -0.6461 -1.2375
  289MOL   C10741003   0.621   4.147   1.971 -0.1328  0.1853  0.4252
  289MOL   C10841004   0.767   4.093   1.966  0.0886  0.0465 -0.1517
  289MOL   O10941005   0.833   4.146   1.854 -0.4220  0.1329  0.1365
  289MOL   H11041006   0.618   4.253   1.946  0.4612 -0.5069 -2.8298
  289MOL   H11141007   0.578   4.129   2.070 -1.4698 -2.7697 -0.6137
  289MOL   H11241008   0.770   3.984   1.976  0.7307 -0.1893 -2.7299
  289MOL   H11341009   0.816   4.136   2.054 -1.7863  0.8322  0.5220
  289MOL   C11441010   0.973   4.141   1.860  0.6137  0.4577 -0.1271
  289MOL   C11541011   1.029   4.166   1.726 -0.0943  0.4147  0.5489
  289MOL   O11641012   1.157   4.227   1.731 -0.0181  0.2618  0.4767
  289MOL   H11741013   1.003   4.220   1.929  0.4563  1.3839 -1.1040
  289MOL   H11841014   1.013   4.049   1.903  1.6278  1.7383  1.7730
  289MOL   H11941015   0.947   4.220   1.678 -1.5097 -1.2122  1.0829
  289MOL   H12041016   1.033   4.071   1.672 -1.0402  0.9212 -0.4448
  289MOL   C12141017   1.210   4.270   1.607 -1.4333  0.1492 -0.4975
  289MOL   C12241018   1.359   4.317   1.611  1.3132 -0.0835 -0.9696
  289MOL   O12341019   1.448   4.209   1.621  0.0702 -0.3345 -0.1594
  289MOL   H12441020   1.191   4.200   1.526  1.4526  0.3907 -1.4247
  289MOL   H12541021   1.150   4.359   1.586 -0.8511 -0.0644 -3.2163
  289MOL   H12641022   1.375   4.394   1.686  0.8649  0.6838 -1.6468
  289MOL   H12741023   1.398   4.373   1.526  2.3122  0.3786 -0.2182
  289MOL   C12841024   1.587   4.242   1.614 -0.9970 -0.4168  0.0972
  289MOL   C12941025   1.642   4.266   1.467 -0.4458 -0.3852  0.1013
  289MOL   O13041026   1.596   4.150   1.400 -0.5804 -0.7907  0.2879
  289MOL   H13141027   1.608   4.335   1.668 -0.2356 -1.0129  0.8465
  289MOL   H13241028   1.636   4.161   1.668  0.8189  1.6185  1.6223
  289MOL   H13341029   1.750   4.257   1.461 -0.3189  0.6402  0.6133
  289MOL   H13441030   1.612   4.364   1.430 -2.8913 -1.0525  0.2596
  289MOL   C13541031   1.613   4.158   1.259 -0.5630  0.4624 -1.4348
  289MOL   C13641032   1.527   4.052   1.187 -0.1482 -0.9147 -0.0830
  289MOL   O13741033   1.558   4.066   1.046 -0.2014  0.5687  0.8959
  289MOL   H13841034   1.585   4.257   1.221 -0.3367  1.4989  1.0005
  289MOL   H13941035   1.718   4.135   1.240 -0.6521 -2.5399  1.3016
  289MOL   H14041036   1.420   4.068   1.203 -0.2205 -0.2859 -1.1143
  289MOL   H14141037   1.551   3.951   1.221  2.7279 -0.4398 -0.6219
  289MOL   H14241038   1.567   4.159   1.033 -2.1915  0.6124 -0.5205
  290MOL     C141039   6.679   2.588   7.690  0.1395 -0.3197 -1.3182
  290MOL     C241040   6.683   2.443   7.747 -0.4430  0.5743 -0.0913
  290MOL     O341041   6.776   2.438   0.079  0.2046 -0.2485  0.3272
  290MOL     H441042   6.707   2.658   7.769 -1.1320 -1.8227  0.5218
  290MOL     H541043   6.577   2.601   7.653 -0.2250  1.5317  0.2358
  290MOL     H641044   6.716   2.374   7.669  3.2850  0.9141  1.0876
  290MOL     H741045   6.585   2.411   0.010 -0.8345  3.0254  1.1985
  290MOL     H841046   6.753   2.616   7.615  2.4934 -1.1011  0.6342
  290MOL     C941047   6.776   2.309   0.142  0.0390  0.4689  0.1054
  290MOL    C1041048   6.882   2.302   0.251 -0.3192  0.1041 -0.5234
  290MOL    O1141049   7.006   2.282   0.191  0.0411  0.2905  0.0950
  290MOL    H1241050   6.676   2.295   0.183 -0.2085  1.0485 -0.2907
  290MOL    H1341051   6.794   2.229   0.071  2.7210  0.8433  0.3187
  290MOL    H1441052   6.857   2.220   0.319  0.5818  0.2569 -0.0005
  290MOL    H1541053   6.873   2.394   0.310 -2.2642  0.3143 -1.1199
  290MOL    C1641054   7.107   2.271   0.292 -0.5332  0.0787  0.0749
  290MOL    C1741055   7.184   2.139   0.278 -0.6796 -0.2883  0.2374
  290MOL    O1841056   7.126   2.027   0.350 -0.2780  0.3070 -0.3202
  290MOL    H1941057   7.177   2.351   0.268 -1.3510  1.2706  1.5070
  290MOL    H2041058   7.078   2.298   0.394  0.0459  0.4923  0.1281
  290MOL    H2141059   7.288   2.156   0.307 -0.5012  1.8558 -1.5915
  290MOL    H2241060   7.185   2.107   0.173  1.1805  2.2447 -0.5548
  290MOL    C2341061   7.206   1.910   0.331  0.0421  0.9379  0.3441
  290MOL    C2441062   7.123   1.801   0.412  0.0327  0.3630 -0.1954
  290MOL    O2541063   7.148   1.823   0.556 -0.3067 -0.0950 -0.7404
  290MOL    H2641064   7.200   1.879   0.227 -0.1539  1.8936  0.0699
  290MOL    H2741065   7.309   1.923   0.365  0.2369 -1.7497  0.8633
  290MOL    H2841066   7.132   1.700   0.374 -2.4959 -0.2610  0.7630
  290MOL    H2941067   7.017   1.822   0.403 -0.1155 -0.6644 -0.7767
  290MOL    C3041068   7.250   1.734   0.604  0.4319  0.2605  0.2016
  290MOL    C3141069   7.274   1.761   0.758  0.5838  0.7907 -0.9709
  290MOL    O3241070   7.185   1.693   0.843  0.3824 -0.5251  0.1708
  290MOL    H3341071   7.226   1.629   0.588 -0.7266  0.3858  0.9975
  290MOL    H3441072   7.342   1.763   0.554  0.4842  1.5019  1.0126
  290MOL    H3541073   7.268   1.866   0.788  1.8342  0.1372  1.7562
  290MOL    H3641074   7.379   1.747   0.781 -0.0958 -1.2979  1.0157
  290MOL    C3741075   7.221   1.705   0.978 -0.2976 -0.2224  0.2098
  290MOL    C3841076   7.332   1.603   1.007 -0.4940 -0.0485  0.0757
  290MOL    O3941077   7.303   1.527   1.129  0.1498 -0.4810  0.2375
  290MOL    H4041078   7.250   1.804   1.014  2.5351 -0.7097 -0.6211
  290MOL    H4141079   7.140   1.677   1.045 -0.8764  0.3697 -0.2320
  290MOL    H4241080   7.430   1.649   1.016 -0.8546  0.1574  3.2232
  290MOL    H4341081   7.330   1.531   0.925 -0.4312 -2.7365  2.3499
  290MOL    C4441082   7.302   1.600   1.250  0.7462 -0.2328  0.3621
  290MOL    C4541083   7.276   1.494   1.364  0.0449 -0.6554 -0.5028
  290MOL    O4641084   7.380   1.403   1.361 -0.2633 -0.5196 -0.0815
  290MOL    H4741085   7.393   1.652   1.281  0.2170  0.2513  1.1307
  290MOL    H4841086   7.233   1.684   1.250 -2.7810 -3.0061 -2.3058
  290MOL    H4941087   7.181   1.447   1.339 -0.6041  1.3653 -1.9364
  290MOL    H5041088   7.281   1.550   1.458 -0.4020  1.3371 -1.6195
  290MOL    C5141089   7.341   1.274   1.412  0.6651 -0.4025  0.2226
  290MOL    C5241090   7.459   1.182   1.446 -0.0017 -0.5181 -0.5604
  290MOL    O5341091   7.527   1.215   1.571 -0.5179  0.5017 -0.2270
  290MOL    H5441092   7.288   1.286   1.506 -0.3558  1.2493 -0.5484
  290MOL    H5541093   7.275   1.220   1.345 -1.2317 -0.1218  1.8444
  290MOL    H5641094   7.532   1.200   1.366  2.0593 -1.3844  1.0659
  290MOL    H5741095   7.413   1.084   1.443  1.0151 -1.0072 -0.4858
  290MOL    C5841096   7.637   1.134   1.596 -0.0695  0.6633  0.8261
  290MOL    C5941097   7.688   1.166   1.732 -0.6382 -0.6285  0.3899
  290MOL    O6041098   7.589   1.151   1.836  1.1390 -0.2628 -0.0071
  290MOL    H6141099   7.603   1.031   1.604  1.0417 -0.1937 -3.8241
  290MOL    H6241100   7.710   1.150   1.516  0.1193  0.9067  1.0483
  290MOL    H6341101   7.718   1.270   1.740 -1.1781 -0.6180  2.7867
  290MOL    H6441102   7.768   1.094   1.748 -0.1218 -0.4474 -1.3281
  290MOL    C6541103   7.644   1.109   1.964  0.0674 -0.9299 -0.3695
  290MOL    C6641104   7.522   1.111   2.058 -0.1109 -0.3165  0.1282
  290MOL    O6741105   7.559   1.110   2.196 -0.5277 -0.7456 -0.6165
  290MOL    H6841106   7.681   1.007   1.956 -2.4644 -2.0444  1.3859
  290MOL    H6941107   7.718   1.182   1.998 -2.9580  2.3282 -0.4355
  290MOL    H7041108   7.443   1.041   2.031 -0.5923  0.3337 -0.1646
  290MOL    H7141109   7.477   1.210   2.046 -0.0378 -0.1958  0.8551
  290MOL    C7241110   7.452   1.109   2.290  0.2120 -0.5792 -0.6779
  290MOL    C7341111   7.497   1.085   2.441 -1.0211 -0.2024  0.0561
  290MOL    O7441112   7.541   0.949   2.464 -0.5971 -0.3029  0.1760
  290MOL    H7541113   7.411   1.210   2.283  1.8226  0.0831 -0.9165
  290MOL    H7641114   7.371   1.046   2.254  0.3825 -0.4096 -1.3783
  290MOL    H7741115   7.416   1.106   2.510  0.0551  0.5620  1.1253
  290MOL    H7841116   7.581   1.153   2.459 -1.4851  0.0311  1.3988
  290MOL    C7941117   7.579   0.920   2.597 -0.0694 -0.2820 -1.2234
  290MOL    C8041118   7.644   0.778   2.606 -1.2136 -0.6366  0.7529
  290MOL    O8141119   7.745   0.764   2.496  0.1248 -0.2013  0.2101
  290MOL    H8241120   7.652   0.992   2.635 -0.6665 -0.2000 -0.2191
  290MOL    H8341121   7.501   0.942   2.670  0.6409 -0.6525 -0.3467
  290MOL    H8441122   7.576   0.694   2.605 -0.5810 -1.1456 -0.3840
  290MOL    H8541123   7.698   0.766   2.700  3.6458  2.5325 -1.3945
  290MOL    C8641124   0.106   0.780   2.536  0.0595 -0.1707  0.1162
  290MOL    C8741125   0.208   0.778   2.427 -0.6875 -0.3057  0.3601
  290MOL    O8841126   0.227   0.902   2.361  0.0279  0.1146 -0.1243
  290MOL    H8941127   0.115   0.875   2.590 -2.3168  2.2183 -3.4533
  290MOL    H9041128   0.129   0.707   2.614  1.7852 -0.2141 -0.4061
  290MOL    H9141129   0.193   0.709   2.345 -1.3836 -1.3208  1.3226
  290MOL    H9241130   0.299   0.745   2.478  0.3729  0.1727 -1.2093
  290MOL    C9341131   0.116   0.957   2.290 -0.0910  0.3942 -0.0269
  290MOL    C9441132   0.159   1.091   2.226  0.0703 -0.3476 -0.2420
  290MOL    O9541133   0.238   1.060   2.110 -0.0356  0.5950 -0.4056
  290MOL    H9641134   0.095   0.880   2.216  2.0378 -1.7917  1.5801
  290MOL    H9741135   0.026   0.972   2.351 -0.6851 -0.3059 -0.7253
  290MOL    H9841136   0.217   1.152   2.295 -0.6184  0.9030 -0.7528
  290MOL    H9941137   0.076   1.153   2.191  0.0250 -0.9678 -1.2726
  290MOL   C10041138   0.279   1.175   2.031 -0.7953  0.0809 -0.0472
  290MOL   C10141139   0.350   1.141   1.899  0.0839 -0.5812 -0.4182
  290MOL   O10241140   0.272   1.137   1.782 -0.4419 -0.2722  0.1294
  290MOL   H10341141   0.198   1.245   2.012  0.6401  1.7686 -0.1531
  290MOL   H10441142   0.358   1.230   2.082  0.8852 -2.0363 -0.2901
  290MOL   H10541143   0.402   1.045   1.909  1.4469  0.2919  1.1087
  290MOL   H10641144   0.431   1.212   1.882  0.3534 -0.6994  0.3930
  290MOL   C10741145   0.354   1.115   1.665 -0.2528 -0.7182 -0.2160
  290MOL   C10841146   0.256   1.115   1.547 -0.4828  0.0683 -0.2774
  290MOL   O10941147   0.180   1.005   1.557  0.4220  0.1114 -0.0284
  290MOL   H11041148   0.437   1.186   1.660 -1.8858  1.3084  0.4033
  290MOL   H11141149   0.412   1.024   1.677  0.6765 -0.1272 -0.1744
  290MOL   H11241150   0.315   1.104   1.456  3.2018 -0.4196  2.0813
  290MOL   H11341151   0.194   1.200   1.519 -1.5219  0.0277  1.8138
  290MOL   C11441152   0.237   0.882   1.513 -0.2394 -0.0278  0.6600
  290MOL   C11541153   0.179   0.753   1.570  0.4744 -0.0253  0.3023
  290MOL   O11641154   0.251   0.725   1.688 -0.4897 -0.4231 -0.3347
  290MOL   H11741155   0.230   0.888   1.405  1.8892  0.8311  0.5517
  290MOL   H11841156   0.341   0.893   1.542  0.0246 -1.7753  0.4247
  290MOL   H11941157   0.205   0.676   1.498 -0.6841  1.1258 -1.3851
  290MOL   H12041158   0.073   0.738   1.594  0.1466  0.9050 -0.5345
  290MOL   C12141159   0.208   0.800   1.800  0.3571 -0.0775  0.0387
  290MOL   C12241160   0.266   0.751   1.928 -0.6022 -0.1137 -0.9898
  290MOL   O12341161   0.216   0.629   1.979 -0.0182 -0.1866 -0.3036
  290MOL   H12441162   0.226   0.906   1.783  0.4960 -0.0808  0.1693
  290MOL   H12541163   0.100   0.790   1.811  0.6281 -2.8460  0.6631
  290MOL   H12641164   0.248   0.834   1.995  1.9956 -0.1747 -0.1789
  290MOL   H12741165   0.371   0.738   1.901 -1.2529 -2.8777 -2.4705
  290MOL   C12841166   0.307   0.561   2.076 -0.0616 -0.3310  0.0232
  290MOL   C12941167   0.253   0.432   2.138  0.5371 -0.0059 -0.2127
  290MOL   O13041168   0.191   0.462   2.261 -0.1066 -0.4860  0.5703
  290MOL   H13141169   0.396   0.541   2.016  0.7121  2.4246  0.1426
  290MOL   H13241170   0.332   0.636   2.151  0.0546  0.2540 -0.5900
  290MOL   H13341171   0.342   0.375   2.163  0.6413 -0.4257 -1.5009
  290MOL   H13441172   0.183   0.394   2.063 -0.8830 -0.7415  1.4568
  290MOL   C13541173   0.149   0.350   2.330  0.2647  0.4668  0.4460
  290MOL   C13641174   0.076   0.416   2.446  0.2105 -0.0785  0.4009
  290MOL   O13741175   7.714   0.370   2.451  0.1998 -0.5621  0.0578
  290MOL   H13841176   0.086   0.283   2.271  1.8788  0.5574 -1.4354
  290MOL   H13941177   0.238   0.296   2.363  0.5629 -0.3487 -1.6186
  290MOL   H14041178   0.054   0.522   2.435 -0.2415 -0.2602 -0.4641
  290MOL   H14141179   0.116   0.394   2.545 -1.8575  3.7623  2.1716
  290MOL   H14241180   7.666   0.402   2.376  0.4513  3.6082  1.5433
  291MOL     C141181   6.303   2.001   7.194  0.2736 -0.1165 -0.6586
  291MOL     C241182   6.250   2.142   7.161 -0.7244  0.1406  0.4631
  291MOL     O341183   6.332   2.226   7.080 -0.6754  0.7410 -0.1641
  291MOL     H441184   6.377   2.013   7.273 -0.0631 -1.6898 -0.0959
  291MOL     H541185   6.346   1.957   7.104  1.9471  0.9335 -0.4071
  291MOL     H641186   6.217   2.188   7.254 -1.2483 -1.2231  0.9635
  291MOL     H741187   6.159   2.130   7.101 -1.3655  0.3592  1.3880
  291MOL     H841188   6.221   1.933   7.218  1.5996 -1.3963  0.2813
  291MOL     C941189   6.263   2.345   7.049  0.0932  0.1581  1.1364
  291MOL    C1041190   6.336   2.416   6.937 -0.1212  0.2692 -1.1622
  291MOL    O1141191   6.475   2.437   6.958  0.0650 -0.4569 -0.3281
  291MOL    H1241192   6.160   2.327   7.019  0.3869 -3.2030  1.9385
  291MOL    H1341193   6.264   2.417   7.131  0.8159  1.0675  0.3444
  291MOL    H1441194   6.288   2.512   6.922 -3.3168 -1.1821 -0.5583
  291MOL    H1541195   6.324   2.361   6.844  1.3548 -0.0784 -1.1650
  291MOL    C1641196   6.547   2.521   6.869  0.9415  0.4728 -0.5967
  291MOL    C1741197   6.696   2.487   6.895 -0.4272  0.2472  0.2529
  291MOL    O1841198   6.740   2.377   6.825 -0.0478  0.6026 -0.0936
  291MOL    H1941199   6.520   2.509   6.764 -2.0599  3.5337 -0.2597
  291MOL    H2041200   6.525   2.625   6.893  0.5121  0.2645 -0.0650
  291MOL    H2141201   6.717   2.474   7.001 -1.2817 -3.4293  0.0286
  291MOL    H2241202   6.761   2.569   6.863 -0.5758 -0.2881 -1.4731
  291MOL    C2341203   6.691   2.249   6.876  0.7941  1.1688 -0.6370
  291MOL    C2441204   6.789   2.138   6.828  0.7327 -0.1974  0.6558
  291MOL    O2541205   6.755   2.087   6.696 -0.2884 -0.3190 -0.4814
  291MOL    H2641206   6.700   2.254   6.984 -1.0499 -0.3706 -0.3874
  291MOL    H2741207   6.588   2.224   6.849 -0.0697  0.7139  2.8599
  291MOL    H2841208   6.806   2.058   6.900  1.2410 -1.3650 -0.7464
  291MOL    H2941209   6.885   2.185   6.806 -0.8983  2.1983 -1.5477
  291MOL    C3041210   6.817   1.966   6.655 -0.0646  0.7460  0.1403
  291MOL    C3141211   6.969   1.981   6.634  0.2187  0.6327  0.6814
  291MOL    O3241212   7.021   1.978   6.764  0.5032 -0.1472  0.1458
  291MOL    H3341213   6.795   1.874   6.708  1.0011  0.3699 -0.0517
  291MOL    H3441214   6.771   1.947   6.559 -0.2612 -3.0111  0.9158
  291MOL    H3541215   6.992   2.069   6.574  0.0541  0.4292  0.3140
  291MOL    H3641216   7.001   1.887   6.588 -1.6752 -0.0078  0.6243
  291MOL    C3741217   7.160   2.016   6.767  0.5525  0.0057 -0.1682
  291MOL    C3841218   7.252   1.915   6.703 -0.3919 -0.2008  0.5173
  291MOL    O3941219   7.263   1.945   6.564  0.2558 -0.1048 -0.4149
  291MOL    H4041220   7.158   2.116   6.723 -1.3408  0.4184  0.7819
  291MOL    H4141221   7.197   2.027   6.869  1.2435 -1.6308 -0.2309
  291MOL    H4241222   7.208   1.819   6.728 -2.5151  0.7125  0.4064
  291MOL    H4341223   7.351   1.927   6.748 -0.4343 -0.8207  0.7825
  291MOL    C4441224   7.326   1.849   6.480  1.1467 -0.5031  0.5080
  291MOL    C4541225   7.320   1.895   6.331  0.8146  0.6798  0.2545
  291MOL    O4641226   7.448   1.948   6.295  0.3934 -0.3220  0.2188
  291MOL    H4741227   7.425   1.828   6.520  1.4254 -0.3495 -0.1016
  291MOL    H4841228   7.274   1.753   6.486  0.4708 -0.1350  0.6249
  291MOL    H4941229   7.244   1.973   6.325  0.3536  0.0958 -1.9424
  291MOL    H5041230   7.300   1.816   6.259 -0.0443  0.2812  0.9266
  291MOL    C5141231   7.453   1.993   6.162 -0.6193 -0.7252 -0.2765
  291MOL    C5241232   7.570   2.079   6.132  0.1893 -0.1060 -0.0834
  291MOL    O5341233   7.560   2.195   6.216 -0.2101  0.5692  0.2114
  291MOL    H5441234   7.437   1.913   6.090 -0.2646 -0.2309 -0.9132
  291MOL    H5541235   7.369   2.063   6.162  0.0580  0.1208 -2.7425
  291MOL    H5641236   7.558   2.102   6.026  0.6124  0.0234 -0.1070
  291MOL    H5741237   7.665   2.025   6.141  1.0335  1.3076 -0.2586
  291MOL    C5841238   7.676   2.278   6.212  0.0184 -0.0398  0.0863
  291MOL    C5941239   7.644   2.383   6.325  0.2675  0.0147 -0.5310
  291MOL    O6041240   7.573   2.493   6.266  0.2866  0.3333 -0.1102
  291MOL    H6141241   7.768   2.226   6.238  1.0946  1.2622 -1.0179
  291MOL    H6241242   7.675   2.322   6.112 -2.6015  2.0644  0.9851
  291MOL    H6341243   7.740   2.416   6.364  0.8498 -1.8740 -0.3085
  291MOL    H6441244   7.589   2.337   6.407  0.6462  2.1016  0.9257
  291MOL    C6541245   7.542   2.595   6.371 -0.0073 -0.3661  0.5800
  291MOL    C6641246   7.670   2.667   6.422  0.3641 -0.1324  0.8404
  291MOL    O6741247   7.723   2.598   6.533 -0.2524  0.1582  0.1475
  291MOL    H6841248   7.478   2.665   6.317  1.2955  0.9219  0.6852
  291MOL    H6941249   7.480   2.550   6.449  0.4140 -0.1904  1.0211
  291MOL    H7041250   7.641   2.764   6.464  1.8190  1.2381 -1.1980
  291MOL    H7141251   7.736   2.698   6.340  1.6941 -1.3665  1.4323
  291MOL    C7241252   0.053   2.666   6.607  0.0443  0.0646  0.3238
  291MOL    C7341253   0.098   2.564   6.712 -0.7344 -0.1316  0.1208
  291MOL    O7441254   0.213   2.488   6.670  0.5629  0.2546 -0.2782
  291MOL    H7541255   0.130   2.705   6.541  0.4409 -2.3171 -0.6659
  291MOL    H7641256   0.000   2.750   6.651 -2.0533 -0.9454 -0.1828
  291MOL    H7741257   0.013   2.503   6.742 -0.6437 -0.4900 -0.3567
  291MOL    H7841258   0.131   2.622   6.798 -0.7738  0.2600 -0.1248
  291MOL    C7941259   0.185   2.383   6.580 -0.3363 -0.1950 -0.0020
  291MOL    C8041260   0.328   2.333   6.550 -0.1384 -0.0323 -0.1639
  291MOL    O8141261   0.323   2.234   6.445 -0.0401 -0.1970 -0.3493
  291MOL    H8241262   0.129   2.317   6.646  1.2583 -1.2528  0.3154
  291MOL    H8341263   0.121   2.411   6.496  1.9908 -0.2981 -1.8870
  291MOL    H8441264   0.362   2.305   6.650 -0.8196  2.1718  0.7034
  291MOL    H8541265   0.397   2.414   6.527 -1.0113  0.2752 -1.7182
  291MOL    C8641266   0.447   2.168   6.428 -0.2576  0.1561 -0.4375
  291MOL    C8741267   0.451   2.043   6.340 -0.0451  0.1419 -0.5772
  291MOL    O8841268   0.587   2.017   6.305 -0.3190 -0.1575 -0.0962
  291MOL    H8941269   0.526   2.235   6.396 -1.0174  1.5335  0.5213
  291MOL    H9041270   0.481   2.128   6.524  0.6450 -0.9723 -1.2086
  291MOL    H9141271   0.393   2.072   6.252 -0.0128 -1.4127 -1.1291
  291MOL    H9241272   0.398   1.968   6.400  0.5277 -0.0058 -0.2582
  291MOL    C9341273   0.597   1.905   6.215 -0.1030  0.1873  0.9795
  291MOL    C9441274   0.749   1.884   6.184  0.0579 -0.4285  0.6062
  291MOL    O9541275   0.786   1.961   6.069 -0.2910  0.4264 -0.5769
  291MOL    H9641276   0.551   1.812   6.246 -0.1791 -0.1546 -0.1713
  291MOL    H9741277   0.545   1.939   6.126  0.3442 -1.7366 -0.0357
  291MOL    H9841278   0.766   1.778   6.163  0.5034  0.0802 -1.7240
  291MOL    H9941279   0.814   1.906   6.268 -0.3313  1.0570  0.5350
  291MOL   C10041280   0.928   1.973   6.043  0.2304 -0.7908 -0.2448
  291MOL   C10141281   1.000   2.081   6.128 -0.2736  0.1487  0.4024
  291MOL   O10241282   1.017   2.030   6.261 -0.2289  0.6370 -0.4781
  291MOL   H10341283   0.976   1.880   6.071 -1.1246 -1.5569 -0.4182
  291MOL   H10441284   0.945   1.983   5.936  2.2537  0.4698  0.1767
  291MOL   H10541285   0.946   2.174   6.109  0.4445  0.2710 -1.1946
  291MOL   H10641286   1.097   2.095   6.079 -0.8606 -0.0531 -0.8564
  291MOL   C10741287   1.053   2.137   6.347 -0.3735  0.0373  0.3578
  291MOL   C10841288   0.926   2.210   6.402  0.5228  0.2525 -0.1546
  291MOL   O10941289   0.915   2.340   6.345  0.2357 -0.2933  0.4352
  291MOL   H11041290   1.113   2.087   6.424 -0.1017  0.2965  0.3162
  291MOL   H11141291   1.132   2.202   6.308  0.8800 -0.6769  1.6585
  291MOL   H11241292   0.932   2.215   6.510  2.5810  2.8536 -0.3377
  291MOL   H11341293   0.838   2.152   6.376 -0.0847  0.4466  1.4606
  291MOL   C11441294   0.822   2.429   6.404  0.2222 -0.9292  0.6551
  291MOL   C11541295   0.852   2.481   6.548 -0.0625 -0.3100  0.0970
  291MOL   O11641296   0.934   2.589   6.534  0.0246  0.0414  0.1342
  291MOL   H11741297   0.816   2.517   6.340 -0.9636 -1.2790  0.2721
  291MOL   H11841298   0.726   2.377   6.402  0.0493 -0.6088  0.5346
  291MOL   H11941299   0.900   2.408   6.613  0.3146 -1.0473 -0.9909
  291MOL   H12041300   0.759   2.513   6.595 -0.0377 -0.1722  0.0523
  291MOL   C12141301   0.869   2.715   6.511  1.1626 -0.7406 -0.2845
  291MOL   C12241302   0.974   2.833   6.516 -0.4343 -0.6499 -0.5855
  291MOL   O12341303   1.026   2.860   6.380 -0.1363 -0.2674  0.2131
  291MOL   H12441304   0.817   2.719   6.415  0.0774 -1.3160  0.2588
  291MOL   H12541305   0.795   2.731   6.589  0.4282 -1.8508 -0.7258
  291MOL   H12641306   1.053   2.794   6.581 -0.1528  1.1651  0.1763
  291MOL   H12741307   0.941   2.927   6.560 -1.0818 -1.4711  0.6991
  291MOL   C12841308   1.092   2.985   6.370  0.5756  0.1181 -0.0603
  291MOL   C12941309   1.137   3.012   6.226 -0.9134 -0.1837 -0.7683
  291MOL   O13041310   1.241   2.924   6.198  0.3376 -0.3321  0.0256
  291MOL   H13141311   1.022   3.066   6.392 -0.6916 -0.6535 -1.1950
  291MOL   H13241312   1.175   2.986   6.440  0.9698 -0.0789 -0.5222
  291MOL   H13341313   1.174   3.114   6.214 -0.0920 -0.4929 -0.9184
  291MOL   H13441314   1.050   2.999   6.162 -1.5833 -2.0224  0.4806
  291MOL   C13541315   1.297   2.945   6.072  0.7192 -0.4650 -0.3618
  291MOL   C13641316   1.415   2.839   6.068  0.1899 -0.2025 -0.7517
  291MOL   O13741317   1.381   2.703   6.031 -0.6340 -0.1616 -0.5437
  291MOL   H13841318   1.227   2.934   5.990 -1.0854 -0.8847  1.1995
  291MOL   H13941319   1.333   3.048   6.068 -1.5565  0.3144 -2.0695
  291MOL   H14041320   1.474   2.837   6.160  0.6705  0.5908 -1.0378
  291MOL   H14141321   1.486   2.875   5.994  0.7089 -0.0312 -0.1744
  291MOL   H14241322   1.318   2.669   6.093  1.0075 -0.1351  1.2148
  292MOL     C141323   5.745   0.740   4.957  0.7539 -0.2199 -0.2282
  292MOL     C241324   5.878   0.727   4.884 -0.8203 -0.4486 -0.4736
  292MOL     O341325   5.960   0.844   4.904  0.0917 -0.1497 -0.3210
  292MOL     H441326   5.756   0.787   5.054  2.8174  0.6812 -0.8665
  292MOL     H541327   5.698   0.642   4.970 -1.7109  0.6775 -1.8961
  292MOL     H641328   5.873   0.709   4.777 -0.2529 -2.4873 -0.1791
  292MOL     H741329   5.923   0.647   4.942 -1.6112 -0.1933  0.5051
  292MOL     H841330   5.694   0.811   4.891  0.8631 -1.9653 -2.2456
  292MOL     C941331   6.104   0.808   4.887 -0.5599 -0.6991 -0.4406
  292MOL    C1041332   6.196   0.920   4.942  0.6155 -0.4877  0.0276
  292MOL    O1141333   6.176   0.903   5.076 -0.8675  0.6684 -0.0075
  292MOL    H1241334   6.122   0.725   4.955  0.7595 -2.4384 -2.8381
  292MOL    H1341335   6.127   0.786   4.783  2.0723 -1.0346  0.1784
  292MOL    H1441336   6.173   1.021   4.908  1.2268  0.3818  2.1217
  292MOL    H1541337   6.291   0.893   4.897  0.6139  1.0354 -0.8967
  292MOL    C1641338   6.241   0.997   5.154  0.3353  0.6137  0.8252
  292MOL    C1741339   6.395   0.977   5.151  0.2000  0.3529 -0.3220
  292MOL    O1841340   6.450   1.033   5.033 -0.1940  0.3262  0.0012
  292MOL    H1941341   6.215   1.096   5.116  0.2736 -0.4123 -1.9512
  292MOL    H2041342   6.210   0.985   5.258 -1.7897  0.5057  0.2044
  292MOL    H2141343   6.424   0.872   5.159 -0.1563  0.2353 -0.5492
  292MOL    H2241344   6.437   1.018   5.243  0.1302  0.0966 -0.1760
  292MOL    C2341345   6.474   1.170   5.020  0.4102  0.0071 -0.8452
  292MOL    C2441346   6.534   1.208   4.888 -0.3963  0.3240 -0.3859
  292MOL    O2541347   6.432   1.222   4.788 -0.1740 -0.5639  0.1215
  292MOL    H2641348   6.384   1.232   5.032 -0.4667 -1.6957  1.8912
  292MOL    H2741349   6.549   1.185   5.097 -2.1963 -1.2382  2.0552
  292MOL    H2841350   6.610   1.136   4.861  0.7372  1.8180 -1.2625
  292MOL    H2941351   6.588   1.303   4.893 -2.4254  1.4379  1.2649
  292MOL    C3041352   6.484   1.227   4.653 -0.4517 -0.0874 -0.4384
  292MOL    C3141353   6.366   1.236   4.562  0.8040 -1.0128 -0.2370
  292MOL    O3241354   6.310   1.375   4.575 -0.2285  0.4757 -0.2746
  292MOL    H3341355   6.546   1.317   4.644  1.5952 -1.4817 -0.6013
  292MOL    H3441356   6.535   1.133   4.632  0.4077  0.1829  0.3858
  292MOL    H3541357   6.296   1.160   4.598 -0.3158  0.8780  1.6696
  292MOL    H3641358   6.396   1.221   4.458  0.9427 -0.6582 -0.2476
  292MOL    C3741359   6.208   1.399   4.479 -0.9620  0.5013  0.1248
  292MOL    C3841360   6.148   1.538   4.490  0.7082  0.6929  0.3478
  292MOL    O3941361   6.032   1.552   4.407 -0.1976 -0.0369 -0.1886
  292MOL    H4041362   6.249   1.397   4.378 -0.8420 -2.1237  0.2111
  292MOL    H4141363   6.136   1.318   4.473  0.5302 -0.8927  0.8333
  292MOL    H4241364   6.226   1.607   4.459  0.1915  0.8014 -0.7516
  292MOL    H4341365   6.134   1.552   4.597 -2.4438 -0.9085  0.2140
  292MOL    C4441366   5.981   1.680   4.409  0.3675 -0.0176  0.3537
  292MOL    C4541367   5.890   1.689   4.285  0.3884  0.6083  0.5269
  292MOL    O4641368   5.962   1.728   4.169  0.0094  0.1628  0.2069
  292MOL    H4741369   5.928   1.687   4.503 -0.2086  1.7394 -0.0696
  292MOL    H4841370   6.058   1.758   4.408 -1.3240  1.6867  0.2087
  292MOL    H4941371   5.800   1.745   4.311  0.1129 -0.1032  1.1379
  292MOL    H5041372   5.837   1.596   4.263  1.8799 -0.6252  2.0267
  292MOL    C5141373   5.884   1.741   4.051 -0.2023 -0.1463  0.7524
  292MOL    C5241374   5.943   1.849   3.960  0.2727  0.1442  0.4898
  292MOL    O5341375   5.861   1.855   3.842  0.1228 -0.1875 -0.0252
  292MOL    H5441376   5.890   1.644   4.003  0.2768  1.0694 -1.7218
  292MOL    H5541377   5.781   1.766   4.074 -0.1655  1.5526 -0.8854
  292MOL    H5641378   6.047   1.826   3.938 -0.0741 -1.4050  0.4088
  292MOL    H5741379   5.948   1.942   4.016  2.0150  0.7898 -0.7317
  292MOL    C5841380   5.943   1.911   3.738  0.3526  0.1623  0.2039
  292MOL    C5941381   5.865   1.934   3.604 -0.2564  0.1262 -0.7903
  292MOL    O6041382   5.852   1.810   3.538 -0.2022  0.2594 -0.3034
  292MOL    H6141383   5.980   2.003   3.783  0.7937 -0.8444  2.0024
  292MOL    H6241384   6.038   1.860   3.721  0.1890 -0.0085 -0.2005
  292MOL    H6341385   5.918   2.004   3.539  1.9085  0.4676  1.2437
  292MOL    H6441386   5.773   1.988   3.627  0.7163  1.8048 -0.7414
  292MOL    C6541387   5.765   1.820   3.432  0.7099 -0.3583  0.5643
  292MOL    C6641388   5.766   1.682   3.356 -0.0598 -0.1560  0.1330
  292MOL    O6741389   5.893   1.641   3.314 -0.0879 -0.0450  0.2659
  292MOL    H6841390   5.670   1.867   3.456  0.0377 -0.7524 -1.2513
  292MOL    H6941391   5.809   1.894   3.365 -1.9348 -1.6975 -2.7935
  292MOL    H7041392   5.703   1.686   3.267 -1.5007 -1.0879  1.0866
  292MOL    H7141393   5.719   1.604   3.417  0.6980  0.8640  2.0651
  292MOL    C7241394   5.969   1.565   3.407  0.0002  0.2475 -0.0544
  292MOL    C7341395   6.076   1.484   3.350  0.2140 -0.6040  0.3051
  292MOL    O7441396   6.011   1.383   3.274  0.0810  0.2805  0.4456
  292MOL    H7541397   5.999   1.638   3.483  1.6540  3.2734 -3.4756
  292MOL    H7641398   5.893   1.500   3.451 -2.6069  2.7351 -0.7226
  292MOL    H7741399   6.124   1.439   3.437 -0.3492 -2.0053 -0.0922
  292MOL    H7841400   6.139   1.549   3.290 -0.7199 -0.3746 -0.4423
  292MOL    C7941401   6.096   1.269   3.237 -0.4711 -0.4737 -0.1375
  292MOL    C8041402   6.009   1.144   3.228 -0.9600  0.1507 -0.3200
  292MOL    O8141403   5.978   1.090   3.353  0.6925 -0.1674 -0.4290
  292MOL    H8241404   6.138   1.285   3.138  1.9934 -0.5355  0.8719
  292MOL    H8341405   6.177   1.257   3.309 -0.2835 -0.9528 -0.4258
  292MOL    H8441406   6.056   1.065   3.168 -1.7701 -0.2273 -0.4716
  292MOL    H8541407   5.917   1.163   3.173 -1.6045 -0.6281  0.4844
  292MOL    C8641408   5.858   1.131   3.426  0.9328  0.6189 -0.2340
  292MOL    C8741409   5.862   1.060   3.566 -0.6831 -0.6427 -0.3411
  292MOL    O8841410   5.967   1.113   3.638 -0.4586 -0.1456 -0.4863
  292MOL    H8941411   5.856   1.238   3.445  1.7015  0.3231  1.5697
  292MOL    H9041412   5.767   1.093   3.380  2.3940 -1.2376 -1.7226
  292MOL    H9141413   5.874   0.953   3.550 -0.4158 -0.7117  0.3162
  292MOL    H9241414   5.764   1.076   3.611 -0.5911  1.9486 -0.9920
  292MOL    C9341415   6.014   1.037   3.748 -0.1325 -0.2501  0.1903
  292MOL    C9441416   6.119   1.123   3.817  0.1568 -0.3196  0.3240
  292MOL    O9541417   6.150   1.064   3.949 -0.1798 -0.0864 -0.1769
  292MOL    H9641418   5.930   1.013   3.813 -0.3364  0.0661  0.0453
  292MOL    H9741419   6.054   0.943   3.711 -0.1244 -0.6012  1.0804
  292MOL    H9841420   6.072   1.219   3.835  1.4028  0.3469  0.0392
  292MOL    H9941421   6.206   1.138   3.754 -1.3933  2.5459 -1.1942
  292MOL   C10041422   6.224   1.155   4.027 -1.0041 -0.4785  0.2609
  292MOL   C10141423   6.254   1.096   4.161 -0.4502  0.1680 -0.4245
  292MOL   O10241424   6.383   1.141   4.206  0.2615  0.4448  0.0673
  292MOL   H10341425   6.319   1.170   3.977 -0.2212 -3.5581  0.7049
  292MOL   H10441426   6.169   1.248   4.042 -0.2266  0.1781 -0.9231
  292MOL   H10541427   6.233   0.990   4.171 -0.4829  0.2611  0.6647
  292MOL   H10641428   6.174   1.126   4.230 -0.8517 -0.3646 -0.6562
  292MOL   C10741429   6.481   1.038   4.187  0.2237 -0.8011  0.1831
  292MOL   C10841430   6.512   0.973   4.321  0.5293  0.2370  0.1491
  292MOL   O10941431   6.406   0.895   4.359  0.1913  0.2641  0.7714
  292MOL   H11041432   6.453   0.957   4.120  0.3659 -0.0736 -0.7652
  292MOL   H11141433   6.574   1.084   4.151 -1.1335  1.4543 -0.5173
  292MOL   H11241434   6.544   1.049   4.392 -0.2411  1.0569 -0.3808
  292MOL   H11341435   6.605   0.919   4.303  0.4504  0.5607 -1.2611
  292MOL   C11441436   6.430   0.820   4.476 -0.7225 -0.1419 -0.2555
  292MOL   C11541437   6.314   0.726   4.498 -0.3355 -0.1593 -0.3471
  292MOL   O11641438   6.201   0.790   4.559 -0.0721  0.1689 -0.1614
  292MOL   H11741439   6.523   0.763   4.469 -0.8563 -0.4315  0.2622
  292MOL   H11841440   6.450   0.872   4.569  1.2690 -1.6528  0.1908
  292MOL   H11941441   6.339   0.652   4.573  0.7175  0.1745 -0.3574
  292MOL   H12041442   6.288   0.667   4.410 -0.3188 -0.2139 -0.3149
  292MOL   C12141443   6.141   0.877   4.473  0.2937 -0.2790 -0.2781
  292MOL   C12241444   5.989   0.904   4.512  0.2601 -0.6720 -0.2596
  292MOL   O12341445   5.900   0.830   4.424 -0.3176 -0.2263  0.1594
  292MOL   H12441446   6.194   0.972   4.468  1.7329 -0.9535  1.4863
  292MOL   H12541447   6.152   0.832   4.374  1.4578 -1.3699  0.3187
  292MOL   H12641448   5.975   1.011   4.496  0.2855 -0.4465  1.2369
  292MOL   H12741449   5.965   0.882   4.616  1.0037  1.2306  0.3360
  292MOL   C12841450   5.895   0.874   4.292 -0.1198 -0.1971 -0.1366
  292MOL   C12941451   5.813   1.010   4.269 -0.3687  0.0949  0.1210
  292MOL   O13041452   5.909   1.103   4.231  0.1617 -0.5716  0.1671
  292MOL   H13141453   5.992   0.888   4.245  0.4643  1.5334  1.5237
  292MOL   H13241454   5.842   0.803   4.228 -1.1592  0.3405  0.1197
  292MOL   H13341455   5.754   1.039   4.356  0.1038 -2.8378  1.4605
  292MOL   H13441456   5.740   0.993   4.190 -0.9675  0.4240  0.5965
  292MOL   C13541457   5.874   1.244   4.238  0.2860 -0.0482  0.0531
  292MOL   C13641458   5.812   1.284   4.103  0.1178  0.1844 -0.1219
  292MOL   O13741459   5.774   1.417   4.077 -0.4939 -0.0089 -0.3820
  292MOL   H13841460   5.808   1.271   4.321 -3.8194 -2.7041 -2.1791
  292MOL   H13941461   5.966   1.301   4.252  1.5512 -2.0925  0.3217
  292MOL   H14041462   5.725   1.225   4.078 -0.9829  1.2642  1.0891
  292MOL   H14141463   5.889   1.255   4.031 -0.2946 -0.8306 -0.1539
  292MOL   H14241464   5.697   1.435   4.129 -0.8716  0.5397 -1.1077
  293MOL     C141465   1.931   0.972   1.613 -0.2714  0.0807 -0.2836
  293MOL     C241466   1.864   1.096   1.676  0.4806  0.3437  0.3123
  293MOL     O341467   1.885   1.092   1.810 -0.3128  0.2437  0.9432
  293MOL     H441468   1.949   0.978   1.506 -0.6303 -0.4916 -0.3771
  293MOL     H541469   1.861   0.891   1.630 -1.3787  0.1559 -4.0020
  293MOL     H641470   1.762   1.100   1.637  1.0143  0.2827 -1.1217
  293MOL     H741471   1.912   1.187   1.638 -0.5990  0.5993 -0.4919
  293MOL     H841472   2.027   0.946   1.658 -0.4098 -0.1473 -0.1238
  293MOL     C941473   1.854   1.212   1.869  0.0582 -0.7967  0.6326
  293MOL    C1041474   1.883   1.215   2.015  0.2649  0.4940 -0.5254
  293MOL    O1141475   2.018   1.224   2.065  0.6472 -0.4417  0.2359
  293MOL    H1241476   1.901   1.299   1.823 -0.3589 -0.1570  1.4049
  293MOL    H1341477   1.745   1.222   1.872  0.0897 -0.6097  1.2207
  293MOL    H1441478   1.839   1.129   2.067  1.1240  0.8370  0.8142
  293MOL    H1541479   1.829   1.297   2.064  1.8096 -0.0710  2.2400
  293MOL    C1641480   2.034   1.220   2.208 -0.1499  0.2069  0.0811
  293MOL    C1741481   2.170   1.289   2.243  0.3538 -0.1973 -0.4613
  293MOL    O1841482   2.292   1.215   2.203 -0.0826  0.3350  0.2278
  293MOL    H1941483   1.954   1.282   2.247 -0.0357 -1.2703  2.7639
  293MOL    H2041484   2.010   1.121   2.246 -0.3297  0.0851 -0.3392
  293MOL    H2141485   2.188   1.318   2.347  1.6064  0.3280 -0.8182
  293MOL    H2241486   2.168   1.379   2.182 -2.0499 -0.9899 -1.5838
  293MOL    C2341487   2.414   1.277   2.248 -0.5305  0.2559 -0.0782
  293MOL    C2441488   2.529   1.198   2.181  0.5012 -0.1189 -0.3524
  293MOL    O2541489   2.560   1.253   2.057  0.5727 -0.0688  0.0347
  293MOL    H2641490   2.424   1.385   2.237 -2.2130  0.4379  0.0193
  293MOL    H2741491   2.420   1.246   2.352  0.3385  1.5484  0.2642
  293MOL    H2841492   2.494   1.095   2.181  0.1852 -0.0122  0.7418
  293MOL    H2941493   2.621   1.209   2.240 -0.3347 -0.1566  0.9712
  293MOL    C3041494   2.621   1.149   1.986  0.2737 -0.2078 -0.0989
  293MOL    C3141495   2.678   1.214   1.853  0.0550 -0.2541  0.3083
  293MOL    O3241496   2.801   1.279   1.886 -0.2111 -0.0372 -0.0723
  293MOL    H3341497   2.704   1.118   2.049  0.3162  2.4108  1.2043
  293MOL    H3441498   2.558   1.062   1.973  2.0252 -1.2892 -1.6422
  293MOL    H3541499   2.595   1.275   1.815 -0.3849  0.1178  1.8543
  293MOL    H3641500   2.684   1.129   1.785 -1.2668 -1.2073  1.3650
  293MOL    C3741501   2.803   1.409   1.819 -0.1246 -0.3135 -0.3287
  293MOL    C3841502   2.944   1.470   1.849  0.1607  0.1366  0.1756
  293MOL    O3941503   3.010   1.504   1.722 -0.3095 -0.7550 -0.4168
  293MOL    H4041504   2.783   1.408   1.711 -1.8694  0.0399 -0.0269
  293MOL    H4141505   2.730   1.477   1.862  1.3098  0.7749  0.4164
  293MOL    H4241506   2.998   1.395   1.907 -0.4140 -1.3613 -1.1707
  293MOL    H4341507   2.934   1.555   1.916 -0.2361 -0.5083  0.9408
  293MOL    C4441508   3.135   1.573   1.726  0.1555  0.2529 -0.7970
  293MOL    C4541509   3.182   1.603   1.579  0.8812 -0.0983  0.3439
  293MOL    O4641510   3.113   1.726   1.542 -0.8341 -0.7620  0.4342
  293MOL    H4741511   3.107   1.655   1.792 -0.4977 -2.4149  2.4105
  293MOL    H4841512   3.212   1.509   1.770 -2.0504 -1.7058  0.2986
  293MOL    H4941513   3.165   1.524   1.506  0.0602 -0.0476  0.4761
  293MOL    H5041514   3.286   1.632   1.590  0.7264  1.7127 -2.5277
  293MOL    C5141515   3.151   1.762   1.411  0.0080  0.1628 -0.2214
  293MOL    C5241516   3.079   1.896   1.381  0.1882 -0.1027  0.7519
  293MOL    O5341517   2.943   1.879   1.336  0.2818  0.1643  0.2368
  293MOL    H5441518   3.258   1.784   1.410  0.0219  0.0767 -1.6641
  293MOL    H5541519   3.132   1.682   1.339 -1.0809 -0.9270  1.2518
  293MOL    H5641520   3.141   1.947   1.307  0.4737 -1.2642  0.1685
  293MOL    H5741521   3.087   1.960   1.468  0.6435 -0.6432  1.1117
  293MOL    C5841522   2.917   1.856   1.196  0.2706 -0.0512 -0.4074
  293MOL    C5941523   2.768   1.884   1.190  0.2524  0.3477  0.2493
  293MOL    O6041524   2.745   1.883   1.054  0.1414 -0.1198  0.1248
  293MOL    H6141525   2.963   1.935   1.137 -1.1264 -1.0346 -2.9039
  293MOL    H6241526   2.966   1.765   1.161 -0.2227 -0.7229  0.6291
  293MOL    H6341527   2.733   1.978   1.233 -1.6902 -0.3265  0.1916
  293MOL    H6441528   2.708   1.809   1.240  0.5809  0.3518  0.6571
  293MOL    C6541529   2.610   1.852   1.022  0.4348 -0.9963 -0.0202
  293MOL    C6641530   2.605   1.828   0.873 -0.0501  0.5662  0.6807
  293MOL    O6741531   2.610   1.949   0.799  0.2769 -1.0663 -0.3087
  293MOL    H6841532   2.587   1.756   1.067  0.7008 -0.0765  2.1472
  293MOL    H6941533   2.542   1.931   1.056  1.0711 -0.7900  0.7868
  293MOL    H7041534   2.507   1.791   0.843  0.2318  1.1284 -1.0175
  293MOL    H7141535   2.676   1.750   0.846 -2.2622 -2.0349  2.1312
  293MOL    C7241536   2.594   1.910   0.660  0.7687  0.0240  0.2068
  293MOL    C7341537   2.611   2.035   0.571  0.0426  0.1825 -0.5470
  293MOL    O7441538   2.742   2.080   0.551 -0.8492  0.0784 -0.7503
  293MOL    H7541539   2.662   1.834   0.621 -1.5847 -1.6363 -0.7391
  293MOL    H7641540   2.493   1.872   0.648  0.7028 -0.1965  1.3807
  293MOL    H7741541   2.546   2.107   0.621 -1.4417 -1.8350  0.4852
  293MOL    H7841542   2.558   2.025   0.476 -0.0951  2.0537 -0.6729
  293MOL    C7941543   2.762   2.184   0.454 -0.1955  0.8404 -0.4335
  293MOL    C8041544   2.908   2.228   0.423  0.1338  0.5642  0.1878
  293MOL    O8141545   2.966   2.135   0.328 -0.5872 -0.4524  0.3513
  293MOL    H8241546   2.716   2.162   0.358  0.5246 -0.1356 -0.5665
  293MOL    H8341547   2.714   2.275   0.491 -0.4867  0.0262  1.2667
  293MOL    H8441548   2.970   2.239   0.512 -2.4839 -1.5035  2.3834
  293MOL    H8541549   2.897   2.326   0.376 -0.8335  0.0314 -0.7126
  293MOL    C8641550   3.104   2.184   0.305  0.4949 -0.6814 -0.2123
  293MOL    C8741551   3.167   2.103   0.198 -0.1201  0.0757 -0.3354
  293MOL    O8841552   3.147   2.165   0.073  0.4804  0.3613 -0.3012
  293MOL    H8941553   3.117   2.291   0.290 -0.1744 -0.2743  1.9458
  293MOL    H9041554   3.159   2.160   0.396 -0.0954 -1.6174 -0.0991
  293MOL    H9141555   3.128   2.002   0.211  1.1936 -0.5729 -1.2338
  293MOL    H9241556   3.274   2.102   0.218  0.2104 -0.3876 -2.0171
  293MOL    C9341557   3.216   2.105   7.744  0.4189 -0.2310 -0.6065
  293MOL    C9441558   3.177   2.188   7.615 -0.1471  0.6974 -0.4406
  293MOL    O9541559   3.235   2.121   7.506 -0.1994 -0.3500 -0.2029
  293MOL    H9641560   3.322   2.101   7.766  0.5513  2.0967 -0.7236
  293MOL    H9741561   3.177   2.004   7.730  1.0516 -0.4753 -0.6190
  293MOL    H9841562   3.226   2.285   7.623 -0.9815  1.0490  0.5416
  293MOL    H9941563   3.072   2.205   7.589 -0.2098  1.8383  0.5324
  293MOL   C10041564   3.200   2.151   7.373  0.3995 -0.7583  1.2297
  293MOL   C10141565   3.230   2.289   7.327  0.3930 -0.0610  0.9786
  293MOL   O10241566   3.143   2.391   7.365 -0.3773  0.6200 -0.5443
  293MOL   H10341567   3.249   2.084   7.302 -0.2503 -0.5794  0.6015
  293MOL   H10441568   3.094   2.132   7.356  0.8675  0.0253 -3.2303
  293MOL   H10541569   3.245   2.291   7.219  0.1676  1.6538  0.9588
  293MOL   H10641570   3.332   2.314   7.358 -0.0790  0.6323  1.9934
  293MOL   C10741571   3.210   2.519   7.329  0.4968  0.6617 -0.9747
  293MOL   C10841572   3.180   2.550   7.178  0.2162 -0.0287  0.2276
  293MOL   O10941573   3.155   2.691   7.157  0.0541 -0.3105  0.0161
  293MOL   H11041574   3.154   2.588   7.393 -0.7263 -1.2392  0.0485
  293MOL   H11141575   3.316   2.526   7.353  0.8742  0.3883 -2.5298
  293MOL   H11241576   3.091   2.495   7.145 -0.1302 -0.4146  1.7607
  293MOL   H11341577   3.261   2.515   7.113  0.3331 -1.5038  1.1445
  293MOL   C11441578   3.091   2.714   7.031 -0.1733  0.0171  0.0311
  293MOL   C11541579   3.029   2.862   7.013  0.1220  0.2287  0.3644
  293MOL   O11641580   2.894   2.869   7.054  0.0152 -0.0468 -0.3462
  293MOL   H11741581   3.166   2.697   6.955 -0.9229 -0.5376 -0.5886
  293MOL   H11841582   3.018   2.636   7.010  2.4221 -2.2254 -0.9758
  293MOL   H11941583   3.033   2.902   6.912 -2.5318  0.1928  0.2031
  293MOL   H12041584   3.087   2.931   7.073  1.9347  1.3074 -2.5296
  293MOL   C12141585   2.829   2.991   7.044  0.5711  0.4901  0.1357
  293MOL   C12241586   2.678   2.974   7.064  0.2086 -0.2791  0.0356
  293MOL   O12341587   2.626   2.879   6.970  1.0873 -0.5429  0.2574
  293MOL   H12441588   2.869   3.056   7.123  1.5595  0.1462 -0.0730
  293MOL   H12541589   2.844   3.039   6.947  0.4939 -1.8824 -1.0697
  293MOL   H12641590   2.627   3.069   7.049 -1.5777 -0.7171  2.9025
  293MOL   H12741591   2.659   2.947   7.168  0.4213 -1.9145 -0.3449
  293MOL   C12841592   2.484   2.889   6.951 -0.0916  0.4675 -0.1724
  293MOL   C12941593   2.433   2.761   6.868 -0.2064 -0.6966  0.1868
  293MOL   O13041594   2.368   2.664   6.946 -0.0477  0.1104  0.7146
  293MOL   H13141595   2.430   2.900   7.045 -0.8644 -0.3459 -0.5112
  293MOL   H13241596   2.463   2.977   6.891 -2.5344 -0.5786 -0.9090
  293MOL   H13341597   2.513   2.712   6.814  0.8885 -1.0922  2.1309
  293MOL   H13441598   2.355   2.802   6.803  0.7886  2.8223  1.1188
  293MOL   C13541599   2.437   2.587   7.032  0.7783  0.2802 -0.4874
  293MOL   C13641600   2.338   2.490   7.107  0.3865  0.5368 -0.0910
  293MOL   O13741601   2.293   2.393   7.022 -0.3122 -0.1181  0.2184
  293MOL   H13841602   2.523   2.536   6.986  0.1790 -0.6688 -0.5763
  293MOL   H13941603   2.465   2.659   7.108  0.8407 -1.1361  0.8439
  293MOL   H14041604   2.256   2.548   7.149  1.8988  1.5122  1.5815
  293MOL   H14141605   2.387   2.453   7.198 -1.5764  0.6642  1.0477
  293MOL   H14241606   2.366   2.340   6.994  1.3073  1.9380  0.4339
  294MOL     C141607   3.524   5.759   2.925 -0.9358 -0.0367  0.3722
  294MOL     C241608   3.410   5.790   2.821 -0.1262 -1.0628 -0.2294
  294MOL     O341609   3.302   5.703   2.830 -0.0832  0.3641  0.1047
  294MOL     H441610   3.589   5.840   2.957  0.2820 -1.0877  0.5946
  294MOL     H541611   3.596   5.687   2.887 -1.4090  0.4815 -1.5882
  294MOL     H641612   3.452   5.791   2.721  2.4814 -0.5568  0.8186
  294MOL     H741613   3.384   5.895   2.839  0.2889 -1.1242  0.7711
  294MOL     H841614   3.476   5.720   3.015  0.4476 -1.9570  0.3084
  294MOL     C941615   3.197   5.741   2.739 -0.0659  0.4806  0.2212
  294MOL    C1041616   3.071   5.676   2.795  0.2983 -0.1191  0.2389
  294MOL    O1141617   3.020   5.752   2.903 -0.6885  0.2031  0.3952
  294MOL    H1241618   3.177   5.847   2.724  1.0108  0.4638 -1.4934
  294MOL    H1341619   3.229   5.690   2.648 -1.0578  0.8825 -0.3565
  294MOL    H1441620   3.099   5.575   2.827 -1.5304 -0.1733  1.8051
  294MOL    H1541621   3.002   5.668   2.710 -0.9042 -0.1756  1.2054
  294MOL    C1641622   2.897   5.701   2.955  0.2911 -0.3969 -0.9053
  294MOL    C1741623   2.836   5.804   3.036  0.6643 -0.0304  0.8123
  294MOL    O1841624   2.738   5.762   3.128 -0.4721 -0.0754 -0.1589
  294MOL    H1941625   2.831   5.682   2.871 -0.6886  2.2978 -0.8185
  294MOL    H2041626   2.918   5.613   3.014  2.4486  0.9202  0.3640
  294MOL    H2141627   2.795   5.880   2.970 -0.6798 -0.6719  0.8847
  294MOL    H2241628   2.916   5.841   3.099 -0.2473 -0.3504  2.1675
  294MOL    C2341629   2.624   5.847   3.132  0.3965 -0.7566  0.0069
  294MOL    C2441630   2.530   5.832   3.002 -0.0334  0.2625 -0.1786
  294MOL    O2541631   2.573   5.918   2.898  0.1493 -0.1067  0.0943
  294MOL    H2641632   2.562   5.809   3.214  0.2930 -2.3736 -0.7900
  294MOL    H2741633   2.658   5.947   3.159 -1.7513 -0.7364  2.9409
  294MOL    H2841634   2.433   5.874   3.025 -0.1523 -0.0766 -0.0676
  294MOL    H2941635   2.511   5.737   2.953 -3.2702  0.1159  1.2897
  294MOL    C3041636   2.482   5.940   2.791  0.0625  0.1942 -0.4741
  294MOL    C3141637   2.530   6.058   2.706  0.0226 -0.0370  0.3273
  294MOL    O3241638   2.614   6.018   2.595 -0.3623 -0.0609  0.1909
  294MOL    H3341639   2.484   5.849   2.730 -0.8252  0.6393 -1.1659
  294MOL    H3441640   2.384   5.971   2.829  1.4784  3.0664  0.9618
  294MOL    H3541641   2.574   6.139   2.764 -0.1835 -0.3961  0.9954
  294MOL    H3641642   2.444   6.107   2.662  0.9413 -0.1629 -1.6639
  294MOL    C3741643   2.735   5.940   2.612  0.5190 -0.2942 -0.1250
  294MOL    C3841644   2.808   5.934   2.476 -0.5977 -0.7611  0.5087
  294MOL    O3941645   2.951   5.915   2.488  0.4186  0.6737  0.0649
  294MOL    H4041646   2.788   5.995   2.690  0.2536 -0.2790  0.0435
  294MOL    H4141647   2.699   5.843   2.649  3.4388 -1.0405  0.9313
  294MOL    H4241648   2.784   6.030   2.429 -0.0798 -1.1498 -0.5661
  294MOL    H4341649   2.763   5.861   2.409  0.0349 -1.2504  0.6167
  294MOL    C4441650   3.022   5.929   2.358 -0.3107  0.2265  0.3492
  294MOL    C4541651   2.994   5.824   2.245  0.3503  0.1901 -0.2272
  294MOL    O4641652   3.042   5.692   2.263  0.2685 -0.0693 -0.0836
  294MOL    H4741653   2.990   6.027   2.323  1.5620  0.1800 -1.6270
  294MOL    H4841654   3.129   5.926   2.383  0.6380 -1.3776 -3.4796
  294MOL    H4941655   3.040   5.863   2.155 -1.9866  1.2908 -1.0028
  294MOL    H5041656   2.887   5.827   2.223  0.2425 -2.0011 -0.0691
  294MOL    C5141657   2.962   5.607   2.345 -0.1445  1.4635 -0.1354
  294MOL    C5241658   3.042   5.473   2.364  0.9172  0.4899  0.1559
  294MOL    O5341659   3.143   5.502   2.466  0.4772  0.6333  0.1906
  294MOL    H5441660   2.954   5.649   2.446 -0.3792  0.0179  0.4526
  294MOL    H5541661   2.864   5.592   2.302  1.3299 -1.8825 -2.5868
  294MOL    H5641662   3.079   5.453   2.263  0.9567  1.8463 -0.1179
  294MOL    H5741663   2.982   5.389   2.398  0.3219  1.2759  1.0662
  294MOL    C5841664   3.209   5.384   2.491 -0.0494  0.3024  0.4789
  294MOL    C5941665   3.308   5.409   2.603 -0.8332 -0.5346  0.1712
  294MOL    O6041666   3.418   5.479   2.545 -0.1139  0.0927 -0.0079
  294MOL    H6141667   3.126   5.318   2.513  0.0862 -0.1080 -0.2264
  294MOL    H6241668   3.252   5.353   2.396 -0.2155  2.9740 -0.5432
  294MOL    H6341669   3.336   5.312   2.645 -1.2885 -0.9530 -0.4879
  294MOL    H6441670   3.264   5.468   2.684 -2.7377 -1.9773  0.2281
  294MOL    C6541671   3.525   5.506   2.639 -0.4526 -0.3661  0.2790
  294MOL    C6641672   3.624   5.608   2.585 -0.1173 -0.8876 -0.2690
  294MOL    O6741673   3.731   5.548   2.518  0.2057 -0.7477  0.5675
  294MOL    H6841674   3.479   5.540   2.731  2.0121 -0.6870  1.6632
  294MOL    H6941675   3.588   5.424   2.672  0.4993  0.6793  1.0706
  294MOL    H7041676   3.659   5.665   2.672  1.8541  1.3166 -2.4383
  294MOL    H7141677   3.576   5.682   2.520 -3.6297 -3.3369 -0.6197
  294MOL    C7241678   3.816   5.647   2.468 -0.1479 -0.3935 -0.1004
  294MOL    C7341679   3.901   5.568   2.369 -0.7415 -0.1984  0.5067
  294MOL    O7441680   3.897   5.640   2.249  0.1365 -0.2344 -0.2858
  294MOL    H7541681   3.761   5.720   2.408  1.1865  1.3090  0.7002
  294MOL    H7641682   3.868   5.711   2.540  0.8583 -0.1367 -1.0435
  294MOL    H7741683   3.871   5.464   2.353 -2.8039  0.3242  0.9017
  294MOL    H7841684   4.006   5.556   2.396 -0.5782 -2.4913 -1.0112
  294MOL    C7941685   4.005   5.733   2.228 -0.0601 -1.0189 -0.2046
  294MOL    C8041686   4.099   5.661   2.123  0.1857 -0.4437 -0.1976
  294MOL    O8141687   4.187   5.577   2.188 -0.3788  0.2525  0.2213
  294MOL    H8241688   3.967   5.823   2.182 -0.5223 -1.4126 -0.5942
  294MOL    H8341689   4.062   5.754   2.319 -1.5747  0.6032  0.3915
  294MOL    H8441690   4.157   5.730   2.063 -0.9633  0.4263 -0.3168
  294MOL    H8541691   4.039   5.604   2.052  1.1527  0.1041 -1.4688
  294MOL    C8641692   4.305   5.635   2.241  0.0360 -0.6086  0.2518
  294MOL    C8741693   4.367   5.537   2.338  0.0711 -0.3176  0.1826
  294MOL    O8841694   4.298   5.547   2.464 -0.5654  0.2259  0.1585
  294MOL    H8941695   4.378   5.654   2.162 -1.5750  0.5403 -1.0002
  294MOL    H9041696   4.286   5.731   2.291 -0.5847 -0.4358 -0.3068
  294MOL    H9141697   4.469   5.571   2.356 -0.3954  0.8711  0.6350
  294MOL    H9241698   4.366   5.436   2.296 -4.9752  0.1302 -1.0530
  294MOL    C9341699   4.356   5.475   2.572 -1.0420 -0.3648 -0.2013
  294MOL    C9441700   4.279   5.513   2.696  0.6495  0.4545 -0.4191
  294MOL    O9541701   4.339   5.629   2.753 -0.3407 -0.1725 -0.0624
  294MOL    H9641702   4.331   5.369   2.562 -2.9850 -0.1333  1.8648
  294MOL    H9741703   4.461   5.503   2.583 -1.1522 -0.3624  0.9381
  294MOL    H9841704   4.281   5.424   2.758 -0.3875  0.1666 -0.7826
  294MOL    H9941705   4.180   5.528   2.653  0.4040  0.5046  0.1701
  294MOL   C10041706   4.266   5.685   2.864  0.5447  0.5789 -0.8408
  294MOL   C10141707   4.347   5.794   2.927  0.0067 -0.1090 -0.0713
  294MOL   O10241708   4.306   5.808   3.061 -1.0467  0.0894 -0.3215
  294MOL   H10341709   4.171   5.723   2.829  0.7344  1.2061 -0.6855
  294MOL   H10441710   4.259   5.595   2.924 -0.3749  1.9128  1.0993
  294MOL   H10541711   4.329   5.889   2.877 -0.6956 -1.0722 -1.7338
  294MOL   H10641712   4.453   5.769   2.919 -0.0511 -0.0670 -1.0488
  294MOL   C10741713   4.303   5.942   3.108  0.3260  0.0999 -0.2818
  294MOL   C10841714   4.271   5.948   3.253 -0.3723  0.4685  0.2765
  294MOL   O10941715   4.131   5.964   3.271 -0.5035 -0.3962 -0.0823
  294MOL   H11041716   4.407   5.968   3.088  0.8013 -1.2840  0.3510
  294MOL   H11141717   4.229   5.999   3.052  1.3777  0.1402 -1.6838
  294MOL   H11241718   4.329   6.037   3.279  2.0211 -0.3400 -2.0026
  294MOL   H11341719   4.314   5.861   3.303  0.1233 -1.8048 -3.8761
  294MOL   C11441720   4.095   5.955   3.406 -0.1513 -0.4850  0.0311
  294MOL   C11541721   4.117   6.091   3.469  0.2358  0.3216 -0.0876
  294MOL   O11641722   4.255   6.107   3.516 -0.2503 -0.1515  0.4353
  294MOL   H11741723   3.990   5.925   3.406 -0.8492  1.8192 -0.0756
  294MOL   H11841724   4.146   5.881   3.467 -0.9609 -0.2316  1.0288
  294MOL   H11941725   4.068   6.094   3.566  2.3330 -1.6265  1.0555
  294MOL   H12041726   4.086   6.165   3.394  0.5954 -1.3283 -1.9102
  294MOL   C12141727   4.287   6.233   3.573  0.4802  0.0102 -0.9686
  294MOL   C12241728   4.409   6.219   3.671 -0.0238 -0.3381 -0.1161
  294MOL   O12341729   4.363   6.149   3.786  0.0065 -0.5261 -0.9137
  294MOL   H12441730   4.306   6.311   3.499  0.5561  2.2763  1.3530
  294MOL   H12541731   4.200   6.260   3.633  1.5077  1.1943  0.0187
  294MOL   H12641732   4.443   6.315   3.708  1.1378 -1.2366  1.1716
  294MOL   H12741733   4.491   6.169   3.619 -1.2928 -1.4420 -1.1027
  294MOL   C12841734   4.462   6.106   3.879  0.6033 -0.1974  0.3758
  294MOL   C12941735   4.536   5.985   3.823  0.9076  0.3839 -0.8923
  294MOL   O13041736   4.442   5.887   3.768  0.1729 -0.9101  0.0389
  294MOL   H13141737   4.535   6.185   3.898 -0.4481  1.8202 -3.4204
  294MOL   H13241738   4.417   6.089   3.977 -1.3527 -0.0912 -0.4673
  294MOL   H13341739   4.590   5.926   3.897 -0.1066  1.0434  0.3895
  294MOL   H13441740   4.605   6.010   3.743 -0.6242  0.2985 -2.2719
  294MOL   C13541741   4.496   5.778   3.705 -0.5125  0.8465  0.8373
  294MOL   C13641742   4.389   5.725   3.624 -0.0258 -0.5019  0.3026
  294MOL   O13741743   4.288   5.667   3.707  0.6103 -0.0224 -0.3341
  294MOL   H13841744   4.575   5.799   3.634  0.5885  1.1304  2.1178
  294MOL   H13941745   4.542   5.719   3.785  1.7524  1.4372  0.0242
  294MOL   H14041746   4.431   5.649   3.558  5.4498  1.2044  1.5154
  294MOL   H14141747   4.346   5.796   3.554 -0.9190 -2.4400 -1.1528
  294MOL   H14241748   4.254   5.740   3.757 -0.5564 -0.5571 -0.3423
  295MOL     C141749   3.082   5.573   3.228  0.1812  0.2075  0.2069
  295MOL     C241750   3.144   5.543   3.367 -0.1592  0.4163 -0.0166
  295MOL     O341751   3.161   5.404   3.360 -0.2231 -0.1112  0.2296
  295MOL     H441752   3.082   5.680   3.210  0.3515  0.2020  0.1664
  295MOL     H541753   2.982   5.531   3.218  0.1293  0.6329 -1.1339
  295MOL     H641754   3.074   5.554   3.450  0.1400 -0.6808  0.3836
  295MOL     H741755   3.239   5.596   3.380 -0.5401  1.3016 -0.7860
  295MOL     H841756   3.151   5.532   3.153 -2.3216  0.3267 -2.2574
  295MOL     C941757   3.231   5.359   3.472 -0.1560  0.3533  0.0367
  295MOL    C1041758   3.247   5.206   3.467  0.2735 -0.0465  0.4125
  295MOL    O1141759   3.124   5.135   3.479 -0.1488 -0.4186  0.1016
  295MOL    H1241760   3.333   5.395   3.478  0.5459 -1.4617 -0.7285
  295MOL    H1341761   3.174   5.390   3.559  2.1616  1.6343  1.1380
  295MOL    H1441762   3.308   5.170   3.550  2.2195  3.3835  0.5490
  295MOL    H1541763   3.298   5.174   3.376  1.0466  0.6712  0.5829
  295MOL    C1641764   3.152   4.995   3.463  0.5807  0.9549 -0.1874
  295MOL    C1741765   3.026   4.905   3.489  0.3367  0.3474 -0.8106
  295MOL    O1841766   3.022   4.865   3.627  0.6186 -0.1959  0.3141
  295MOL    H1941767   3.191   4.973   3.364 -0.2689  0.9768 -0.5262
  295MOL    H2041768   3.233   4.963   3.529  1.1738 -0.3790 -1.5519
  295MOL    H2141769   3.050   4.811   3.438 -2.2463 -0.9332  0.2276
  295MOL    H2241770   2.933   4.945   3.449  0.1972 -0.2967 -1.1470
  295MOL    C2341771   2.939   4.755   3.648 -0.4337  0.3271 -1.2159
  295MOL    C2441772   2.942   4.712   3.795  0.3600 -0.4317 -0.2310
  295MOL    O2541773   2.873   4.806   3.878 -0.1398  0.1403  0.1169
  295MOL    H2641774   2.836   4.768   3.616 -0.1648  2.8264 -1.1448
  295MOL    H2741775   2.997   4.675   3.602  4.1718  0.8996  3.0131
  295MOL    H2841776   3.047   4.700   3.822  0.0728  1.8175  2.0805
  295MOL    H2941777   2.890   4.616   3.806 -1.2705  0.5602  0.9487
  295MOL    C3041778   2.766   4.759   3.955  1.0050  0.5937 -0.1811
  295MOL    C3141779   2.636   4.742   3.878 -0.0393 -1.1300  0.5854
  295MOL    O3241780   2.651   4.627   3.800  0.3822 -0.0892 -0.1167
  295MOL    H3341781   2.794   4.668   4.007 -0.7657  0.0477 -0.1426
  295MOL    H3441782   2.745   4.843   4.020 -2.7717 -1.6157  1.6117
  295MOL    H3541783   2.618   4.817   3.802 -0.1756 -0.6875  1.0577
  295MOL    H3641784   2.552   4.741   3.947 -1.5864  2.2592 -1.1818
  295MOL    C3741785   2.528   4.617   3.719  0.2961 -0.8566  0.3781
  295MOL    C3841786   2.529   4.493   3.634 -0.0826  0.1532  0.0272
  295MOL    O3941787   2.607   4.531   3.521 -0.4692  0.3913 -0.6620
  295MOL    H4041788   2.450   4.622   3.795 -0.0659 -0.8937  0.0119
  295MOL    H4141789   2.510   4.702   3.654 -0.5588 -0.7071  0.8004
  295MOL    H4241790   2.427   4.469   3.603  0.7733 -3.6878 -0.1121
  295MOL    H4341791   2.557   4.407   3.695 -1.0122 -0.3061 -0.1821
  295MOL    C4441792   2.649   4.424   3.433 -0.2538  0.0030 -0.9137
  295MOL    C4541793   2.710   4.478   3.306 -0.6392 -0.1960 -0.5086
  295MOL    O4641794   2.819   4.564   3.328  0.0291 -0.0869 -0.0338
  295MOL    H4741795   2.709   4.348   3.484  2.4361  1.9381 -1.1080
  295MOL    H4841796   2.563   4.369   3.394 -0.0071 -1.8367  1.0001
  295MOL    H4941797   2.631   4.541   3.264 -1.9002 -0.2555  1.7012
  295MOL    H5041798   2.724   4.392   3.241 -1.6821 -0.1176 -0.8529
  295MOL    C5141799   2.858   4.628   3.211  0.2563  0.1257 -0.0522
  295MOL    C5241800   2.790   4.768   3.202 -0.6026 -0.1591  0.1382
  295MOL    O5341801   2.883   4.881   3.208  1.0679  0.6917 -0.6855
  295MOL    H5441802   2.967   4.633   3.212  0.2865 -0.5888  0.1416
  295MOL    H5541803   2.831   4.573   3.122 -1.3791  0.6236  0.1120
  295MOL    H5641804   2.711   4.787   3.274  0.5762 -0.2379  1.4816
  295MOL    H5741805   2.737   4.765   3.107  0.5289  1.8960 -0.5792
  295MOL    C5841806   2.826   5.004   3.184 -0.0806 -0.6611  0.0436
  295MOL    C5941807   2.932   5.122   3.168 -0.0215 -0.0082 -0.9335
  295MOL    O6041808   2.995   5.104   3.037  0.4205  0.6164  0.2731
  295MOL    H6141809   2.758   4.999   3.098  0.9530 -1.2558 -0.7583
  295MOL    H6241810   2.759   5.038   3.263  1.0176 -0.6898  0.9944
  295MOL    H6341811   3.001   5.112   3.251  0.4996  0.6792 -1.2802
  295MOL    H6441812   2.894   5.223   3.175 -0.2988 -0.1585 -0.2935
  295MOL    C6541813   3.014   5.228   2.964 -0.0407  0.1790  0.2674
  295MOL    C6641814   3.129   5.212   2.865  0.2672 -0.1644 -0.1474
  295MOL    O6741815   3.087   5.147   2.745 -0.5850  0.4530  0.0608
  295MOL    H6841816   2.917   5.262   2.927 -0.1897 -0.3282  0.1948
  295MOL    H6941817   3.052   5.300   3.037  0.8165  1.1529 -1.1171
  295MOL    H7041818   3.206   5.155   2.917  2.0306 -0.1096 -2.5949
  295MOL    H7141819   3.175   5.311   2.852  0.3148 -0.4423 -2.3243
  295MOL    C7241820   3.113   5.013   2.736 -0.3032 -0.5388 -0.4737
  295MOL    C7341821   3.101   4.966   2.588  0.4293  0.2088 -0.0059
  295MOL    O7441822   3.216   5.015   2.520  0.0755 -0.3263  0.2373
  295MOL    H7541823   3.213   4.986   2.771 -1.2025  0.7242  3.2835
  295MOL    H7641824   3.036   4.975   2.803 -1.1695  1.1730 -0.4840
  295MOL    H7741825   3.006   4.996   2.542  1.5458  1.8345 -1.2912
  295MOL    H7841826   3.116   4.858   2.591 -0.4217  0.0868  0.1721
  295MOL    C7941827   3.211   5.014   2.381  0.2790 -0.4434  0.7564
  295MOL    C8041828   3.206   4.878   2.320  0.4807 -0.4916 -0.2744
  295MOL    O8141829   3.066   4.853   2.305  0.2363 -0.0952 -0.2945
  295MOL    H8241830   3.122   5.074   2.359  1.0573 -0.1233 -1.6405
  295MOL    H8341831   3.300   5.069   2.351 -0.0633 -0.7448 -0.8182
  295MOL    H8441832   3.257   4.800   2.377  0.0755 -0.5333  0.0383
  295MOL    H8541833   3.261   4.863   2.228  0.2435 -0.0557 -0.4913
  295MOL    C8641834   3.041   4.725   2.253 -0.4506 -0.1352  0.5886
  295MOL    C8741835   2.888   4.700   2.254 -0.2251 -0.2351 -0.5257
  295MOL    O8841836   2.849   4.613   2.360  0.1703  0.2270  0.0889
  295MOL    H8941837   3.072   4.725   2.149 -0.2639  1.9379  0.6298
  295MOL    H9041838   3.091   4.637   2.294 -0.9574 -0.7482 -0.0873
  295MOL    H9141839   2.851   4.660   2.160  0.5799  0.7371 -1.2635
  295MOL    H9241840   2.835   4.795   2.260  0.1195 -0.1368  1.1825
  295MOL    C9341841   2.826   4.661   2.488 -0.5253 -0.7404  1.6695
  295MOL    C9441842   2.704   4.740   2.501 -0.4568 -0.1517 -0.2825
  295MOL    O9541843   2.695   4.778   2.632  0.2291 -0.3699  0.3005
  295MOL    H9641844   2.810   4.569   2.545 -0.0378 -2.2309 -0.5380
  295MOL    H9741845   2.911   4.717   2.526 -0.0621 -0.6353  0.4958
  295MOL    H9841846   2.608   4.695   2.475 -1.4763  1.3458  0.8203
  295MOL    H9941847   2.711   4.830   2.440 -3.3603  0.3855  0.1108
  295MOL   C10041848   2.575   4.846   2.664 -0.3559 -0.0387  0.8493
  295MOL   C10141849   2.579   4.938   2.789 -0.4875  0.0465  0.7828
  295MOL   O10241850   2.613   5.074   2.756 -0.1186  0.2989  0.3455
  295MOL   H10341851   2.508   4.886   2.588  1.1105  1.0890  0.1427
  295MOL   H10441852   2.514   4.761   2.698 -0.2186  0.4708  2.3896
  295MOL   H10541853   2.651   4.903   2.862  0.7939  0.7629 -0.1279
  295MOL   H10641854   2.482   4.952   2.838 -0.0961  0.3963  1.4601
  295MOL   C10741855   2.754   5.081   2.731  0.2479  0.4852 -0.3159
  295MOL   C10841856   2.796   5.193   2.635  0.8536  0.8004 -0.2809
  295MOL   O10941857   2.754   5.321   2.682  0.8102  0.1731  0.1574
  295MOL   H11041858   2.811   5.087   2.824 -0.4023 -0.5912  0.1567
  295MOL   H11141859   2.797   4.991   2.687  3.2943  0.6183  2.1723
  295MOL   H11241860   2.745   5.184   2.539 -0.8127 -0.8496  0.7250
  295MOL   H11341861   2.903   5.202   2.616  1.6975  0.2554  3.6139
  295MOL   C11441862   2.780   5.435   2.609 -0.0818  0.1530 -0.1971
  295MOL   C11541863   2.695   5.547   2.664 -0.5758  0.3472  0.1022
  295MOL   O11641864   2.577   5.575   2.598  0.1595 -0.1061 -0.6030
  295MOL   H11741865   2.881   5.472   2.629  0.0798 -1.7250  2.9436
  295MOL   H11841866   2.770   5.425   2.502 -0.9898  2.0896 -0.3082
  295MOL   H11941867   2.758   5.632   2.637  1.6078 -1.6541 -1.3194
  295MOL   H12041868   2.688   5.538   2.772  2.5027  0.3812  0.3687
  295MOL   C12141869   2.476   5.485   2.642 -0.4217  0.2539  0.2046
  295MOL   C12241870   2.337   5.524   2.584  0.3343 -0.6465  0.3477
  295MOL   O12341871   2.334   5.496   2.442 -0.2269 -0.0925 -0.4859
  295MOL   H12441872   2.514   5.388   2.611 -1.3945 -0.6315  1.7135
  295MOL   H12541873   2.473   5.481   2.751 -0.4846 -0.5178  0.1803
  295MOL   H12641874   2.315   5.630   2.596  0.8333 -0.8868  3.9920
  295MOL   H12741875   2.254   5.469   2.628 -0.7479  0.7570  0.0793
  295MOL   C12841876   2.208   5.531   2.387 -0.2272  0.0106 -0.4782
  295MOL   C12941877   2.195   5.495   2.236  0.0741  0.7173  0.2796
  295MOL   O13041878   2.143   5.363   2.220 -0.1380  0.5330 -0.0121
  295MOL   H13141879   2.131   5.491   2.454 -1.8103  2.8629 -0.5543
  295MOL   H13241880   2.189   5.637   2.399  2.3811  0.5158 -0.4386
  295MOL   H13341881   2.282   5.522   2.176 -0.3395  2.1842  0.3218
  295MOL   H13441882   2.114   5.557   2.198  1.6444  2.3032 -0.5675
  295MOL   C13541883   2.108   5.333   2.088 -0.3903  0.3302  0.3539
  295MOL   C13641884   2.096   5.181   2.088  0.0042 -0.0845 -0.0449
  295MOL   O13741885   2.223   5.129   2.132 -0.3361  0.4477  0.4145
  295MOL   H13841886   2.014   5.385   2.072 -0.0070  1.4514  1.6473
  295MOL   H13941887   2.177   5.372   2.013 -1.2776  0.2047 -0.5448
  295MOL   H14041888   2.068   5.143   1.990  0.3969  0.5215 -0.3990
  295MOL   H14141889   2.013   5.142   2.148 -0.3697 -1.5649 -1.4965
  295MOL   H14241890   2.238   5.183   2.207  0.5465  0.5452  0.1731
  296MOL     C141891   5.637   3.194   4.208  0.7358 -0.0489  0.4169
  296MOL     C241892   5.638   3.343   4.217  0.1457 -0.8157  0.4224
  296MOL     O341893   5.570   3.398   4.103 -0.2878  0.7030  0.3853
  296MOL     H441894   5.651   3.155   4.108  0.8203  1.0899 -0.0187
  296MOL     H541895   5.537   3.157   4.232  0.3280  0.8199  0.0603
  296MOL     H641896   5.738   3.379   4.238  0.3689 -1.2431  0.0933
  296MOL     H741897   5.587   3.358   4.312  0.4175 -2.6968  0.8960
  296MOL     H841898   5.705   3.134   4.269 -0.5948  1.1235  3.1798
  296MOL     C941899   5.586   3.539   4.099  0.3596  0.0401 -0.2660
  296MOL    C1041900   5.716   3.575   4.030  0.1089 -0.2022 -0.6065
  296MOL    O1141901   5.788   3.658   4.126 -0.0348  0.0392  0.2798
  296MOL    H1241902   5.499   3.582   4.049 -0.8933  1.9855  3.3801
  296MOL    H1341903   5.583   3.586   4.197  0.5813  1.1333 -0.7800
  296MOL    H1441904   5.683   3.636   3.946 -1.1475  1.4155  0.9946
  296MOL    H1541905   5.770   3.490   3.989 -0.0900 -0.8965  0.5592
  296MOL    C1641906   5.930   3.673   4.089 -0.4981  0.9634 -0.3747
  296MOL    C1741907   5.947   3.718   3.941 -0.1990 -0.3681 -0.1154
  296MOL    O1841908   5.899   3.848   3.939  0.8969  0.0151  0.0102
  296MOL    H1941909   5.975   3.745   4.158  0.2890  0.6258 -0.5301
  296MOL    H2041910   5.984   3.580   4.105 -0.1796  1.1707 -0.2306
  296MOL    H2141911   5.886   3.657   3.875  0.1924  0.4087 -1.2106
  296MOL    H2241912   6.055   3.710   3.930 -0.2298 -2.2503  0.8314
  296MOL    C2341913   5.892   3.917   3.816  0.4233  0.3862  0.3582
  296MOL    C2441914   6.032   3.981   3.777 -0.0169  0.0833  0.0470
  296MOL    O2541915   6.120   3.890   3.718  0.3722 -0.2509  0.6054
  296MOL    H2641916   5.855   3.844   3.744  0.7583  0.0774  0.4945
  296MOL    H2741917   5.816   3.995   3.824  1.0900  1.1848 -0.9917
  296MOL    H2841918   6.067   4.030   3.868 -1.5665  0.1181  0.6365
  296MOL    H2941919   6.014   4.058   3.701  0.3130 -0.7800 -0.9247
  296MOL    C3041920   6.245   3.949   3.681 -0.1594 -0.1742  0.1145
  296MOL    C3141921   6.350   3.835   3.645  0.3369  0.0923 -0.3483
  296MOL    O3241922   6.404   3.795   3.770 -0.5881 -0.4318  0.2629
  296MOL    H3341923   6.233   4.012   3.593 -0.6596 -0.7798 -0.2588
  296MOL    H3441924   6.291   4.020   3.749 -0.6779 -0.3005  0.6026
  296MOL    H3541925   6.430   3.875   3.582  1.4204 -1.8841 -0.2529
  296MOL    H3641926   6.305   3.754   3.588  0.7640  0.9540 -1.9538
  296MOL    C3741927   6.347   3.681   3.837 -0.4098  0.3636 -0.5278
  296MOL    C3841928   6.407   3.646   3.974  0.4307  0.6757 -0.0464
  296MOL    O3941929   6.334   3.706   4.076 -0.0863  0.2509  0.4461
  296MOL    H4041930   6.241   3.705   3.853 -0.7923 -1.6954  0.2360
  296MOL    H4141931   6.343   3.601   3.763 -0.8077 -0.5463  0.4607
  296MOL    H4241932   6.511   3.668   3.998 -0.1420  2.2323  1.0817
  296MOL    H4341933   6.400   3.541   4.002  2.0815  0.8570  1.1586
  296MOL    C4441934   6.333   3.844   4.078  0.4223  0.1102 -0.1937
  296MOL    C4541935   6.234   3.885   4.193  0.9369 -0.7819 -0.7533
  296MOL    O4641936   6.287   4.005   4.252  0.4475  0.3007  0.0639
  296MOL    H4741937   6.433   3.888   4.075  0.3746  0.1498 -1.1127
  296MOL    H4841938   6.299   3.880   3.982  2.9304  1.0818 -0.7616
  296MOL    H4941939   6.216   3.805   4.265 -0.4755 -1.3858 -1.7511
  296MOL    H5041940   6.139   3.914   4.148  1.3418  1.3266 -0.3232
  296MOL    C5141941   6.241   4.039   4.386  0.3758 -0.2760  0.4806
  296MOL    C5241942   6.086   4.058   4.382  0.8732 -0.1687  0.1047
  296MOL    O5341943   6.004   3.944   4.373  0.0799  0.0225 -0.1690
  296MOL    H5441944   6.271   3.966   4.461  3.1760  1.5791  1.2711
  296MOL    H5541945   6.279   4.139   4.406 -0.6236  0.5843 -1.7610
  296MOL    H5641946   6.057   4.119   4.297 -1.3846 -1.3464 -0.0295
  296MOL    H5741947   6.058   4.116   4.470  0.1843  0.1819 -0.3443
  296MOL    C5841948   5.945   3.905   4.497 -0.7152  1.0515  0.0202
  296MOL    C5941949   5.874   3.771   4.476  0.1298  0.1385 -0.3460
  296MOL    O6041950   5.974   3.668   4.460 -0.1228  0.1308 -0.2871
  296MOL    H6141951   6.025   3.887   4.568 -0.3396 -2.0372 -1.1256
  296MOL    H6241952   5.874   3.978   4.538 -3.3061 -1.7814  0.7184
  296MOL    H6341953   5.805   3.778   4.392 -3.1300  1.2321  2.3325
  296MOL    H6441954   5.814   3.735   4.559  2.6201  0.8515  1.8261
  296MOL    C6541955   5.914   3.542   4.417  0.2482 -0.5292  0.0262
  296MOL    C6641956   5.921   3.444   4.521 -0.0462  0.0380 -0.1071
  296MOL    O6741957   5.893   3.307   4.466 -0.2117 -0.2278 -0.1133
  296MOL    H6841958   5.811   3.555   4.382  0.6636 -1.6544 -1.6269
  296MOL    H6941959   5.972   3.513   4.330  1.1964  0.8111  0.1901
  296MOL    H7041960   5.852   3.470   4.600  0.3601  2.4942 -0.5279
  296MOL    H7141961   6.021   3.457   4.563 -0.6576 -0.1202  1.4236
  296MOL    C7241962   5.875   3.227   4.578  0.3854  0.1784 -0.1382
  296MOL    C7341963   5.856   3.077   4.540  0.0531  0.0966 -0.5899
  296MOL    O7441964   5.718   3.066   4.510 -0.5124  0.5103 -0.4179
  296MOL    H7541965   5.955   3.238   4.651  0.9495 -1.4476 -0.5068
  296MOL    H7641966   5.785   3.261   4.629  0.6023  0.4054  0.0966
  296MOL    H7741967   5.875   3.006   4.620 -0.3944  0.4530 -0.1641
  296MOL    H7841968   5.914   3.051   4.452  1.2551  2.3230 -0.4818
  296MOL    C7941969   5.688   2.928   4.484 -0.2465 -0.3722  1.1327
  296MOL    C8041970   5.547   2.919   4.409 -0.5530 -0.7287 -0.0562
  296MOL    O8141971   5.494   2.788   4.431 -0.0422  0.2772  0.3033
  296MOL    H8241972   5.757   2.877   4.416 -1.5584 -1.0281  0.2748
  296MOL    H8341973   5.682   2.879   4.580 -1.2787  1.3783  1.9965
  296MOL    H8441974   5.560   2.947   4.305 -0.2798 -2.0766 -0.3968
  296MOL    H8541975   5.483   2.993   4.458  0.9602  0.1066  0.6984
  296MOL    C8641976   5.374   2.763   4.364 -0.1238  0.2692  0.8043
  296MOL    C8741977   5.286   2.654   4.415  0.3173  0.0494 -0.0685
  296MOL    O8841978   5.144   2.641   4.386  0.0033  0.2385  0.3865
  296MOL    H8941979   5.310   2.851   4.364  0.4392  0.6835  0.0421
  296MOL    H9041980   5.398   2.751   4.258  0.4886  1.9092  0.7467
  296MOL    H9141981   5.289   2.668   4.523  1.6257 -2.5787  0.2908
  296MOL    H9241982   5.328   2.555   4.399  1.0126 -0.1084  2.4234
  296MOL    C9341983   5.068   2.568   4.475 -0.5653 -0.0470 -0.2417
  296MOL    C9441984   4.920   2.549   4.437 -0.0589  0.5545  0.4076
  296MOL    O9541985   4.902   2.456   4.323  0.8889 -0.2472  0.2524
  296MOL    H9641986   5.117   2.474   4.501 -0.0978  0.4231  0.6190
  296MOL    H9741987   5.070   2.635   4.561  0.0157  1.1473 -1.1751
  296MOL    H9841988   4.876   2.648   4.434 -0.5783  0.2806 -1.0185
  296MOL    H9941989   4.865   2.503   4.520  0.2013  0.0781  0.3189
  296MOL   C10041990   4.937   2.513   4.201  0.3458 -0.5447 -0.5124
  296MOL   C10141991   4.893   2.412   4.096  0.3190 -0.4558 -0.0308
  296MOL   O10241992   4.754   2.435   4.064  0.1545 -0.0249  0.2661
  296MOL   H10341993   4.876   2.603   4.192 -1.2338 -1.5614 -0.2421
  296MOL   H10441994   5.045   2.523   4.198  0.3039  0.4361  0.7502
  296MOL   H10541995   4.915   2.315   4.140 -0.2226 -0.0630  1.1018
  296MOL   H10641996   4.956   2.430   4.009  1.1083  2.1555  1.0488
  296MOL   C10741997   4.705   2.344   3.966  0.1731 -0.4696 -0.5585
  296MOL   C10841998   4.553   2.364   3.957 -0.5407  0.5907  0.5217
  296MOL   O10941999   4.494   2.286   3.848 -0.2412  0.0018  0.0547
  296MOL   H11042000   4.752   2.366   3.870  1.2189 -0.5826 -0.0790
  296MOL   H11142001   4.731   2.243   3.999  0.4422  0.4084  2.0076
  296MOL   H11242002   4.524   2.465   3.929 -0.7272  0.2758 -0.4429
  296MOL   H11342003   4.514   2.325   4.052  0.2962 -0.4619  0.4542
  296MOL   C11442004   4.350   2.260   3.860 -0.4849  0.3944 -0.4001
  296MOL   C11542005   4.332   2.123   3.912  0.9420 -0.2301  0.3829
  296MOL   O11642006   4.328   2.120   4.051 -0.3377 -0.0528  0.2128
  296MOL   H11742007   4.295   2.336   3.916 -0.0539  0.8919 -0.6478
  296MOL   H11842008   4.296   2.258   3.766  0.5628 -1.0643 -0.9952
  296MOL   H11942009   4.410   2.054   3.877  0.9347 -1.0257  1.9108
  296MOL   H12042010   4.251   2.071   3.860  1.5476  0.5620 -1.4127
  296MOL   C12142011   4.270   2.014   4.117  0.8042 -0.0486  0.2305
  296MOL   C12242012   4.180   2.066   4.226  1.0881 -0.9466 -0.0900
  296MOL   O12342013   4.047   2.080   4.175  0.6952 -0.3948  0.3614
  296MOL   H12442014   4.216   1.950   4.047  2.6728 -2.3335  0.8256
  296MOL   H12542015   4.345   1.945   4.155  0.2995 -1.7410 -1.7859
  296MOL   H12642016   4.212   2.159   4.271 -0.6800 -0.5406  0.3801
  296MOL   H12742017   4.179   1.990   4.304  2.3166 -0.3091  0.5614
  296MOL   C12842018   4.022   2.201   4.104  0.3850 -0.5152 -0.3011
  296MOL   C12942019   3.873   2.202   4.056  0.3503  0.2039  0.1766
  296MOL   O13042020   3.781   2.237   4.159 -0.1256 -0.2575  0.2581
  296MOL   H13142021   4.040   2.287   4.168  0.8030 -0.9326  0.1381
  296MOL   H13242022   4.079   2.197   4.011 -0.0048 -0.3625 -0.5465
  296MOL   H13342023   3.853   2.103   4.014  1.4317  0.0179  0.0850
  296MOL   H13442024   3.860   2.271   3.973  1.9840 -0.7774 -0.9407
  296MOL   C13542025   3.718   2.129   4.232 -0.2729  0.0822  0.1771
  296MOL   C13642026   3.595   2.178   4.317 -0.2667  0.2471  0.3640
  296MOL   O13742027   3.483   2.200   4.223 -0.0769 -0.8451  0.3145
  296MOL   H13842028   3.691   2.047   4.165  0.9744  0.3092 -0.6094
  296MOL   H13942029   3.780   2.083   4.310  1.2850  0.8079 -0.6280
  296MOL   H14042030   3.623   2.271   4.366 -2.7245  0.1111  2.1252
  296MOL   H14142031   3.578   2.110   4.401  0.7164  0.0995  0.4443
  296MOL   H14242032   3.464   2.124   4.171 -1.9494  0.7016 -1.3006
  297MOL     C142033   2.509   4.322   7.520  0.6140 -0.5033  0.0682
  297MOL     C242034   2.383   4.406   7.480 -0.4342 -0.1492 -0.8291
  297MOL     O342035   2.284   4.403   7.583  0.2397 -0.4123 -0.1643
  297MOL     H442036   2.538   4.362   7.617  1.1842 -1.7122  0.4070
  297MOL     H542037   2.592   4.340   7.451  0.6028 -2.0097 -0.3684
  297MOL     H642038   2.346   4.365   7.386  2.4614 -1.4659 -1.4581
  297MOL     H742039   2.401   4.511   7.457 -0.5267 -0.3474 -1.8564
  297MOL     H842040   2.484   4.216   7.523  1.1877 -0.6792 -0.8538
  297MOL     C942041   2.255   4.521   7.647 -0.2412  0.3629 -0.4001
  297MOL    C1042042   2.352   4.575   7.747  0.4944 -0.0876  0.2365
  297MOL    O1142043   2.486   4.604   7.698 -0.2617 -0.4551  0.0480
  297MOL    H1242044   2.258   4.595   7.566 -0.1493  1.8146  0.9174
  297MOL    H1342045   2.156   4.522   7.693 -1.1210 -0.8262 -2.1855
  297MOL    H1442046   2.362   4.510   0.063  0.7472  1.6806  1.5483
  297MOL    H1542047   2.309   4.668   0.013 -1.0848 -0.0914 -1.5183
  297MOL    C1642048   2.559   4.687   0.020  0.6843  0.6070 -0.7138
  297MOL    C1742049   2.686   4.750   7.724 -0.6375  0.0072 -0.7225
  297MOL    O1842050   2.636   4.867   7.668 -0.7679 -0.0520  0.2629
  297MOL    H1942051   2.493   4.762   0.063 -3.1705 -2.0423 -1.7152
  297MOL    H2042052   2.601   4.621   0.096  1.3952 -0.5657 -2.0766
  297MOL    H2142053   2.718   4.672   7.655  4.4325  0.5793  0.7639
  297MOL    H2242054   2.773   4.773   0.015  0.3252 -3.1173 -0.8247
  297MOL    C2342055   2.732   4.952   7.590  0.1021  0.4665 -0.1492
  297MOL    C2442056   2.667   5.059   7.492 -0.6941  0.3315  0.0312
  297MOL    O2542057   2.578   5.153   7.558 -0.0055  0.0298  0.4941
  297MOL    H2642058   2.775   5.015   7.668  0.7387  0.0843 -0.1899
  297MOL    H2742059   2.798   4.885   7.536  0.5703  0.8207 -0.0220
  297MOL    H2842060   2.616   5.001   7.414  0.5443 -0.3924 -0.2606
  297MOL    H2942061   2.750   5.112   7.446 -1.2341  3.5762  2.6615
  297MOL    C3042062   2.468   5.190   7.476 -0.2330 -0.5356  0.5091
  297MOL    C3142063   2.510   5.264   7.356 -0.7102  0.4537 -0.5182
  297MOL    O3242064   2.427   5.382   7.347 -0.0363 -0.4028  0.0281
  297MOL    H3342065   2.388   5.118   7.458 -1.6361  1.2046 -0.4043
  297MOL    H3442066   2.407   5.257   7.535  1.5568  0.0316  1.7664
  297MOL    H3542067   2.514   5.213   7.260  0.3717 -0.3208 -0.0786
  297MOL    H3642068   2.616   5.289   7.358  0.0142 -2.4199 -1.1701
  297MOL    C3742069   2.439   5.445   7.222 -0.3121  0.5491  0.1184
  297MOL    C3842070   2.358   5.586   7.229  0.3530  0.6996  0.3379
  297MOL    O3942071   2.447   5.688   7.272  0.3542 -0.2902 -0.3499
  297MOL    H4042072   2.541   5.461   7.185  0.6880 -1.7014  1.8044
  297MOL    H4142073   2.388   5.376   7.156  3.4913 -2.4112  0.0903
  297MOL    H4242074   2.275   5.562   7.296  0.2857  0.6581  0.2405
  297MOL    H4342075   2.325   5.600   7.125  1.6657  0.8323 -0.0683
  297MOL    C4442076   2.487   5.677   7.413  0.3464  0.0740  1.0801
  297MOL    C4542077   2.563   5.800   7.453  1.0066 -0.8807  0.1523
  297MOL    O4642078   2.608   5.796   7.584 -0.0825  0.1092  0.2454
  297MOL    H4742079   2.404   5.655   7.480 -0.2660 -0.6884  0.0874
  297MOL    H4842080   2.558   5.595   7.421 -1.2297 -1.1908  2.5020
  297MOL    H4942081   2.494   5.884   7.453  0.9285 -0.9342 -1.8313
  297MOL    H5042082   2.639   5.825   7.379  0.4233  3.3237  0.8658
  297MOL    C5142083   2.691   5.905   7.630  0.2487 -0.2574  0.7170
  297MOL    C5242084   2.837   5.882   7.596 -0.3626 -0.2326 -0.2241
  297MOL    O5342085   2.853   5.915   7.458 -0.4157 -0.0007  0.1978
  297MOL    H5442086   2.654   6.004   7.600  2.0096 -0.4494 -2.2991
  297MOL    H5542087   2.677   5.905   7.738 -1.0017 -3.3176  0.6150
  297MOL    H5642088   2.862   5.778   7.619 -0.2908 -1.3008 -4.5430
  297MOL    H5742089   2.895   5.946   7.663 -0.6800  0.0630 -0.2308
  297MOL    C5842090   2.991   5.926   7.416 -0.5829 -0.5207  0.2843
  297MOL    C5942091   3.057   6.061   7.466 -0.5757  0.1927 -0.1932
  297MOL    O6042092   3.107   6.040   7.598  0.3846 -0.0137  0.2301
  297MOL    H6142093   3.059   5.842   7.432 -0.1209 -0.0780  0.6711
  297MOL    H6242094   2.975   5.929   7.308 -3.0115 -1.2474  0.6119
  297MOL    H6342095   2.993   6.149   7.460 -0.1339  0.5523  0.2894
  297MOL    H6442096   3.138   6.091   7.400  1.5098  0.3049  2.3140
  297MOL    C6542097   3.181   6.151   7.648  0.1860 -0.1657  0.3161
  297MOL    C6642098   3.190   6.134   0.033  0.9934  0.0818 -0.5375
  297MOL    O6742099   3.255   6.247   0.090 -0.7484  0.2999 -0.3462
  297MOL    H6842100   3.275   6.153   7.593  0.4433 -0.2504  0.7500
  297MOL    H6942101   3.129   6.245   7.630  0.8872  0.2732  0.5569
  297MOL    H7042102   3.248   6.044   0.057  1.4522  0.4566 -0.2426
  297MOL    H7142103   3.089   6.130   0.073  1.3807 -1.9923  0.2986
  297MOL    C7242104   3.275   6.243   0.226  0.2301 -0.0736 -0.4156
  297MOL    C7342105   3.171   6.332   0.292  0.1543  0.3193 -0.2031
  297MOL    O7442106   3.085   6.235   0.344 -0.0150 -0.0798  0.8250
  297MOL    H7542107   3.282   6.137   0.250 -1.7503 -0.3452 -0.9385
  297MOL    H7642108   3.371   6.288   0.249 -1.0124  1.8516  1.1399
  297MOL    H7742109   3.122   6.396   0.219 -3.0157 -1.9160 -0.1314
  297MOL    H7842110   3.215   6.378   0.381  3.0086 -0.4277 -1.1699
  297MOL    C7942111   2.969   6.293   0.405 -0.6363  0.7200 -0.3911
  297MOL    C8042112   2.869   6.351   0.301  0.4633 -0.1632 -0.3660
  297MOL    O8142113   2.900   6.482   0.263  0.4662  0.1656  0.2020
  297MOL    H8242114   2.914   6.209   0.448  2.0820 -0.6721  0.4878
  297MOL    H8342115   3.009   6.351   0.488  1.1786  0.0627 -0.7815
  297MOL    H8442116   2.765   6.347   0.333  0.2045  1.3052 -0.9866
  297MOL    H8542117   2.879   6.282   0.217 -0.9999 -0.0675 -0.6407
  297MOL    C8642118   2.796   6.573   0.246  0.2207  0.2791 -0.0308
  297MOL    C8742119   2.850   6.713   0.210  0.8422  0.6587  0.1099
  297MOL    O8842120   2.890   6.783   0.327  0.6117 -0.1449 -0.2862
  297MOL    H8942121   2.727   6.531   0.173 -0.2025  0.5311  0.2213
  297MOL    H9042122   2.753   6.586   0.346  0.1125  1.7325 -0.2589
  297MOL    H9142123   2.761   6.760   0.169 -0.2594  0.8891  2.6954
  297MOL    H9242124   2.929   6.708   0.134  0.4322 -0.0957 -0.2764
  297MOL    C9342125   3.009   6.728   0.379 -0.2372  0.1399  0.0132
  297MOL    C9442126   3.055   6.820   0.495 -0.1710 -0.0097  0.5226
  297MOL    O9542127   3.148   6.913   0.441 -0.2325 -0.6006 -0.1084
  297MOL    H9642128   2.987   6.629   0.418  0.8203 -1.1014 -2.4512
  297MOL    H9742129   3.089   6.720   0.305  0.4127  0.5085  0.6717
  297MOL    H9842130   3.112   6.762   0.568 -0.0401  3.1016  2.9781
  297MOL    H9942131   2.974   6.863   0.554  0.9771 -0.3516  2.3927
  297MOL   C10042132   3.089   7.014   0.359 -0.0171 -0.5304 -0.0452
  297MOL   C10142133   3.202   7.094   0.300  0.6854 -0.2705  0.2552
  297MOL   O10242134   3.149   7.184   0.199  0.6869  0.2282 -0.1750
  297MOL   H10342135   3.027   6.961   0.286  1.9382 -0.3502 -1.8776
  297MOL   H10442136   3.026   7.075   0.424  1.1806  2.2276 -1.3768
  297MOL   H10542137   3.266   7.021   0.251  0.7158 -0.5918  0.7638
  297MOL   H10642138   3.266   7.142   0.374  0.6937  1.5857 -0.9424
  297MOL   C10742139   3.240   7.250   0.108 -0.5869 -0.1296  0.6170
  297MOL   C10842140   3.149   7.334   0.018  0.2596 -0.4277 -0.0734
  297MOL   O10942141   3.095   7.255   7.695  0.3254  0.5632  0.1816
  297MOL   H11042142   3.324   7.306   0.150  0.3701 -1.2541  0.2197
  297MOL   H11142143   3.299   7.183   0.047 -1.0384  1.2687 -1.3924
  297MOL   H11242144   3.223   7.401   7.745 -0.1200 -0.1823 -0.3390
  297MOL   H11342145   3.077   7.393   0.075  0.1427 -1.3224  0.7084
  297MOL   C11442146   2.998   7.316   7.613 -0.0357  0.5083  0.0119
  297MOL   C11542147   2.964   7.221   7.499  0.0554 -0.3697 -0.0594
  297MOL   O11642148   3.064   7.235   7.405 -0.2146  0.1876 -0.3916
  297MOL   H11742149   2.906   7.320   7.672 -1.1062  0.7573 -1.6598
  297MOL   H11842150   3.014   7.420   7.582 -0.4796  1.1602  1.8843
  297MOL   H11942151   2.867   7.261   7.472  0.1983 -1.1537 -1.7818
  297MOL   H12042152   2.941   7.119   7.532  3.0224 -0.9045  0.5329
  297MOL   C12142153   3.049   7.164   7.279 -0.0398 -0.4999  0.2236
  297MOL   C12242154   3.026   7.009   7.287  0.1900 -0.2901 -0.1866
  297MOL   O12342155   3.112   6.933   7.198 -0.5122 -0.5440  0.0390
  297MOL   H12442156   2.958   7.211   7.240  1.2481  1.3979 -0.5292
  297MOL   H12542157   3.124   7.189   7.204  1.4387  2.4584  2.6007
  297MOL   H12642158   2.923   6.989   7.256 -0.3500  3.1283 -0.8217
  297MOL   H12742159   3.051   6.993   7.392  0.0206  0.4361 -0.0324
  297MOL   C12842160   3.091   6.792   7.212  0.0373 -0.7908  0.4231
  297MOL   C12942161   3.187   6.710   7.118  0.2634 -0.0331  0.2365
  297MOL   O13042162   3.200   6.582   7.175  0.1351 -0.6194 -0.5949
  297MOL   H13142163   3.122   6.769   7.314 -1.8523  1.0880  1.4401
  297MOL   H13242164   2.988   6.762   7.193 -0.3279  0.9813 -0.5480
  297MOL   H13342165   3.287   6.754   7.116  0.7156 -1.0852 -1.0113
  297MOL   H13442166   3.147   6.715   7.017  1.3800 -0.8014 -0.2551
  297MOL   C13542167   3.082   6.495   7.168 -0.1853 -0.4303 -0.5506
  297MOL   C13642168   3.116   6.356   7.217 -0.5999  0.7175 -1.2974
  297MOL   O13742169   3.117   6.383   7.354 -0.2497  0.2262  0.1940
  297MOL   H13842170   2.997   6.545   7.213  1.0984  0.4922  0.8818
  297MOL   H13942171   3.048   6.486   7.064 -0.5112 -1.1280 -0.3859
  297MOL   H14042172   3.206   6.302   7.186 -0.5179 -1.0696  1.8125
  297MOL   H14142173   3.032   6.288   7.201 -1.0136  0.8058  0.4335
  297MOL   H14242174   3.183   6.450   7.360  1.1581 -0.9747 -1.2522
  298MOL     C142175   7.105   7.374   7.165 -0.7234  0.1688  0.3252
  298MOL     C242176   7.247   7.306   7.137 -0.2293 -0.1885  0.0758
  298MOL     O342177   7.347   7.397   7.105  0.7927  0.4097 -0.5136
  298MOL     H442178   7.056   7.430   7.086 -0.1181  1.3120  0.7368
  298MOL     H542179   7.119   7.443   7.248 -0.3095  1.0260 -0.4490
  298MOL     H642180   7.238   7.232   7.058 -1.0778  1.6108 -1.5491
  298MOL     H742181   7.269   7.243   7.223  0.2506 -0.6822 -0.4049
  298MOL     H842182   7.036   7.294   7.189  0.3953 -1.1685 -0.8095
  298MOL     C942183   7.482   7.344   7.085  0.1785 -0.2394  0.3759
  298MOL    C1042184   7.497   7.279   6.948 -0.2820 -0.5006  0.2517
  298MOL    O1142185   7.437   7.144   6.941  0.8176  0.4557  0.5254
  298MOL    H1242186   7.551   7.428   7.089 -0.2950  0.2024 -0.3895
  298MOL    H1342187   7.504   7.273   7.164  0.2146 -0.6936 -0.0416
  298MOL    H1442188   7.602   7.258   6.928 -0.0097 -0.0050  1.1053
  298MOL    H1542189   7.470   7.350   6.870  2.8215  0.1316 -0.3042
  298MOL    C1642190   7.418   7.086   6.814 -0.7216 -0.2467 -0.8024
  298MOL    C1742191   7.312   7.162   6.722 -0.2585 -0.4095  0.0689
  298MOL    O1842192   7.183   7.137   6.783 -0.2208 -0.2511 -0.2275
  298MOL    H1942193   7.513   7.086   6.762 -0.6209 -2.5289 -0.6418
  298MOL    H2042194   7.385   6.984   6.829 -0.5154 -0.4383 -1.6601
  298MOL    H2142195   7.325   7.109   6.627  1.8828  0.1597  0.0066
  298MOL    H2242196   7.342   7.266   6.708  0.4159 -0.5277  0.6085
  298MOL    C2342197   7.077   7.232   6.741 -0.1230 -1.0206 -0.0903
  298MOL    C2442198   7.113   7.378   6.781 -0.4235  0.1758  0.4862
  298MOL    O2542199   7.152   7.448   6.661 -0.0206  0.2678 -0.0858
  298MOL    H2642200   7.082   7.213   6.634  2.1431 -0.6805 -0.0681
  298MOL    H2742201   6.977   7.209   6.778 -1.0020  3.2532  0.4076
  298MOL    H2842202   7.198   7.379   6.850  0.4806 -1.9632 -0.5490
  298MOL    H2942203   7.034   7.439   6.825 -1.9489 -1.5055  0.1372
  298MOL    C3042204   7.196   7.576   6.702  0.4299 -0.2442 -0.1966
  298MOL    C3142205   7.192   7.680   6.588 -0.5679 -0.7001 -0.1723
  298MOL    O3242206   7.305   7.669   6.501 -0.5426 -0.3591 -0.0141
  298MOL    H3342207   7.144   7.612   6.791  0.9721 -1.5662  0.6786
  298MOL    H3442208   7.300   7.560   6.731  0.7005  0.1663 -0.9373
  298MOL    H3542209   7.173   0.011   6.623  0.7797  0.1422 -1.8601
  298MOL    H3642210   7.106   7.651   6.528  0.4790 -1.4802 -1.3264
  298MOL    C3742211   7.295   7.757   6.391 -0.8274 -0.0346  0.6164
  298MOL    C3842212   7.431   0.002   6.329 -0.1908  0.6766  0.0220
  298MOL    O3942213   7.405   0.087   6.217 -0.3757  0.2609  0.5715
  298MOL    H4042214   7.231   7.709   6.317  1.2372  0.7551 -1.7532
  298MOL    H4142215   7.257   0.083   6.423  0.1574  1.4510 -2.5139
  298MOL    H4242216   7.472   7.675   6.303  0.9502  1.2035 -0.2131
  298MOL    H4342217   7.487   0.047   6.411  0.8317 -0.0018 -0.2913
  298MOL    C4442218   7.522   0.163   6.183  0.1122 -0.1711  0.2774
  298MOL    C4542219   7.499   0.232   6.053 -0.1572 -0.1952  0.9865
  298MOL    O4642220   7.387   0.320   6.070  0.1633 -0.1612 -0.2865
  298MOL    H4742221   7.534   0.245   6.253 -0.5976  1.6539 -1.6785
  298MOL    H4842222   7.610   0.099   6.174  0.3082  0.3060 -1.3379
  298MOL    H4942223   7.473   0.159   5.976 -0.7622  0.0103  0.9905
  298MOL    H5042224   7.584   0.290   6.018 -0.1403 -0.4257  0.6393
  298MOL    C5142225   7.347   0.374   5.944 -0.2698 -0.2232  0.3816
  298MOL    C5242226   7.241   0.484   5.960 -0.0075  0.1176 -0.1975
  298MOL    O5342227   7.248   0.596   5.875 -0.7472  0.3795 -0.0476
  298MOL    H5442228   7.426   0.406   5.876 -1.6173 -1.3132 -1.7432
  298MOL    H5542229   7.302   0.291   5.890 -0.4038  0.2725 -0.2657
  298MOL    H5642230   7.247   0.541   6.053  0.6811  1.6186 -1.1263
  298MOL    H5742231   7.143   0.437   5.963 -0.1694  0.5035  0.6650
  298MOL    C5842232   7.186   0.569   5.752 -0.0622 -0.1671 -0.4589
  298MOL    C5942233   7.252   0.478   5.654 -0.2468 -0.0433  0.3233
  298MOL    O6042234   7.229   0.337   5.681  0.4758 -0.3822  0.0644
  298MOL    H6142235   7.081   0.542   5.756 -0.3152  0.5725 -1.7939
  298MOL    H6242236   7.177   0.669   5.708 -3.6378  0.2757  1.1060
  298MOL    H6342237   7.354   0.507   5.630 -1.0690  0.6617 -2.5362
  298MOL    H6442238   7.211   0.492   5.554 -0.0269 -0.6149  0.1494
  298MOL    C6542239   7.299   0.256   5.594  0.3914  0.0222 -0.4048
  298MOL    C6642240   7.231   0.127   5.581  0.4783 -0.0915  0.0252
  298MOL    O6742241   7.116   0.136   5.501 -0.5042 -0.2832 -0.1384
  298MOL    H6842242   7.330   0.302   5.500  0.0267  0.6315 -0.2276
  298MOL    H6942243   7.393   0.263   5.649 -0.3513 -2.1515  1.2114
  298MOL    H7042244   7.222   0.081   5.680 -1.9232  0.6234  0.1642
  298MOL    H7142245   7.301   0.058   5.534 -3.1789 -2.3736 -2.2775
  298MOL    C7242246   7.042   0.017   5.495  0.8629  0.1914 -0.3199
  298MOL    C7342247   7.095   7.677   5.398  0.2690  0.0620  0.0365
  298MOL    O7442248   7.164   7.590   5.476 -0.0289  0.4823 -0.1760
  298MOL    H7542249   7.024   7.751   5.596  2.1418 -1.7970 -0.7845
  298MOL    H7642250   6.950   0.048   5.445 -0.0607 -0.5777  0.8630
  298MOL    H7742251   7.163   7.726   5.328  1.0875  1.0700  1.5224
  298MOL    H7842252   7.015   7.622   5.349  0.0726  0.4256 -0.0589
  298MOL    C7942253   7.225   7.485   5.398  0.1920  0.2935 -0.5034
  298MOL    C8042254   7.356   7.512   5.329  0.8161 -0.3409  0.1771
  298MOL    O8142255   7.343   7.600   5.215 -0.3327  0.1449  0.2250
  298MOL    H8242256   7.254   7.415   5.476  1.5506 -1.1883 -2.2895
  298MOL    H8342257   7.158   7.428   5.333 -1.6928 -1.0049  2.4502
  298MOL    H8442258   7.396   7.423   5.280  1.5899 -0.7333  1.5061
  298MOL    H8542259   7.421   7.564   5.400  1.1893  2.8635 -2.4212
  298MOL    C8642260   7.468   7.648   5.171 -0.4122  0.3115  0.5822
  298MOL    C8742261   7.448   7.750   5.057  0.0473 -0.1295 -0.9905
  298MOL    O8842262   7.443   0.112   5.112  0.3081  0.2387 -0.1671
  298MOL    H8942263   7.521   7.705   5.247 -0.5443  1.1397  0.0512
  298MOL    H9042264   7.536   7.569   5.139 -0.4822  0.6908 -0.4958
  298MOL    H9142265   7.355   7.734   5.003  0.1334 -0.7490 -0.9626
  298MOL    H9242266   7.532   7.744   4.988  0.7232 -0.4365 -0.1648
  298MOL    C9342267   7.416   0.221   5.022 -0.2885  0.3256 -0.5234
  298MOL    C9442268   7.516   0.332   5.021 -0.6502 -0.1922  0.7245
  298MOL    O9542269   7.649   0.284   5.008 -0.3963 -0.4242  0.7403
  298MOL    H9642270   7.399   0.182   4.922 -0.7117  0.4153 -0.4859
  298MOL    H9742271   7.316   0.256   5.048 -0.2666 -0.7433  1.0873
  298MOL    H9842272   7.518   0.385   5.116 -1.6216  0.1179  0.5759
  298MOL    H9942273   7.493   0.407   4.945  1.4298  2.2569  2.4339
  298MOL   C10042274   7.723   0.255   5.123  0.0648  0.6681  0.1257
  298MOL   C10142275   0.099   0.283   5.100  0.5353 -0.0969  0.1737
  298MOL   O10242276   0.153   0.177   5.011 -0.0147 -0.7700  0.2597
  298MOL   H10342277   7.696   0.321   5.206 -1.2011  1.3053 -0.7928
  298MOL   H10442278   7.710   0.153   5.157 -2.0943  1.6520  2.4242
  298MOL   H10542279   0.143   0.262   5.197 -0.5695  0.3220  0.7778
  298MOL   H10642280   0.109   0.389   5.081  0.8819 -0.2905 -0.7420
  298MOL   C10742281   0.291   0.195   4.980  0.3077  0.1851 -0.4390
  298MOL   C10842282   0.323   0.110   4.859  0.0369 -0.3644  0.1214
  298MOL   O10942283   0.279   0.151   4.736  0.5947  0.1056  0.0155
  298MOL   H11042284   0.303   0.302   4.963 -1.1773  0.2543 -1.1545
  298MOL   H11142285   0.345   0.162   5.068  0.2514  1.3121  0.0319
  298MOL   H11242286   0.278   0.013   4.880 -1.8572 -0.4587 -3.9404
  298MOL   H11342287   0.427   0.088   4.839 -0.3528 -1.7557 -0.3999
  298MOL   C11442288   0.142   0.190   4.721 -1.1246 -0.1024 -0.9791
  298MOL   C11542289   0.103   0.202   4.567  0.3535 -0.5140  0.4821
  298MOL   O11642290   0.066   0.077   4.509 -0.0302 -0.4263  0.2253
  298MOL   H11742291   0.083   0.124   4.784  0.7152 -1.7306 -0.9019
  298MOL   H11842292   0.121   0.286   4.769 -0.2161 -0.4715  0.1788
  298MOL   H11942293   0.191   0.245   4.519  0.2468 -1.8630 -0.9626
  298MOL   H12042294   0.020   0.271   4.556  0.0853 -0.8168  0.5872
  298MOL   C12142295   0.073   0.087   4.368  0.3803 -0.0440  0.1098
  298MOL   C12242296   7.749   7.753   4.300  0.3031 -0.3168 -0.8083
  298MOL   O12342297   7.614   0.028   4.306  0.3546 -0.4799  0.0397
  298MOL   H12442298   0.035   0.184   4.336 -1.2227  0.3340  3.0414
  298MOL   H12542299   0.176   0.082   4.333  0.5818 -1.1420  0.8309
  298MOL   H12642300   7.759   7.659   4.356  1.4582 -1.0226 -2.1627
  298MOL   H12742301   0.004   7.729   4.197 -4.5517 -1.0747 -1.9622
  298MOL   C12842302   7.523   7.701   4.268 -0.3304 -0.9736  0.3142
  298MOL   C12942303   7.375   7.751   4.265 -0.5316  0.2911  0.1437
  298MOL   O13042304   7.356   0.085   4.173  0.4105  0.1635  0.0232
  298MOL   H13142305   7.546   7.671   4.165 -2.1064 -0.2750 -0.3161
  298MOL   H13242306   7.541   7.618   4.335 -1.6882 -0.0796  1.8084
  298MOL   H13342307   7.341   0.004   4.366  1.1748  4.0071 -0.1123
  298MOL   H13442308   7.311   7.666   4.239  1.5180 -1.7292  1.5046
  298MOL   C13542309   7.242   0.163   4.200 -0.3836  0.0470  0.1431
  298MOL   C13642310   7.202   0.240   4.080  0.5548 -0.7033 -0.0731
  298MOL   O13742311   7.114   0.338   4.122 -0.2282  0.0959  0.0255
  298MOL   H13842312   7.154   0.112   4.240  2.2350 -3.2044  2.0081
  298MOL   H13942313   7.268   0.230   4.283  0.7491 -1.5583  1.1219
  298MOL   H14042314   7.165   0.171   4.004 -0.7367  1.6134 -1.5994
  298MOL   H14142315   7.284   0.291   4.031  1.3871 -1.2375  0.7360
  298MOL   H14242316   7.138   0.388   4.199 -0.1386  0.2878 -0.1243
  299MOL     C142317   4.621   4.201   6.990 -0.0542  0.1159  0.2093
  299MOL     C242318   4.495   4.169   7.066  0.2394 -0.1253  0.1636
  299MOL     O342319   4.513   4.065   7.163 -0.4791  0.3570 -0.5519
  299MOL     H442320   4.705   4.198   7.059  0.1767  1.2569 -0.0131
  299MOL     H542321   4.629   4.300   6.947 -0.4835  0.6535  1.3268
  299MOL     H642322   4.425   4.164   6.982 -1.5875  2.4430  1.4631
  299MOL     H742323   4.468   4.259   7.121 -1.1422 -1.3061  1.4411
  299MOL     H842324   4.637   4.127   6.912 -2.5212  0.6607 -0.8708
  299MOL     C942325   4.400   4.025   7.232  0.4485 -0.6793 -0.2592
  299MOL    C1042326   4.446   3.892   7.306 -0.0954  0.2890 -0.0986
  299MOL    O1142327   4.336   3.816   7.347 -0.2100  0.0405  0.0147
  299MOL    H1242328   4.369   4.101   7.304 -1.5017 -2.0340  0.4104
  299MOL    H1342329   4.319   4.010   7.160  1.2361 -0.3678 -1.2218
  299MOL    H1442330   4.522   3.906   7.383  0.2442 -1.1709 -0.1597
  299MOL    H1542331   4.503   3.836   7.232 -1.2972 -1.0516 -0.0204
  299MOL    C1642332   4.386   3.707   7.426 -0.0762  0.3094 -0.5227
  299MOL    C1742333   4.261   3.628   7.451  0.2894  0.1114 -0.2706
  299MOL    O1842334   4.190   3.677   7.565 -0.0629  0.6294  0.3396
  299MOL    H1942335   4.449   3.640   7.367 -0.8814  1.9588 -3.3739
  299MOL    H2042336   4.432   3.738   7.520 -0.1359 -0.3878 -0.2599
  299MOL    H2142337   4.296   3.529   7.480 -1.1600 -0.4903 -0.5170
  299MOL    H2242338   4.200   3.605   7.363  0.8745 -0.7284 -0.4613
  299MOL    C2342339   4.065   3.619   7.584 -0.3433  0.5618 -0.4884
  299MOL    C2442340   3.975   3.703   7.680 -0.1445  0.2435  0.1386
  299MOL    O2542341   3.870   3.772   7.611  0.3288 -0.2627 -0.6739
  299MOL    H2642342   4.020   3.607   7.486 -1.2935  2.0064 -0.2392
  299MOL    H2742343   4.081   3.519   7.625  4.2744  1.7434  0.8864
  299MOL    H2842344   4.031   3.774   7.740 -0.4012 -0.4674  1.2434
  299MOL    H2942345   3.933   3.633   7.753  0.2197 -1.0502 -0.8681
  299MOL    C3042346   3.775   3.833   7.703 -0.8224 -0.5024 -0.7933
  299MOL    C3142347   3.638   3.765   7.686  0.3202  0.6564 -0.8513
  299MOL    O3242348   3.654   3.637   7.743  0.1234  0.2737  0.3440
  299MOL    H3342349   3.806   3.820   0.036  0.7767  0.0524 -1.1801
  299MOL    H3442350   3.773   3.940   7.685 -0.6649  0.1235  2.5786
  299MOL    H3542351   3.612   3.769   7.580 -0.5517  1.4808 -0.6195
  299MOL    H3642352   3.552   3.812   7.735  0.0272 -1.8763  1.1104
  299MOL    C3742353   3.640   3.529   7.656 -0.2166  0.0272 -0.4260
  299MOL    C3842354   3.635   3.397   7.730 -0.3200  1.4968 -0.4088
  299MOL    O3942355   3.623   3.281   7.649 -0.0535  0.1590 -0.4055
  299MOL    H4042356   3.547   3.550   7.603 -0.1986 -1.8877 -1.2729
  299MOL    H4142357   3.723   3.529   7.585 -1.3931 -0.8103 -1.8384
  299MOL    H4242358   3.550   3.407   0.026 -0.8396 -1.2488 -0.5631
  299MOL    H4342359   3.725   3.393   0.020 -0.4521  0.5309 -0.2577
  299MOL    C4442360   3.744   3.241   7.586 -0.4014  0.3990 -0.0454
  299MOL    C4542361   3.835   3.168   7.683 -0.5724 -0.4927 -0.0924
  299MOL    O4642362   3.901   3.255   7.762 -0.6258 -0.1086  0.2347
  299MOL    H4742363   3.716   3.163   7.514 -0.7485 -2.9274  3.5115
  299MOL    H4842364   3.798   3.311   7.523  0.8193 -0.3085  0.2022
  299MOL    H4942365   3.904   3.095   7.640 -0.2713  0.7683 -1.7737
  299MOL    H5042366   3.770   3.106   7.745 -0.0315 -0.9144  0.0662
  299MOL    C5142367   3.961   3.192   0.096  0.1794 -0.2813 -1.2622
  299MOL    C5242368   4.050   3.290   0.175 -0.0417  0.5610  0.2290
  299MOL    O5342369   4.159   3.332   0.090  0.1297 -0.1783 -0.3035
  299MOL    H5442370   3.891   3.152   0.170  1.8687 -1.5415 -0.3055
  299MOL    H5542371   4.017   3.103   0.067 -0.1267 -0.8270 -0.2209
  299MOL    H5642372   4.094   3.248   0.265  1.3711  1.3262 -0.0904
  299MOL    H5742373   4.000   3.374   0.222  2.3355  1.7347  0.7451
  299MOL    C5842374   4.214   3.451   0.136  0.4572 -0.5106 -0.4906
  299MOL    C5942375   4.322   3.494   0.039  0.8232 -0.2572 -0.1514
  299MOL    O6042376   4.431   3.409   0.048  0.4081  0.1626  0.2603
  299MOL    H6142377   4.144   3.534   0.147 -0.1541 -0.9624 -0.9305
  299MOL    H6242378   4.254   3.461   0.237 -0.3857  3.3655 -0.4480
  299MOL    H6342379   4.352   3.597   0.053  4.2941 -1.4656  2.0729
  299MOL    H6442380   4.280   3.483   7.711  1.6302 -0.4696 -0.4738
  299MOL    C6542381   4.515   3.419   7.703 -0.2886 -0.3805  0.7436
  299MOL    C6642382   4.642   3.335   7.740  0.6436 -0.3466 -0.8075
  299MOL    O6742383   4.758   3.406   7.705  0.1330 -0.7482 -0.4251
  299MOL    H6842384   4.467   3.380   7.614 -0.0644  1.4161 -0.1867
  299MOL    H6942385   4.552   3.520   7.681  1.4879 -1.4435 -1.4019
  299MOL    H7042386   4.641   3.242   7.684  0.2120 -0.0657 -1.2732
  299MOL    H7142387   4.639   3.323   0.077 -0.9747 -0.7980 -0.8948
  299MOL    C7242388   4.868   3.367   0.001 -0.0353  0.7619 -1.0640
  299MOL    C7342389   4.996   3.447   7.740 -0.3070  0.0844  0.3284
  299MOL    O7442390   5.056   3.397   7.622 -0.0091 -0.1508 -0.7273
  299MOL    H7542391   4.846   3.389   0.105  1.8931 -0.3197 -0.4032
  299MOL    H7642392   4.893   3.261   7.771  0.5369  0.8472  1.2525
  299MOL    H7742393   5.068   3.464   0.048 -1.8123  3.1564  1.1136
  299MOL    H7842394   4.954   3.545   7.719 -4.1787 -1.4687  0.3342
  299MOL    C7942395   5.156   3.481   7.557  0.1604  0.0543  0.0058
  299MOL    C8042396   5.196   3.432   7.414 -0.0746  0.2715  0.3374
  299MOL    O8142397   5.277   3.323   7.424  0.0955 -0.1723 -0.0838
  299MOL    H8242398   5.108   3.577   7.540  0.2091  0.3601  1.5290
  299MOL    H8342399   5.242   3.497   7.621  1.5017 -2.5977 -1.0345
  299MOL    H8442400   5.245   3.512   7.359  0.9466 -2.3108 -2.6675
  299MOL    H8542401   5.110   3.415   7.349  0.3009 -0.9622  0.1427
  299MOL    C8642402   5.315   3.278   7.293 -0.0268 -0.1352 -0.0605
  299MOL    C8742403   5.388   3.145   7.301 -0.1555  0.1140  1.0205
  299MOL    O8842404   5.514   3.157   7.371  0.2260  0.1407 -0.3620
  299MOL    H8942405   5.231   3.256   7.228  1.0420 -1.9184 -0.8685
  299MOL    H9042406   5.377   3.355   7.247  0.2027  0.0689  0.5850
  299MOL    H9142407   5.412   3.123   7.197 -0.0436  0.2948  1.0096
  299MOL    H9242408   5.336   3.052   7.325  0.0674 -0.6314 -1.2979
  299MOL    C9342409   5.577   3.039   7.354  0.3032  0.0355 -0.0034
  299MOL    C9442410   5.703   3.049   7.448 -0.0051  0.1738  0.5678
  299MOL    O9542411   5.772   2.929   7.428  0.1802 -0.6625  0.9667
  299MOL    H9642412   5.506   2.965   7.390 -0.7225  0.5623 -0.9022
  299MOL    H9742413   5.611   3.022   7.251 -0.0746 -0.8939  0.0138
  299MOL    H9842414   5.663   3.055   7.550 -1.9337 -0.5109 -0.1244
  299MOL    H9942415   5.766   3.137   7.433 -1.0144  0.8751  0.4432
  299MOL   C10042416   5.904   2.931   7.468  0.1095 -0.0514 -0.2922
  299MOL   C10142417   5.980   2.978   7.348 -0.3458 -0.2739  0.0915
  299MOL   O10242418   5.968   3.121   7.345  0.1021  0.1702 -0.7757
  299MOL   H10342419   5.921   2.993   7.556  2.3843 -1.8167  0.5632
  299MOL   H10442420   5.932   2.828   7.490 -1.2944 -0.3954 -0.0515
  299MOL   H10542421   5.950   2.932   7.255 -0.5097  0.6288 -0.3101
  299MOL   H10642422   6.088   2.964   7.349 -0.4963 -1.4430  1.0559
  299MOL   C10742423   6.063   3.186   7.267 -0.3012  0.4465  0.1042
  299MOL   C10842424   6.005   3.329   7.228  0.1933 -0.4048 -0.3576
  299MOL   O10942425   6.122   3.404   7.191  0.0889  0.1046  0.6009
  299MOL   H11042426   6.153   3.178   7.328  0.2785  1.1037 -0.6519
  299MOL   H11142427   6.064   3.152   7.163 -0.6770 -1.6634  0.7826
  299MOL   H11242428   5.966   3.375   7.318  1.2303 -0.1265 -0.0387
  299MOL   H11342429   5.922   3.337   7.158  1.8399 -1.2572 -2.4637
  299MOL   C11442430   6.117   3.463   7.062  0.2279  0.5049  0.8338
  299MOL   C11542431   6.250   3.539   7.043 -0.2040 -0.4997  0.2654
  299MOL   O11642432   6.344   3.459   6.986  0.2744  0.3538 -0.5403
  299MOL   H11742433   6.097   3.384   6.989 -2.0171  4.0643 -2.6013
  299MOL   H11842434   6.035   3.534   7.062  0.5123  0.8733 -1.5640
  299MOL   H11942435   6.291   3.580   7.135 -0.8188 -0.9959  0.7720
  299MOL   H12042436   6.238   3.621   6.972 -1.6298 -2.4151 -1.7923
  299MOL   C12142437   6.477   3.514   6.978 -0.0336 -0.3512 -0.4615
  299MOL   C12242438   6.589   3.421   6.920 -0.2499 -0.1726  1.2588
  299MOL   O12342439   6.582   3.403   6.776  0.1056 -0.1442  0.3106
  299MOL   H12442440   6.480   3.610   6.925  2.1669  0.6568  1.3918
  299MOL   H12542441   6.507   3.548   7.077  3.5606 -1.8355 -0.9493
  299MOL   H12642442   6.557   3.323   6.956 -0.5136 -0.8475 -0.6891
  299MOL   H12742443   6.690   3.438   6.955  0.8681 -0.6919 -1.5204
  299MOL   C12842444   6.664   3.295   6.735 -0.1290 -0.0772 -1.0885
  299MOL   C12942445   6.729   3.331   6.596  0.2440  0.6541 -0.0796
  299MOL   O13042446   6.629   3.310   6.494 -0.2586  0.2422  0.0062
  299MOL   H13142447   6.751   3.280   6.798 -0.0455 -0.9044 -1.3990
  299MOL   H13242448   6.602   3.207   6.718 -0.9197  0.5441 -1.4715
  299MOL   H13342449   6.816   3.269   6.574 -1.6779 -1.1131 -2.9481
  299MOL   H13442450   6.765   3.434   6.599  0.1621  0.6993 -0.5218
  299MOL   C13542451   6.685   3.305   6.364 -0.9780  0.2582  0.1089
  299MOL   C13642452   6.575   3.291   6.263  0.0805 -0.0430 -0.3577
  299MOL   O13742453   6.512   3.417   6.277  0.2730 -0.2241  0.2761
  299MOL   H13842454   6.761   3.382   6.350 -2.9073  2.3860  0.9863
  299MOL   H13942455   6.742   3.213   6.350  0.3743  1.2311 -1.0705
  299MOL   H14042456   6.504   3.212   6.288 -0.4419 -0.3768 -2.7414
  299MOL   H14142457   6.598   3.281   6.156 -0.0637  0.2622 -0.4184
  299MOL   H14242458   6.526   3.443   6.366 -1.2734 -0.0937  0.4967
  300MOL     C142459   1.620   2.831   4.936 -0.3713 -0.0700 -0.0128
  300MOL     C242460   1.746   2.899   4.879  0.5966 -0.1377  0.8624
  300MOL     O342461   1.822   2.811   4.805  0.7444 -0.0213 -0.4342
  300MOL     H442462   1.644   2.763   5.019 -1.7008 -1.3964 -0.6806
  300MOL     H542463   1.569   2.775   4.857 -1.2280  0.1320  0.3854
  300MOL     H642464   1.802   2.947   4.959  2.2997  1.9642 -1.5169
  300MOL     H742465   1.702   2.974   4.814  0.2852 -0.2019  0.9977
  300MOL     H842466   1.563   2.913   4.978 -0.6178 -0.4828  0.4644
  300MOL     C942467   1.950   2.862   4.773 -0.5486  0.5781  0.6835
  300MOL    C1042468   2.039   2.735   4.729  0.0343 -0.1003  0.7651
  300MOL    O1142469   2.072   2.638   4.834  0.2212  0.2631  0.3868
  300MOL    H1242470   1.952   2.940   4.697 -1.6734 -0.7540 -0.7444
  300MOL    H1342471   2.010   2.903   4.855 -0.3372 -1.3469  1.5384
  300MOL    H1442472   2.124   2.781   4.678 -1.6505  2.0252 -0.2472
  300MOL    H1542473   1.981   2.688   4.650 -0.4652 -0.7725  1.5242
  300MOL    C1642474   2.164   2.550   4.777 -0.4107  0.2803 -0.1179
  300MOL    C1742475   2.188   2.426   4.862 -0.0765 -0.2293  0.3881
  300MOL    O1842476   2.257   2.469   4.982  0.3515  0.2127  0.2512
  300MOL    H1942477   2.132   2.525   4.676 -1.4944  2.4326 -0.3360
  300MOL    H2042478   2.254   2.609   4.760  0.7034 -1.0057  1.2368
  300MOL    H2142479   2.246   2.354   4.803  1.2390 -1.1236  2.7099
  300MOL    H2242480   2.094   2.375   4.880  0.4223 -1.3446 -0.0493
  300MOL    C2342481   2.252   2.365   5.088 -0.1704 -0.8968 -0.3485
  300MOL    C2442482   2.345   2.390   5.204 -0.2031 -0.7146 -0.4589
  300MOL    O2542483   2.481   2.397   5.160 -0.2975 -0.1213  0.3566
  300MOL    H2642484   2.152   2.370   5.132  0.4156  0.8928  0.8071
  300MOL    H2742485   2.272   2.267   5.044 -0.0032 -1.8140  1.7095
  300MOL    H2842486   2.335   2.313   5.281 -3.0325  1.0919  1.0558
  300MOL    H2942487   2.323   2.488   5.246 -0.7412 -1.4295  0.9809
  300MOL    C3042488   2.571   2.299   5.201  0.2322 -0.1774 -0.7601
  300MOL    C3142489   2.630   2.343   5.336  0.4426 -0.3987  0.1976
  300MOL    O3242490   2.532   2.331   5.444  0.1142  0.3548  0.5397
  300MOL    H3342491   2.522   2.202   5.203 -2.0618  0.9523  1.7769
  300MOL    H3442492   2.640   2.289   5.118  1.2234 -1.5484  0.2045
  300MOL    H3542493   2.676   2.442   5.334 -0.3287 -0.0492 -0.6055
  300MOL    H3642494   2.714   2.282   5.368  0.3832 -0.3299  0.4866
  300MOL    C3742495   2.558   2.407   5.557  0.1623 -0.5077 -0.0619
  300MOL    C3842496   2.428   2.452   5.617  0.0932 -0.8747 -0.9875
  300MOL    O3942497   2.435   2.565   5.707 -0.0589 -0.5876  0.7124
  300MOL    H4042498   2.616   2.347   5.627 -0.9772  0.5820  1.8875
  300MOL    H4142499   2.616   2.496   5.531 -2.1267  1.3170  0.8320
  300MOL    H4242500   2.384   2.365   5.667  0.2314 -1.3025 -1.6011
  300MOL    H4342501   2.368   2.485   5.532 -0.7364 -1.6533 -0.7196
  300MOL    C4442502   2.516   2.552   5.823  0.3445  0.5220  0.2690
  300MOL    C4542503   2.456   2.459   5.939  0.0120  0.0420 -0.1126
  300MOL    O4642504   2.475   2.324   5.899  0.3701 -0.3541 -1.1022
  300MOL    H4742505   2.618   2.531   5.792  0.6456 -2.6052  3.1632
  300MOL    H4842506   2.526   2.653   5.864  2.5150  0.0737  0.8988
  300MOL    H4942507   2.351   2.488   5.943  0.1124  0.5393 -0.9370
  300MOL    H5042508   2.501   2.482   6.035  0.9413  1.2750 -0.8175
  300MOL    C5142509   2.434   2.240   6.007  0.3592  0.1794  0.4649
  300MOL    C5242510   2.434   2.093   5.959 -0.3125  0.0687  0.9424
  300MOL    O5342511   2.329   2.081   5.865 -0.2983 -0.2817  0.3940
  300MOL    H5442512   2.505   2.260   6.088 -0.1058  0.2191  0.8689
  300MOL    H5542513   2.332   2.270   6.032  0.5908  1.3915  0.0013
  300MOL    H5642514   2.423   2.034   6.050 -0.3450 -2.9591 -0.9562
  300MOL    H5742515   2.534   2.077   5.920 -0.9346  0.0357 -0.6627
  300MOL    C5842516   2.348   1.967   5.777 -0.7280 -0.0072 -0.3965
  300MOL    C5942517   2.437   2.004   5.659 -0.1893 -0.1465 -0.2038
  300MOL    O6042518   2.414   1.915   5.551 -0.3150  0.9606  0.3429
  300MOL    H6142519   2.379   1.877   5.830  1.6076  0.9167 -0.1112
  300MOL    H6242520   2.247   1.948   5.740 -1.1697  0.7728  0.3772
  300MOL    H6342521   2.542   2.025   5.679  0.2048 -1.2480 -1.0617
  300MOL    H6442522   2.403   2.102   5.626 -1.2553 -0.3478  0.2647
  300MOL    C6542523   2.485   1.941   5.429 -0.2868 -0.1761 -0.1383
  300MOL    C6642524   2.463   1.818   5.341 -0.0198  0.0112 -0.2824
  300MOL    O6742525   2.552   1.718   5.392  0.2445 -0.4462 -0.0252
  300MOL    H6842526   2.441   2.035   5.397 -0.1434 -0.2227 -0.4672
  300MOL    H6942527   2.590   1.968   5.443 -0.2545  0.4531 -1.5479
  300MOL    H7042528   2.498   1.838   5.240 -1.0494  1.1456 -0.4310
  300MOL    H7142529   2.360   1.783   5.341  0.0808 -0.2877  0.2043
  300MOL    C7242530   2.572   1.613   5.300 -0.0059  1.2199  1.0710
  300MOL    C7342531   2.656   1.498   5.360 -0.2661 -0.2424 -0.0236
  300MOL    O7442532   2.788   1.532   5.341  0.5214  0.3693  0.3585
  300MOL    H7542533   2.475   1.572   5.268  1.5487  0.1180 -2.5812
  300MOL    H7642534   2.610   1.634   5.200  1.6283 -0.6341  1.2731
  300MOL    H7742535   2.631   1.409   5.302 -2.1060 -0.0873  0.5126
  300MOL    H7842536   2.629   1.482   5.464 -3.2922 -1.3790 -0.9556
  300MOL    C7942537   2.885   1.441   5.389 -0.3093  0.3471  0.6642
  300MOL    C8042538   3.029   1.501   5.373 -0.1767 -0.6143  0.1393
  300MOL    O8142539   3.078   1.470   5.244  0.0020 -0.2787  0.4347
  300MOL    H8242540   2.875   1.424   5.496  1.6582 -2.3307  0.4820
  300MOL    H8342541   2.880   1.338   5.354 -1.2849  1.2112 -1.8346
  300MOL    H8442542   3.101   1.459   5.443  1.7960  1.8022 -0.3705
  300MOL    H8542543   3.022   1.608   5.389  2.0956 -0.5801  1.0916
  300MOL    C8642544   3.223   1.466   5.224  0.0827  0.0982 -0.1240
  300MOL    C8742545   3.249   1.513   5.083 -0.1000  0.3700  0.1119
  300MOL    O8842546   3.254   1.407   4.986  0.2427 -0.4987 -0.6042
  300MOL    H8942547   3.267   1.533   5.298 -0.7921  0.2435  0.2834
  300MOL    H9042548   3.264   1.371   5.256 -2.1251 -0.4075  1.3777
  300MOL    H9142549   3.346   1.563   5.085  0.0137  0.1710 -0.4828
  300MOL    H9242550   3.181   1.595   5.060 -1.0214 -0.0845  1.1644
  300MOL    C9342551   3.258   1.449   4.850  0.1727  0.5385  0.1690
  300MOL    C9442552   3.271   1.331   4.760  0.2670 -0.8737  0.2838
  300MOL    O9542553   3.399   1.284   4.767  0.1352  0.6288  0.0794
  300MOL    H9642554   3.168   1.507   4.832 -0.4061 -0.9698 -1.9274
  300MOL    H9742555   3.344   1.513   4.828 -0.6751  1.2932 -1.0349
  300MOL    H9842556   3.239   1.349   4.658 -2.0314 -1.9691  0.7768
  300MOL    H9942557   3.211   1.248   4.799 -1.0959  0.8264  1.8796
  300MOL   C10042558   3.430   1.181   4.670  0.2002 -0.0380 -0.2565
  300MOL   C10142559   3.536   1.089   4.725  0.4635 -0.3693  0.0068
  300MOL   O10242560   3.671   1.144   4.705  0.3668  0.5148  0.4616
  300MOL   H10342561   3.340   1.128   4.636  1.1984 -0.9323 -1.5683
  300MOL   H10442562   3.469   1.231   4.581  1.5919 -0.4428  0.1129
  300MOL   H10542563   3.531   0.992   4.677  0.8024 -0.8868  1.0181
  300MOL   H10642564   3.516   1.067   4.829  2.1326 -1.4265  0.1159
  300MOL   C10742565   3.758   1.044   4.745  0.7734  0.1836  0.6926
  300MOL   C10842566   3.908   1.064   4.711  0.0413 -0.2705 -0.7605
  300MOL   O10942567   3.917   1.060   4.572  0.3669  0.7729  0.4588
  300MOL   H11042568   3.747   1.024   4.852  0.7838  0.1584  0.6890
  300MOL   H11142569   3.727   0.950   4.699  2.1946  0.3244 -0.5673
  300MOL   H11242570   3.976   0.992   4.756  0.7055  0.4317 -0.6168
  300MOL   H11342571   3.950   1.155   4.754  0.0924 -0.4161 -0.4997
  300MOL   C11442572   4.045   1.048   4.522 -0.3639  0.3299 -0.1430
  300MOL   C11542573   4.061   0.985   4.379 -0.4839  0.1889  0.5695
  300MOL   O11642574   4.038   0.844   4.367 -0.4476 -0.1076  0.1355
  300MOL   H11742575   4.098   1.143   4.532 -0.0455  0.1986 -0.5691
  300MOL   H11842576   4.115   0.993   4.585 -0.5993  1.0483  0.7430
  300MOL   H11942577   4.165   0.994   4.351 -0.3551 -2.5913 -0.0459
  300MOL   H12042578   4.009   1.046   4.306  1.1198  0.9599  0.0649
  300MOL   C12142579   4.033   0.802   4.236 -0.0437  0.1510  0.3398
  300MOL   C12242580   3.969   0.665   4.226  0.5875  0.4194 -0.0650
  300MOL   O12342581   4.073   0.568   4.249 -0.3004 -0.0776  0.3182
  300MOL   H12442582   3.987   0.876   4.170  3.8014  0.1549 -2.5200
  300MOL   H12542583   4.128   0.802   4.183  0.6972 -0.8059  1.6483
  300MOL   H12642584   3.926   0.641   4.128 -0.0789  0.5179  0.1977
  300MOL   H12742585   3.889   0.662   4.300  0.6838  3.6786  0.2435
  300MOL   C12842586   4.038   0.436   4.228  0.3071  0.2674 -0.3074
  300MOL   C12942587   4.152   0.340   4.268  0.0303  0.0311 -0.3041
  300MOL   O13042588   4.268   0.348   4.181  0.7426  0.5810 -0.1457
  300MOL   H13142589   3.962   0.414   4.303  2.3565 -1.5046  1.3291
  300MOL   H13242590   4.016   0.416   4.123 -0.0779 -0.1825 -0.1388
  300MOL   H13342591   4.118   0.238   4.284 -0.5504  0.2315 -0.2746
  300MOL   H13442592   4.201   0.383   4.355 -1.6665 -1.6993  1.5376
  300MOL   C13542593   4.376   0.269   4.227 -0.3494 -0.0903 -0.4573
  300MOL   C13642594   4.505   0.323   4.165  0.1657 -0.8460 -0.9415
  300MOL   O13742595   4.555   0.432   4.244  0.0129  0.0775 -0.0112
  300MOL   H13842596   4.387   0.265   4.336  0.9206  3.9911 -0.3674
  300MOL   H13942597   4.359   0.165   4.198  0.5202 -0.8921  1.7561
  300MOL   H14042598   4.500   0.345   4.058 -0.3782  3.4224 -0.1216
  300MOL   H14142599   4.588   0.252   4.169  0.5494 -0.3968 -0.8292
  300MOL   H14242600   4.571   0.510   4.193 -2.5787  0.9571  0.4106
  301MOL     C142601   4.047   1.868   2.288  0.0293 -0.0416 -0.2801
  301MOL     C242602   4.100   2.008   2.263 -0.7669  0.2173  0.6977
  301MOL     O342603   4.221   2.010   2.183  0.0644  0.3749 -0.0775
  301MOL     H442604   4.124   1.797   2.318  1.8505  1.8728 -0.3475
  301MOL     H542605   4.007   1.841   2.190  2.5982  1.6027 -1.8306
  301MOL     H642606   4.124   2.052   2.360 -1.2847 -0.6695  1.2364
  301MOL     H742607   4.024   2.078   2.228  0.5382  2.3758  2.0371
  301MOL     H842608   3.973   1.851   2.367  1.9463 -2.2231  1.1150
  301MOL     C942609   4.262   2.148   2.158 -0.8113  0.6320  0.1102
  301MOL    C1042610   4.232   2.188   2.017  0.6363 -0.1868 -0.0176
  301MOL    O1142611   4.248   2.326   1.993 -0.1382 -0.5453 -0.1503
  301MOL    H1242612   4.210   2.214   2.227 -1.6360  0.6229 -0.4949
  301MOL    H1342613   4.366   2.149   2.192 -0.4688  0.6624 -0.9336
  301MOL    H1442614   4.131   2.162   1.985 -0.2829  1.6796  1.2487
  301MOL    H1542615   4.296   2.136   1.946  0.4840 -2.3166  1.3853
  301MOL    C1642616   4.269   2.358   1.856 -0.3965 -0.5889 -0.1696
  301MOL    C1742617   4.262   2.508   1.842 -0.3743  0.2468  0.2725
  301MOL    O1842618   4.121   2.558   1.818 -0.0616 -0.0500  0.7148
  301MOL    H1942619   4.371   2.325   1.838  0.3353  0.3695  2.0415
  301MOL    H2042620   4.209   2.310   1.779 -0.3110 -0.6971 -0.1698
  301MOL    H2142621   4.319   2.534   1.752 -1.0564  4.2184  0.8871
  301MOL    H2242622   4.321   2.541   1.927  0.8981  1.5561 -1.0742
  301MOL    C2342623   4.110   2.700   1.814  0.3144 -0.1994  0.4114
  301MOL    C2442624   3.961   2.727   1.823 -0.9292  0.0613  0.4901
  301MOL    O2542625   3.919   2.859   1.786  0.6209  0.1777  0.3612
  301MOL    H2642626   4.162   2.754   1.893  2.1628  0.1442 -1.0010
  301MOL    H2742627   4.150   2.718   1.714 -0.0343  0.3454  0.3693
  301MOL    H2842628   3.931   2.701   1.925 -1.3331  1.7884  0.8311
  301MOL    H2942629   3.915   2.653   1.759 -1.7785  0.5149  0.5712
  301MOL    C3042630   3.778   2.890   1.794 -0.3511  0.0621 -0.3787
  301MOL    C3142631   3.759   3.032   1.764  0.2613  0.7930  0.0344
  301MOL    O3242632   3.799   3.102   1.871  0.2892 -0.6132 -0.2146
  301MOL    H3342633   3.728   2.821   1.726  3.0810 -0.0474 -2.9421
  301MOL    H3442634   3.728   2.870   1.889  0.3893 -3.2171 -0.6249
  301MOL    H3542635   3.651   3.046   1.755  0.1058  0.2662  0.9360
  301MOL    H3642636   3.817   3.051   1.674 -0.3966  2.4996 -0.0518
  301MOL    C3742637   3.807   3.242   1.855  0.1499  0.3854  0.1398
  301MOL    C3842638   3.888   3.297   1.972 -0.1566  0.0578 -0.0639
  301MOL    O3942639   3.803   3.344   2.071 -0.2446 -0.4751  0.4537
  301MOL    H4042640   3.859   3.262   1.761  0.7203 -0.0993  0.3450
  301MOL    H4142641   3.704   3.277   1.861  0.1458  0.4489 -0.2631
  301MOL    H4242642   3.947   3.377   1.928  1.4864 -0.5412  1.0086
  301MOL    H4342643   3.964   3.236   2.020  0.3552  0.8908  0.1784
  301MOL    C4442644   3.865   3.409   2.184 -0.0300  0.1277  0.6247
  301MOL    C4542645   3.785   3.367   2.295 -0.4793  0.0567 -0.2053
  301MOL    O4642646   3.650   3.412   2.304 -0.1717  0.0561  0.4194
  301MOL    H4742647   3.966   3.367   2.194 -0.2451 -0.7132 -0.5814
  301MOL    H4842648   3.876   3.517   2.180  0.1371  0.1034  0.3626
  301MOL    H4942649   3.846   3.402   2.378  0.9021 -1.9280 -0.3484
  301MOL    H5042650   3.789   3.258   2.302  1.8145  0.1526  0.5242
  301MOL    C5142651   3.589   3.336   2.407  0.2873  0.4426 -0.4082
  301MOL    C5242652   3.463   3.404   2.446  0.0095  0.4952  0.2553
  301MOL    O5342653   3.410   3.336   2.560  0.4267  0.3385 -0.0356
  301MOL    H5442654   3.585   3.230   2.384 -0.5422  0.0916  1.3224
  301MOL    H5542655   3.651   3.335   2.497 -3.4729  1.6117  2.3106
  301MOL    H5642656   3.399   3.392   2.358 -0.5317  1.6457  0.4837
  301MOL    H5742657   3.484   3.508   2.468  1.7509  0.2282 -0.0918
  301MOL    C5842658   3.295   3.398   2.613  0.0960 -0.0411  0.1376
  301MOL    C5942659   3.283   3.390   2.757 -0.1023  0.2902  0.3684
  301MOL    O6042660   3.246   3.255   2.780  0.1154 -0.5577 -0.7089
  301MOL    H6142661   3.299   3.504   2.586 -1.3300  0.1696  0.6961
  301MOL    H6242662   3.208   3.351   2.569  0.7150 -1.3539  0.2824
  301MOL    H6342663   3.208   3.465   2.784  0.5891  1.5046 -1.0277
  301MOL    H6442664   3.381   3.407   2.802  0.3280  1.5086 -0.9797
  301MOL    C6542665   3.173   3.245   2.906  0.0596 -0.4090 -0.3634
  301MOL    C6642666   3.117   3.102   2.906 -0.5090 -0.3334 -0.2530
  301MOL    O6742667   3.018   3.104   3.002  0.2959  0.0856 -0.7300
  301MOL    H6842668   3.227   3.278   2.995  2.4618  0.3406 -2.0711
  301MOL    H6942669   3.095   3.321   2.897  0.1020 -0.0606  1.9205
  301MOL    H7042670   3.197   3.030   2.926  0.9199  1.0880 -0.6797
  301MOL    H7142671   3.074   3.079   2.808  0.3465 -0.2904 -0.6522
  301MOL    C7242672   2.976   2.973   3.035  0.1465  0.1765 -0.2181
  301MOL    C7342673   3.052   2.892   3.139  0.5558  0.0317 -0.1493
  301MOL    O7442674   3.181   2.860   3.092  0.4378 -0.2968  0.3318
  301MOL    H7542675   2.870   2.982   3.058  0.6361  2.0518  1.4658
  301MOL    H7642676   2.964   2.906   2.950 -1.2496  0.4756 -0.2664
  301MOL    H7742677   3.002   2.797   3.158  0.3930 -0.0686 -1.0612
  301MOL    H7842678   3.053   2.950   3.231 -0.3434  1.5667 -1.0819
  301MOL    C7942679   3.273   2.837   3.195 -0.1980  0.6250 -0.0802
  301MOL    C8042680   3.407   2.808   3.123  0.4547  0.2155 -0.1736
  301MOL    O8142681   3.405   2.680   3.063 -0.1533 -0.2937  0.0141
  301MOL    H8242682   3.291   2.926   3.254  0.1654 -0.7510  1.9126
  301MOL    H8342683   3.245   2.757   3.263  1.7019 -0.0276 -0.0396
  301MOL    H8442684   3.479   2.822   3.203 -0.1753  1.6294  0.1637
  301MOL    H8542685   3.428   2.886   3.049 -1.0249 -0.9868 -1.8885
  301MOL    C8642686   3.511   2.592   3.092 -0.5992 -0.6621  0.2173
  301MOL    C8742687   3.485   2.451   3.027 -0.1251 -0.0784  0.2083
  301MOL    O8842688   3.551   2.437   2.900 -0.2017 -0.1667 -0.4628
  301MOL    H8942689   3.606   2.635   3.059 -1.2713  1.4371  0.9098
  301MOL    H9042690   3.513   2.571   3.199  1.1249 -2.1195 -0.0746
  301MOL    H9142691   3.379   2.427   3.018 -0.3860  0.1062  2.3533
  301MOL    H9242692   3.524   2.371   3.091 -1.7665 -0.8032  0.3230
  301MOL    C9342693   3.504   2.526   2.800 -0.3145 -0.2375 -0.5881
  301MOL    C9442694   3.457   2.444   2.683  0.0761 -0.0832  0.4200
  301MOL    O9542695   3.501   2.504   2.562  0.1163  0.7381 -0.2856
  301MOL    H9642696   3.424   2.593   2.830 -0.0612  0.2366 -0.9513
  301MOL    H9742697   3.580   2.598   2.770  0.4156 -0.2141  1.2543
  301MOL    H9842698   3.349   2.433   2.689  0.3174 -1.7920  2.5151
  301MOL    H9942699   3.490   2.340   2.694 -0.0059 -0.2009 -0.4251
  301MOL   C10042700   3.479   2.421   2.444  0.4046  0.0837 -0.7505
  301MOL   C10142701   3.535   2.471   2.312  0.1090  0.1451 -0.2672
  301MOL   O10242702   3.681   2.454   2.304 -0.2832  0.2055  0.0042
  301MOL   H10342703   3.515   2.320   2.463  3.6620  1.7821  2.6806
  301MOL   H10442704   3.372   2.403   2.450  0.1583  1.6308 -0.2365
  301MOL   H10542705   3.520   2.578   2.294 -1.2453  0.0003 -0.0288
  301MOL   H10642706   3.484   2.426   2.227 -0.3456  1.6368 -0.8121
  301MOL   C10742707   3.728   2.517   2.189 -0.1765 -0.7225 -0.3908
  301MOL   C10842708   3.871   2.495   2.161  0.5356 -0.9207 -0.2311
  301MOL   O10942709   3.958   2.592   2.230  0.5023  0.5995  0.2485
  301MOL   H11042710   3.663   2.479   2.110  0.1320 -1.1370 -0.4484
  301MOL   H11142711   3.708   2.624   2.193 -1.1693 -0.8925 -0.5772
  301MOL   H11242712   3.885   2.502   2.053 -0.8844  0.3092 -0.3491
  301MOL   H11342713   3.892   2.390   2.182 -0.5879 -1.5489 -2.0585
  301MOL   C11442714   4.099   2.564   2.227 -0.3185  0.2354  0.1879
  301MOL   C11542715   4.168   2.678   2.304  0.2921 -0.3522  0.1280
  301MOL   O11642716   4.190   2.797   2.234 -0.3011 -0.3961  0.3872
  301MOL   H11742717   4.122   2.467   2.269  1.7424  0.9452  0.7858
  301MOL   H11842718   4.140   2.559   2.126  0.0622 -2.1414  0.4386
  301MOL   H11942719   4.263   2.636   2.339  1.7070  1.8255 -0.9504
  301MOL   H12042720   4.105   2.697   2.391 -2.1559  0.4930 -1.7638
  301MOL   C12142721   4.087   2.862   2.171  0.2089  0.4389  0.5391
  301MOL   C12242722   4.125   2.993   2.100 -0.5126  0.0921  0.0253
  301MOL   O12342723   4.152   3.093   2.192 -0.2546  0.8657  0.3288
  301MOL   H12442724   4.035   2.789   2.110 -0.3192  0.5201  0.8941
  301MOL   H12542725   4.004   2.888   2.236  0.3242  1.8062  0.1719
  301MOL   H12642726   4.039   3.019   2.039  1.0848  0.1590 -2.2506
  301MOL   H12742727   4.204   2.969   2.029 -0.4700 -0.4625  0.2578
  301MOL   C12842728   4.286   3.133   2.179 -0.1396 -0.3520  0.2261
  301MOL   C12942729   4.318   3.233   2.291 -0.2236  0.4837  0.0501
  301MOL   O13042730   4.361   3.355   2.247 -0.3345 -0.0971 -0.4600
  301MOL   H13142731   4.352   3.046   2.187 -0.8400 -0.8021  1.1779
  301MOL   H13242732   4.316   3.177   2.084 -2.1016 -2.3272 -1.3533
  301MOL   H13342733   4.406   3.191   2.340 -1.6668 -1.2973  1.1644
  301MOL   H13442734   4.248   3.245   2.373 -0.3335  0.9473 -0.1146
  301MOL   C13542735   4.251   3.447   2.259 -0.4485  0.4292  0.4554
  301MOL   C13642736   4.287   3.596   2.224  0.0048  0.0412  0.0743
  301MOL   O13742737   4.311   3.671   2.345  0.2630  0.9794 -0.0384
  301MOL   H13842738   4.181   3.410   2.184  1.7722 -0.5281 -1.1936
  301MOL   H13942739   4.213   3.453   2.361  1.0266  1.2775  0.9724
  301MOL   H14042740   4.209   3.645   2.165  0.8992  1.2111 -0.1505
  301MOL   H14142741   4.381   3.605   2.170  1.7754 -0.0685  2.9907
  301MOL   H14242742   4.378   3.631   2.397  0.8965 -1.1428 -2.3806
  302MOL     C142743   1.475   3.452   1.748 -0.3397  0.2167 -0.2524
  302MOL     C242744   1.458   3.317   1.678  0.2960 -0.6198 -0.2584
  302MOL     O342745   1.583   3.270   1.624  0.0509 -0.2380 -0.2449
  302MOL     H442746   1.535   3.448   1.838 -0.5783  0.0917 -0.0967
  302MOL     H542747   1.383   3.510   1.761 -0.9325 -1.1792  2.0922
  302MOL     H642748   1.393   3.329   1.592  1.7868  0.5815 -1.2418
  302MOL     H742749   1.420   3.245   1.751  2.9342 -1.9055 -0.0844
  302MOL     H842750   1.542   3.505   1.680 -1.2603  1.7945  0.0488
  302MOL     C942751   1.562   3.145   1.563 -0.7041  0.1430 -0.7302
  302MOL    C1042752   1.704   3.095   1.527  0.3114 -0.5244 -0.4170
  302MOL    O1142753   1.746   3.157   1.403  0.1434 -0.0921  0.3233
  302MOL    H1242754   1.499   3.075   1.619  0.1961  0.8328  1.2143
  302MOL    H1342755   1.501   3.161   1.475  0.2165 -0.5045 -1.4945
  302MOL    H1442756   1.691   2.988   1.507 -0.0014 -0.9417  1.8907
  302MOL    H1542757   1.763   3.104   1.618  2.5108 -0.5989 -1.7922
  302MOL    C1642758   1.875   3.118   1.365  0.1006 -0.2700 -0.3774
  302MOL    C1742759   1.881   3.155   1.216  0.2757  0.0164  0.5457
  302MOL    O1842760   1.999   3.116   1.142 -0.3309  0.4968  0.5390
  302MOL    H1942761   1.952   3.159   1.430 -1.9289  1.4645  0.9592
  302MOL    H2042762   1.890   3.010   1.377  1.7863 -0.0001  0.1363
  302MOL    H2142763   1.864   3.262   1.220 -3.8038 -0.5656  0.2675
  302MOL    H2242764   1.795   3.107   1.168  0.2202 -1.0842  1.7308
  302MOL    C2342765   1.982   3.128   1.002 -0.8914  0.2940  0.2865
  302MOL    C2442766   2.101   3.079   0.911 -0.1871 -0.0809  0.0566
  302MOL    O2542767   2.208   3.174   0.918  0.4195 -0.0299 -0.2951
  302MOL    H2642768   1.903   3.056   0.980 -0.1896 -0.8224  1.3427
  302MOL    H2742769   1.962   3.232   0.976 -2.4900 -0.1861 -0.5108
  302MOL    H2842770   2.061   3.082   0.809  1.7270  1.3192 -0.6771
  302MOL    H2942771   2.137   2.981   0.944  2.1832  0.0273 -2.0332
  302MOL    C3042772   2.328   3.124   0.860 -0.5915  0.0776 -0.4359
  302MOL    C3142773   2.447   3.215   0.892 -0.5639  0.3426  0.4795
  302MOL    O3242774   2.469   3.310   0.788 -0.1263  0.3544 -0.1218
  302MOL    H3342775   2.351   3.023   0.895  2.0737  0.6879 -0.3796
  302MOL    H3442776   2.322   3.110   0.752 -0.3205  3.0305 -0.8531
  302MOL    H3542777   2.537   3.154   0.888 -2.2779 -2.2460  0.5479
  302MOL    H3642778   2.439   3.259   0.992 -1.3061  0.3502  0.4172
  302MOL    C3742779   2.589   3.384   0.786 -0.4915  0.7032 -0.2322
  302MOL    C3842780   2.616   3.406   0.632 -0.2919 -0.2781 -0.6786
  302MOL    O3942781   2.717   3.319   0.585 -0.0090  0.5325 -0.9232
  302MOL    H4042782   2.577   3.476   0.844  0.8210  1.2305 -0.7637
  302MOL    H4142783   2.675   3.330   0.826 -1.9804 -0.7553  1.0906
  302MOL    H4242784   2.638   3.511   0.612 -1.0875 -0.0292 -0.2892
  302MOL    H4342785   2.521   3.381   0.584 -0.9427  0.6365  0.1086
  302MOL    C4442786   2.753   3.337   0.446  0.1319  0.6800  0.5147
  302MOL    C4542787   2.884   3.255   0.401 -0.1703  0.2017  0.9659
  302MOL    O4642788   2.994   3.305   0.479 -0.2310  0.0063  0.6351
  302MOL    H4742789   2.671   3.301   0.385  0.9483 -0.2923 -0.0206
  302MOL    H4842790   2.764   3.442   0.422 -0.0082  1.4429  3.5428
  302MOL    H4942791   2.900   3.286   0.298 -0.7387 -1.2297  0.4302
  302MOL    H5042792   2.873   3.147   0.416  0.8781 -0.1903 -0.9801
  302MOL    C5142793   3.118   3.259   0.426  0.4457 -0.1990 -0.0539
  302MOL    C5242794   3.227   3.305   0.518  0.5592 -0.5242  0.7651
  302MOL    O5342795   3.218   3.455   0.506  0.1860 -0.6291 -0.5071
  302MOL    H5442796   3.115   3.150   0.419 -0.1713 -0.1558 -0.4309
  302MOL    H5542797   3.146   3.301   0.329  1.4070 -0.9390 -0.0975
  302MOL    H5642798   3.321   3.273   0.473  1.0453  1.0925  0.5720
  302MOL    H5742799   3.207   3.268   0.618 -4.0968 -0.2475  0.0369
  302MOL    C5842800   3.286   3.523   0.618  0.2873  0.1793 -0.3377
  302MOL    C5942801   3.290   3.670   0.608  0.7963 -0.1645 -0.5299
  302MOL    O6042802   3.407   3.717   0.553  0.2060  0.0812  0.4640
  302MOL    H6142803   3.227   3.493   0.705 -1.0540  0.0289 -1.2836
  302MOL    H6242804   3.384   3.475   0.613 -0.3235 -0.8355 -3.8428
  302MOL    H6342805   3.280   3.717   0.706 -0.3711  2.6753 -1.9384
  302MOL    H6442806   3.201   3.712   0.562 -0.5468 -0.9502  1.3042
  302MOL    C6542807   3.439   3.859   0.562 -0.2994 -0.0062  1.0082
  302MOL    C6642808   3.581   3.885   0.529  0.4031  0.1934  0.0091
  302MOL    O6742809   3.592   3.933   0.403 -0.6745 -0.5147 -0.4416
  302MOL    H6842810   3.360   3.911   0.507 -2.0225 -1.3874  2.1211
  302MOL    H6942811   3.409   3.891   0.662 -1.4895 -1.8776  1.2801
  302MOL    H7042812   3.649   3.802   0.547 -0.1708  0.1784  2.2274
  302MOL    H7142813   3.621   3.947   0.609  0.5739 -1.6339  1.3794
  302MOL    C7242814   3.720   3.988   0.372  0.6182 -0.1950 -0.0807
  302MOL    C7342815   3.724   4.035   0.227  0.5742 -0.2336 -0.3161
  302MOL    O7442816   3.641   4.146   0.223 -0.3480 -0.0544 -0.0053
  302MOL    H7542817   3.742   4.067   0.444 -0.3445 -1.8288  2.0266
  302MOL    H7642818   3.796   3.911   0.385  0.1254 -1.0379 -1.9674
  302MOL    H7742819   3.692   3.957   0.159  0.9341 -1.0635  0.4586
  302MOL    H7842820   3.821   4.057   0.181  0.9129  0.8367  0.8801
  302MOL    C7942821   3.591   4.157   0.088  0.1785  0.1031 -0.4668
  302MOL    C8042822   3.467   4.250   0.093 -0.2468 -0.6823  0.3725
  302MOL    O8142823   3.513   4.377   0.055 -0.0635 -0.2103  0.4449
  302MOL    H8242824   3.675   4.185   0.025 -2.2003 -2.1399 -4.8219
  302MOL    H8342825   3.548   4.062   0.057 -0.3307  1.1699 -3.1214
  302MOL    H8442826   3.426   4.254   0.194 -2.9746 -0.4518 -0.7044
  302MOL    H8542827   3.388   4.220   0.024 -1.1686  2.6136 -0.1041
  302MOL    C8642828   3.428   4.479   0.104  0.2263 -0.0705  0.3906
  302MOL    C8742829   3.429   4.604   0.014  0.6706  0.2661 -0.1217
  302MOL    O8842830   3.412   4.563   7.648  0.3500 -0.3787  0.1647
  302MOL    H8942831   3.328   4.438   0.092  0.5281 -0.4903 -0.7948
  302MOL    H9042832   3.448   4.494   0.210 -1.2755 -1.8091  0.9366
  302MOL    H9142833   3.521   4.657   0.039  0.2462  0.3571  1.2941
  302MOL    H9242834   3.357   4.684   0.027  3.2145  2.6619 -0.4202
  302MOL    C9342835   3.488   4.644   7.559 -0.1069  0.2020 -1.0152
  302MOL    C9442836   3.456   4.615   7.412 -0.1885  0.3746 -0.0147
  302MOL    O9542837   3.323   4.633   7.366  0.5318 -0.2938  0.2314
  302MOL    H9642838   3.487   4.752   7.574 -0.4588  0.2409 -1.3424
  302MOL    H9742839   3.594   4.629   7.583 -0.4544  0.0444  0.4833
  302MOL    H9842840   3.468   4.509   7.390 -1.0418  0.0010  1.2151
  302MOL    H9942841   3.519   4.683   7.355 -1.8903  1.3696 -0.7502
  302MOL   C10042842   3.263   4.756   7.400 -0.2199  0.1527  0.6524
  302MOL   C10142843   3.118   4.767   7.335  0.1452  0.2237 -1.0259
  302MOL   O10242844   3.012   4.693   7.391  0.3258 -0.0942 -0.3634
  302MOL   H10342845   3.254   4.762   7.509  0.6764 -0.2705  0.7506
  302MOL   H10442846   3.324   4.838   7.363 -0.9763  0.2947 -0.2889
  302MOL   H10542847   3.125   4.749   7.228  1.6472  2.0814 -1.2696
  302MOL   H10642848   3.084   4.869   7.359 -1.7953 -0.7362  0.4933
  302MOL   C10742849   3.000   4.559   7.330  0.5570  0.3526  0.6297
  302MOL   C10842850   2.890   4.475   7.402  0.3416 -0.6759 -0.0135
  302MOL   O10942851   2.936   4.433   7.534  0.5680 -0.1103 -0.3306
  302MOL   H11042852   2.980   4.573   7.224  2.6214  0.2204  0.2049
  302MOL   H11142853   3.092   4.503   7.341  0.0908 -0.6817 -0.6035
  302MOL   H11242854   2.878   4.388   7.337  1.1590 -0.4120 -0.5280
  302MOL   H11342855   2.792   4.520   7.416 -0.9745 -3.3036 -0.6137
  302MOL   C11442856   2.837   4.383   7.623 -0.1590 -0.2883 -0.0889
  302MOL   C11542857   2.901   4.353   7.759 -0.5571 -0.3477 -0.0100
  302MOL   O11642858   2.925   4.463   0.074 -0.0854 -0.7313 -0.0661
  302MOL   H11742859   2.750   4.446   7.640  0.0548 -0.1048  0.3398
  302MOL   H11842860   2.795   4.288   7.590  1.3505 -1.5246  1.4595
  302MOL   H11942861   2.992   4.295   7.750 -0.5720 -0.7985  2.2798
  302MOL   H12042862   2.842   4.280   0.045 -0.0336  0.1605  1.1956
  302MOL   C12142863   3.015   4.566   0.031 -0.2393  0.2741  0.1705
  302MOL   C12242864   3.033   4.677   0.129 -0.3718 -1.1456  0.4973
  302MOL   O12342865   3.135   4.650   0.216 -0.7672 -0.5604 -1.0357
  302MOL   H12442866   3.114   4.523   0.021 -0.4085  0.3456 -2.1128
  302MOL   H12542867   2.967   4.606   7.712  1.1185  3.2698  0.7158
  302MOL   H12642868   2.942   4.702   0.183  0.5547  0.1715  1.4773
  302MOL   H12742869   3.055   4.769   0.074 -1.2863 -1.0608  0.2548
  302MOL   C12842870   3.154   4.751   0.312  0.5430 -1.3326 -0.6836
  302MOL   C12942871   3.280   4.724   0.395  0.3597 -0.4503  0.0757
  302MOL   O13042872   3.398   4.771   0.333  0.2201  0.1810  0.4135
  302MOL   H13142873   3.168   4.840   0.250 -0.4046 -0.1458  0.7808
  302MOL   H13242874   3.065   4.776   0.370  0.4719 -1.6197 -0.6666
  302MOL   H13342875   3.282   4.615   0.405 -2.5797 -0.3570  2.5906
  302MOL   H13442876   3.283   4.774   0.492 -0.6742 -0.4238  0.1065
  302MOL   C13542877   3.516   4.739   0.398  0.4323  0.3468 -0.5328
  302MOL   C13642878   3.639   4.821   0.354  0.3437 -0.0375  0.0322
  302MOL   O13742879   3.751   4.791   0.423  0.0513  0.5642 -0.0879
  302MOL   H13842880   3.505   4.757   0.505  1.0066  1.6778 -0.6821
  302MOL   H13942881   3.533   4.632   0.386  1.6740  0.2509  1.7444
  302MOL   H14042882   3.624   4.928   0.369 -1.6450 -0.5327  1.7663
  302MOL   H14142883   3.650   4.822   0.245  0.9536 -0.9517  0.0738
  302MOL   H14242884   3.786   4.712   0.384 -0.0446 -0.2374  1.4100
  303MOL     C142885   6.323   7.705   7.375  0.1893  0.1911 -0.2536
  303MOL     C242886   6.247   7.685   7.508  0.0472 -0.0563 -0.0463
  303MOL     O342887   6.319   7.764   7.603 -0.2471 -0.4570 -0.5694
  303MOL     H442888   6.327   0.040   7.349 -0.4517  0.8619  2.2198
  303MOL     H542889   6.269   7.661   7.292  0.7053  0.5547 -0.7825
  303MOL     H642890   6.232   7.579   7.528 -1.5205  0.0898 -0.3735
  303MOL     H742891   6.145   7.721   7.498 -0.3782 -0.7238  1.6551
  303MOL     H842892   6.424   7.664   7.369  0.6711  1.2169  0.5014
  303MOL     C942893   6.251   7.767   7.726  0.1380 -0.2025  0.4740
  303MOL    C1042894   6.281   0.125   0.016 -0.2987  0.6904  0.4813
  303MOL    O1142895   6.160   0.195   0.046 -0.0159 -0.0046  0.1728
  303MOL    H1242896   6.148   7.733   7.729  0.0046  0.1964  0.4028
  303MOL    H1342897   6.303   7.683   0.002  0.2944 -2.2935 -3.2948
  303MOL    H1442898   6.345   0.190   7.728  0.7599  0.0229  0.8694
  303MOL    H1542899   6.347   0.108   0.101 -0.3620 -0.6351  0.2758
  303MOL    C1642900   6.192   0.329   0.090 -0.0366 -0.0563 -0.0045
  303MOL    C1742901   6.085   0.373   0.186 -0.1590 -0.3004  0.0951
  303MOL    O1842902   6.105   0.328   0.313 -0.0542  0.0542  0.2582
  303MOL    H1942903   6.289   0.327   0.139  0.3597 -1.2712 -0.8077
  303MOL    H2042904   6.202   0.394   0.003 -1.0815  1.0576  0.7000
  303MOL    H2142905   5.981   0.374   0.152  0.2892 -1.0029 -1.3557
  303MOL    H2242906   6.098   0.481   0.192  0.2113 -0.2226 -1.6891
  303MOL    C2342907   6.026   0.218   0.359  0.6662  0.2191  0.4713
  303MOL    C2442908   6.114   0.126   0.438  0.1656 -0.3758  0.1817
  303MOL    O2542909   6.163   0.015   0.364  0.5873 -0.1256  0.1362
  303MOL    H2642910   5.947   0.262   0.419 -1.5588  0.4893 -2.6006
  303MOL    H2742911   5.975   0.161   0.282 -1.4261  2.8178 -0.1538
  303MOL    H2842912   6.059   0.092   0.526  0.6462  0.6279  0.8752
  303MOL    H2942913   6.204   0.179   0.469  1.1721 -1.6946 -0.4148
  303MOL    C3042914   6.279   7.732   0.423 -0.3967  0.1090 -0.0280
  303MOL    C3142915   6.265   7.584   0.372  0.8077 -0.7148  0.3517
  303MOL    O3242916   6.163   7.503   0.433  0.0392  0.1407  0.0460
  303MOL    H3342917   6.369   0.008   0.382 -0.5446 -0.5006 -1.0532
  303MOL    H3442918   6.284   7.724   0.532  1.7335 -1.9852 -0.2323
  303MOL    H3542919   6.361   7.533   0.380  1.0149 -0.7689 -2.0149
  303MOL    H3642920   6.239   7.592   0.266  1.1153 -2.1799  0.1516
  303MOL    C3742921   6.195   7.373   0.389 -0.5664  0.4086  0.2114
  303MOL    C3842922   6.281   7.300   0.498 -0.3741  0.7199  0.8425
  303MOL    O3942923   6.424   7.318   0.482  1.1283 -0.1701 -0.1501
  303MOL    H4042924   6.100   7.319   0.385 -0.8472  0.8516  0.8456
  303MOL    H4142925   6.239   7.360   0.290 -2.1073 -0.2229 -0.4109
  303MOL    H4242926   6.257   7.194   0.487 -0.9663  0.6216  2.8645
  303MOL    H4342927   6.246   7.316   0.600  0.4731  1.7333  0.9800
  303MOL    C4442928   6.495   7.241   0.578  0.3570  0.0699 -0.4868
  303MOL    C4542929   6.646   7.284   0.577  0.3223 -0.3125  0.1255
  303MOL    O4642930   6.686   7.284   0.443 -0.6454  0.1158 -0.3339
  303MOL    H4742931   6.460   7.269   0.678  0.1092 -0.9554 -0.2774
  303MOL    H4842932   6.488   7.134   0.560  0.5711 -0.1785  0.8238
  303MOL    H4942933   6.696   7.216   0.645  0.4205  0.2224  0.5881
  303MOL    H5042934   6.662   7.378   0.629  1.7821 -0.8200  0.6131
  303MOL    C5142935   6.824   7.248   0.426 -0.0785 -0.6009  0.6789
  303MOL    C5242936   6.878   7.260   0.282  0.2011 -0.2018 -0.4117
  303MOL    O5342937   6.913   7.391   0.245 -0.0321 -0.2012  0.8221
  303MOL    H5442938   6.868   7.321   0.493 -0.0317 -1.0478  1.1335
  303MOL    H5542939   6.851   7.150   0.466 -0.3301 -1.2795 -0.7738
  303MOL    H5642940   6.792   7.228   0.225 -0.4516  1.0967 -0.1711
  303MOL    H5742941   6.961   7.192   0.263 -1.6394 -2.7826  0.5536
  303MOL    C5842942   6.961   7.397   0.112  0.3320 -0.3578 -0.1593
  303MOL    C5942943   7.015   7.535   0.086  0.1965 -0.6465  0.1224
  303MOL    O6042944   7.142   7.552   0.134 -0.1529  0.3803  0.5527
  303MOL    H6142945   7.029   7.315   0.088  0.6168 -0.6101  1.4585
  303MOL    H6242946   6.872   7.391   0.049  1.8365 -0.2227 -2.3489
  303MOL    H6342947   6.960   7.609   0.144  2.7862  2.3956 -1.1641
  303MOL    H6442948   7.008   7.565   7.753 -0.8850 -1.4158 -0.0346
  303MOL    C6542949   7.196   7.681   0.103 -0.2662  0.3687 -0.2992
  303MOL    C6642950   7.331   7.693   0.171  0.8316  0.0232 -0.2922
  303MOL    O6742951   7.387   0.047   0.184 -0.3051  0.6721  0.4782
  303MOL    H6842952   7.217   7.699   7.769 -0.4349  3.0837  0.0872
  303MOL    H6942953   7.120   7.752   0.135 -0.6700 -1.2857  2.6628
  303MOL    H7042954   7.401   7.623   0.126  0.6347 -0.9312  0.8417
  303MOL    H7142955   7.306   7.657   0.271  2.0584 -0.1545 -0.0417
  303MOL    C7242956   7.399   0.104   0.062 -0.7315  0.3286  0.4514
  303MOL    C7342957   7.503   0.207   0.069 -0.1741 -0.0238 -0.3701
  303MOL    O7442958   7.629   0.170   0.010  0.1320  0.0441  0.0527
  303MOL    H7542959   7.419   0.034   7.752 -1.7506  0.8223 -0.2299
  303MOL    H7642960   7.306   0.153   0.036 -0.2840  1.1763  0.4456
  303MOL    H7742961   7.509   0.255   0.167 -0.3799 -1.9755  0.6265
  303MOL    H7842962   7.476   0.287   0.001  2.8682  0.3920 -1.1938
  303MOL    C7942963   7.698   0.079   0.097  0.0149  0.0359  0.2197
  303MOL    C8042964   0.053   0.002   0.031  0.3100  0.4297  0.3439
  303MOL    O8142965   0.021   7.689   7.687  0.9336 -0.2427 -0.3231
  303MOL    H8242966   7.741   0.137   0.179 -0.1612  2.4067 -1.3115
  303MOL    H8342967   7.632   0.009   0.147 -1.1598  0.6248 -0.4816
  303MOL    H8442968   0.094   7.708   0.107 -0.2877  0.4645  0.7014
  303MOL    H8542969   0.135   0.071   0.012  0.5530  1.0476  3.5080
  303MOL    C8642970   7.712   7.577   7.724  0.0836 -0.2883  0.1981
  303MOL    C8742971   7.683   7.500   7.596  0.0687 -0.1716 -0.3690
  303MOL    O8842972   7.563   7.554   7.537 -0.7003 -0.2716 -0.7336
  303MOL    H8942973   0.008   7.513   0.010  1.2761 -0.6420 -1.5508
  303MOL    H9042974   7.619   7.597   0.005  0.2585  0.5637  0.1896
  303MOL    H9142975   7.656   7.397   7.619 -1.5980 -0.0190 -1.5515
  303MOL    H9242976   7.764   7.512   7.525 -0.8221  1.0775 -1.1799
  303MOL    C9342977   7.506   7.480   7.428 -1.4758 -0.0453  0.1091
  303MOL    C9442978   7.434   7.348   7.470  0.1228  0.5890  0.3649
  303MOL    O9542979   7.311   7.357   7.533 -0.2693 -0.7174 -0.1055
  303MOL    H9642980   7.448   7.533   7.353 -1.1130  3.2316  2.0739
  303MOL    H9742981   7.597   7.461   7.372 -2.1999 -1.3311 -0.6825
  303MOL    H9842982   7.503   7.283   7.523  1.2537  0.4637 -1.2320
  303MOL    H9942983   7.414   7.297   7.376  2.1370  0.8073 -0.2099
  303MOL   C10042984   7.306   7.388   7.674  0.3090  0.1336  0.1913
  303MOL   C10142985   7.361   7.268   7.753 -0.1582 -0.4269  0.1669
  303MOL   O10242986   7.495   7.278   7.752 -0.2153  0.2176 -0.0432
  303MOL   H10342987   7.353   7.480   7.708  1.3563 -0.4349  0.2838
  303MOL   H10442988   7.199   7.392   7.695 -0.0697 -1.1686 -1.3644
  303MOL   H10542989   7.326   7.176   7.705 -1.1244  1.1187 -2.1493
  303MOL   H10642990   7.315   7.268   0.081 -1.9700  2.9412 -0.6217
  303MOL   C10742991   7.563   7.160   0.011  0.2472 -0.2848  0.9532
  303MOL   C10842992   7.545   7.041   7.692  0.1558  0.5227 -0.9420
  303MOL   O10942993   7.452   6.948   7.754 -0.1183 -0.3426 -1.0864
  303MOL   H11042994   7.668   7.189   0.004  0.0295  0.4465  0.6670
  303MOL   H11142995   7.540   7.130   0.113 -1.7221 -0.7797  0.3870
  303MOL   H11242996   7.634   6.984   7.665  0.4874  1.5918 -2.1173
  303MOL   H11342997   7.504   7.070   7.595  1.2190 -1.8638 -2.1537
  303MOL   C11442998   7.434   6.829   7.675  0.1389  0.0235 -0.4483
  303MOL   C11542999   7.381   6.843   7.529 -0.1889 -0.3256 -0.4231
  303MOL   O11643000   7.271   6.938   7.532 -0.3223 -0.4348  0.0018
  303MOL   H11743001   7.529   6.776   7.674 -0.2563 -0.6667 -1.0232
  303MOL   H11843002   7.371   6.764   7.736  1.9939 -0.4619  0.9941
  303MOL   H11943003   7.336   6.754   7.484 -0.3496  0.1097 -1.1393
  303MOL   H12043004   7.471   6.869   7.473  0.6797 -0.3718  0.9502
  303MOL   C12143005   7.218   6.947   7.405  0.5062  1.0077 -0.1286
  303MOL   C12243006   7.107   7.047   7.407 -0.2060  0.5437  0.2049
  303MOL   O12343007   7.007   7.008   7.504  0.4159  0.8223 -0.8496
  303MOL   H12443008   7.299   6.977   7.340 -0.2658  1.7170 -0.7775
  303MOL   H12543009   7.174   6.854   7.367  0.0016  1.0341  0.3759
  303MOL   H12643010   7.060   7.055   7.309  1.5371 -3.7689 -1.1332
  303MOL   H12743011   7.155   7.135   7.450  0.2024 -0.3684  1.6421
  303MOL   C12843012   6.933   7.111   7.572 -0.4726  0.1547  0.5413
  303MOL   C12943013   6.881   7.040   7.693 -0.2957 -0.3998  0.6225
  303MOL   O13043014   6.962   7.063   0.039 -0.5936 -0.4542 -0.1347
  303MOL   H13143015   6.984   7.201   7.606 -0.9108  0.6009  0.0185
  303MOL   H13243016   6.852   7.134   7.503  0.9653 -0.9950 -1.6005
  303MOL   H13343017   6.859   6.935   7.673  0.5961 -0.2714 -1.0865
  303MOL   H13443018   6.784   7.086   7.706 -0.4315 -0.3894 -0.3821
  303MOL   C13543019   7.080   6.979   0.031 -0.2461  0.0148  0.5246
  303MOL   C13643020   7.146   6.990   0.173 -0.0989 -0.0368  0.4204
  303MOL   O13743021   7.271   6.927   0.188 -0.6166  0.6481  0.0552
  303MOL   H13843022   7.045   6.881   0.001 -0.6596  0.0763  0.7926
  303MOL   H13943023   7.137   7.019   7.718 -3.1214  0.8686 -1.0866
  303MOL   H14043024   7.080   6.952   0.251 -0.1987 -2.4584 -0.7840
  303MOL   H14143025   7.169   7.094   0.192  0.1711 -0.3138  1.6504
  303MOL   H14243026   7.336   6.959   0.128  0.2699 -1.3288 -0.0759
  304MOL     C143027   2.628   0.239   3.279 -0.0077  0.2942 -0.1686
  304MOL     C243028   2.726   0.132   3.228 -0.2037 -0.0722  0.2681
  304MOL     O343029   2.725   0.117   3.089 -0.2710  0.5456 -0.5723
  304MOL     H443030   2.628   0.257   3.387 -0.5394 -0.3926 -0.0544
  304MOL     H543031   2.529   0.207   3.248 -0.2245  0.2964  0.5100
  304MOL     H643032   2.697   0.039   3.278  4.5143 -1.5852  0.4189
  304MOL     H743033   2.823   0.168   3.262  0.8414  1.3768 -3.9291
  304MOL     H843034   2.657   0.335   3.235  0.0131  0.5211  0.3275
  304MOL     C943035   2.801   0.007   3.036  0.9112 -0.3785  0.3943
  304MOL    C1043036   2.795   0.006   2.882  0.9345 -0.1333  0.3960
  304MOL    O1143037   2.874   0.104   2.822  0.2127 -0.2951  0.1132
  304MOL    H1243038   2.905   7.766   3.068  0.1576  1.1700  3.6473
  304MOL    H1343039   2.765   7.681   3.070 -1.7689  0.0161 -1.1971
  304MOL    H1443040   2.694   0.037   2.853  0.6145  0.8502  2.4828
  304MOL    H1543041   2.811   7.675   2.847  0.4869  0.2621 -0.9981
  304MOL    C1643042   2.900   0.079   2.679 -0.2296 -0.2599  0.3337
  304MOL    C1743043   3.000   0.188   2.637  0.9667  0.5237 -0.0148
  304MOL    O1843044   3.116   0.163   2.712  0.4986 -0.1885  0.2455
  304MOL    H1943045   2.943   7.754   2.653  1.9485  0.5825  0.6853
  304MOL    H2043046   2.803   0.081   2.630  0.0508 -0.9640 -0.2376
  304MOL    H2143047   2.949   0.280   2.666 -0.8090 -0.5149  0.2039
  304MOL    H2243048   3.023   0.184   2.531  0.2523  0.1326 -0.1588
  304MOL    C2343049   3.204   0.272   2.685  0.1739  0.0458  0.7527
  304MOL    C2443050   3.343   0.225   2.729 -0.8508  0.0960  0.0621
  304MOL    O2543051   3.355   0.248   2.870  0.1844  0.0986 -0.0345
  304MOL    H2643052   3.212   0.279   2.577 -2.5087 -1.1851  0.4337
  304MOL    H2743053   3.183   0.372   2.723 -0.8930  1.0232 -2.2636
  304MOL    H2843054   3.424   0.280   2.681 -0.2227  0.1916  1.2131
  304MOL    H2943055   3.359   0.119   2.708  2.3641  0.1009  1.9937
  304MOL    C3043056   3.396   0.133   2.947  0.0173  0.4392  0.2628
  304MOL    C3143057   3.542   0.076   2.922  0.0029  0.0484  0.5538
  304MOL    O3243058   3.637   0.173   2.984  0.2323 -0.1979  0.2343
  304MOL    H3343059   3.371   0.160   3.049 -0.5045 -1.6155  0.7053
  304MOL    H3443060   3.328   0.051   2.926 -1.1740  1.8064 -1.4327
  304MOL    H3543061   3.560   0.047   2.819  1.1170 -0.6412  0.9294
  304MOL    H3643062   3.550   7.761   2.989 -0.3619  0.2120  0.8079
  304MOL    C3743063   3.688   0.267   2.891  0.0252 -0.1350 -0.2175
  304MOL    C3843064   3.781   0.373   2.951  0.9724 -0.1709  0.0796
  304MOL    O3943065   3.808   0.488   2.865  0.3311 -0.0906 -0.3795
  304MOL    H4043066   3.733   0.209   2.810  1.2417 -0.1530  0.4549
  304MOL    H4143067   3.600   0.308   2.842 -0.3201 -0.6988 -0.0658
  304MOL    H4243068   3.872   0.319   2.978  0.6637  0.3452  2.1974
  304MOL    H4343069   3.749   0.402   3.051 -2.3994 -0.4697 -0.8562
  304MOL    C4443070   3.873   0.597   2.934 -0.1049 -0.4005 -0.0338
  304MOL    C4543071   3.876   0.716   2.837  0.4448  0.4053 -0.1721
  304MOL    O4643072   3.979   0.705   2.747  0.3933 -0.3099 -0.1429
  304MOL    H4743073   3.807   0.626   3.016 -0.8728  0.3274 -0.8874
  304MOL    H4843074   3.972   0.573   2.971 -0.2027 -1.0205 -0.1700
  304MOL    H4943075   3.875   0.801   2.905 -0.2544 -1.2665  1.9668
  304MOL    H5043076   3.779   0.731   2.790  1.5091  1.0325 -2.2096
  304MOL    C5143077   3.994   0.817   2.656  0.5590  0.4133  0.0537
  304MOL    C5243078   4.124   0.813   2.580 -0.6269  0.6589  0.6128
  304MOL    O5343079   4.102   0.715   2.474  0.4800 -0.7625  0.6902
  304MOL    H5443080   3.901   0.819   2.598 -0.5546 -2.6064  1.6110
  304MOL    H5543081   3.976   0.897   2.727 -0.0924 -1.2024  1.7637
  304MOL    H5643082   4.200   0.782   2.652  0.6204 -0.8144 -1.3025
  304MOL    H5743083   4.157   0.910   2.543 -0.2486 -0.2299 -1.4658
  304MOL    C5843084   4.222   0.656   2.429  0.5284  0.2048 -0.1663
  304MOL    C5943085   4.188   0.560   2.320 -0.6295  0.0487 -0.5210
  304MOL    O6043086   4.182   0.616   2.193 -0.7936  0.4215  0.3607
  304MOL    H6143087   4.285   0.741   2.399 -1.1048  1.5578  0.1824
  304MOL    H6243088   4.259   0.602   2.516  0.4449 -0.3358 -0.4676
  304MOL    H6343089   4.094   0.509   2.342 -0.1589 -0.8473 -0.5768
  304MOL    H6443090   4.262   0.480   2.317 -1.1261 -0.4930  1.2576
  304MOL    C6543091   4.066   0.693   2.163 -0.4921 -0.0660 -0.1045
  304MOL    C6643092   4.059   0.720   2.012  0.1412  0.7852 -0.8502
  304MOL    O6743093   3.958   0.811   1.974 -0.1467  0.1261 -0.1195
  304MOL    H6843094   3.971   0.653   2.200 -0.9174  2.0297  1.2025
  304MOL    H6943095   4.094   0.790   2.204  1.4332 -1.3365  1.6562
  304MOL    H7043096   4.039   0.627   1.960 -1.0230 -0.0483  1.0148
  304MOL    H7143097   4.158   0.744   1.973  0.3855 -0.9909 -1.3778
  304MOL    C7243098   3.915   0.798   1.839  0.0393  0.5527  0.0510
  304MOL    C7343099   4.033   0.818   1.739  0.3664  0.1724 -0.5745
  304MOL    O7443100   4.110   0.704   1.732  0.3861  0.7342  0.0073
  304MOL    H7543101   3.859   0.705   1.827 -0.0370  0.5617  0.3317
  304MOL    H7643102   3.846   0.882   1.844 -0.6133  0.0377 -0.0980
  304MOL    H7743103   4.093   0.899   1.782  1.2640 -0.1968 -1.1100
  304MOL    H7843104   4.016   0.850   1.636  1.4079 -0.8997 -1.0952
  304MOL    C7943105   4.061   0.583   1.672  0.2055  0.6228  0.1656
  304MOL    C8043106   4.155   0.469   1.701 -0.2097 -0.3127  0.8180
  304MOL    O8143107   4.259   0.448   1.605  0.5739 -0.1558 -0.6697
  304MOL    H8243108   3.970   0.547   1.719 -0.2862  0.8155 -0.6134
  304MOL    H8343109   4.048   0.584   1.563  0.6512 -0.8116  0.0821
  304MOL    H8443110   4.095   0.378   1.697 -0.7026 -0.0182  1.6459
  304MOL    H8543111   4.205   0.461   1.797 -0.2698 -0.8104  0.8098
  304MOL    C8643112   4.342   0.558   1.572  0.3514  0.4693  0.6027
  304MOL    C8743113   4.440   0.505   1.472  0.5234 -0.3701 -0.1002
  304MOL    O8843114   4.510   0.613   1.404  0.4435  0.2535 -0.3090
  304MOL    H8943115   4.279   0.641   1.540  1.1398  0.6409 -0.5221
  304MOL    H9043116   4.400   0.597   1.655  1.0974  0.8441 -0.0948
  304MOL    H9143117   4.373   0.459   1.399 -0.2380  0.6626 -0.0631
  304MOL    H9243118   4.514   0.437   1.512  0.9380 -0.0819 -0.3654
  304MOL    C9343119   4.607   0.575   1.309 -0.0613  0.0632 -0.2551
  304MOL    C9443120   4.681   0.696   1.253  0.1578  0.7320  0.3377
  304MOL    O9543121   4.612   0.725   1.130 -0.3886 -0.5892  0.4102
  304MOL    H9643122   4.678   0.508   1.358  0.1649 -0.4233 -1.2215
  304MOL    H9743123   4.563   0.514   1.230 -0.3351 -3.0723  2.2080
  304MOL    H9843124   4.786   0.674   1.239  0.0577  1.2532 -1.2769
  304MOL    H9943125   4.662   0.777   1.324  0.0699  0.8014  0.2355
  304MOL   C10043126   4.671   0.837   1.065 -0.0652 -0.0192  0.1938
  304MOL   C10143127   4.615   0.860   0.921 -0.2775 -0.0043 -0.2769
  304MOL   O10243128   4.693   0.786   0.832  0.2321 -0.4064  0.5579
  304MOL   H10343129   4.661   0.928   1.123 -0.4115  0.0955 -0.0474
  304MOL   H10443130   4.780   0.836   1.060 -0.0950 -0.9134 -0.4154
  304MOL   H10543131   4.613   0.964   0.890 -1.2245 -0.1330 -0.6457
  304MOL   H10643132   4.511   0.829   0.925 -0.6871  1.3448 -0.5711
  304MOL   C10743133   4.626   0.752   0.718  0.1398  0.6066 -0.6974
  304MOL   C10843134   4.734   0.708   0.616 -0.1044 -0.6368 -0.2767
  304MOL   O10943135   4.805   0.582   0.651 -0.4559 -0.2730  0.5700
  304MOL   H11043136   4.553   0.674   0.739  0.5214  0.0792 -1.3028
  304MOL   H11143137   4.558   0.833   0.691  1.2798  1.7122 -0.3213
  304MOL   H11243138   4.808   0.785   0.597 -0.0612 -0.7633 -0.6169
  304MOL   H11343139   4.680   0.698   0.521  2.2072 -1.9066 -1.4930
  304MOL   C11443140   4.902   0.529   0.559  0.0253  0.0269 -0.0923
  304MOL   C11543141   4.922   0.379   0.558 -0.2892  0.0183 -0.1142
  304MOL   O11643142   5.003   0.353   0.442 -0.0235  0.2750 -0.9770
  304MOL   H11743143   4.866   0.554   0.459  1.1944  2.1854  0.0059
  304MOL   H11843144   4.999   0.575   0.577 -0.5416  0.8413  0.8870
  304MOL   H11943145   4.828   0.326   0.543 -0.0915  0.1583 -2.0335
  304MOL   H12043146   4.969   0.354   0.653 -0.3229 -2.6886 -0.7735
  304MOL   C12143147   5.079   0.235   0.471 -0.4783  0.4185  0.8870
  304MOL   C12243148   5.176   0.194   0.354 -0.3091  0.7682  0.0294
  304MOL   O12343149   5.107   0.107   0.269 -0.2555 -0.2879  0.1473
  304MOL   H12443150   5.146   0.237   0.557  0.4543 -0.2112  0.1883
  304MOL   H12543151   5.012   0.153   0.496  0.8835 -0.6287  1.1963
  304MOL   H12643152   5.253   0.135   0.404 -1.0385 -0.4991 -0.3314
  304MOL   H12743153   5.225   0.285   0.317 -0.8130  0.8754 -0.3870
  304MOL   C12843154   5.111   0.148   0.136  0.0738  0.3529  0.6108
  304MOL   C12943155   5.042   0.035   0.056 -0.1840  0.0365 -0.3277
  304MOL   O13043156   5.011   0.085   7.702  0.4750 -0.3525 -0.3803
  304MOL   H13143157   5.057   0.242   0.121 -1.0873 -0.5436 -0.9961
  304MOL   H13243158   5.205   0.180   0.090 -0.4460  1.8967  0.5937
  304MOL   H13343159   4.953   0.009   0.113  0.3896  1.5547  1.3425
  304MOL   H13443160   5.105   7.719   0.040  0.7750  0.5739  0.3789
  304MOL   C13543161   4.935   7.755   7.630 -0.1505  0.2042 -0.4956
  304MOL   C13643162   4.890   0.039   7.489  0.0379  0.0960 -0.2578
  304MOL   O13743163   5.009   0.074   7.415  0.0801 -0.1059  0.1454
  304MOL   H13843164   5.006   7.674   7.614  0.7126  0.7320  0.5324
  304MOL   H13943165   4.844   7.721   7.680  0.1494 -0.1482 -0.1771
  304MOL   H14043166   4.813   0.117   7.484  2.8172  2.9508  0.3245
  304MOL   H14143167   4.848   7.723   7.438  2.0408 -1.4991  0.7443
  304MOL   H14243168   5.048   0.157   7.440 -1.9828  0.9668 -0.1151
  305MOL     C143169   4.119   7.248   5.687 -0.4755 -0.3626 -0.4555
  305MOL     C243170   4.195   7.290   5.817  0.0479 -0.5703  0.0163
  305MOL     O343171   4.307   7.206   5.838 -0.3044  0.0355  0.3681
  305MOL     H443172   4.081   7.333   5.631  3.0701  0.8907 -1.0929
  305MOL     H543173   4.032   7.187   5.715  0.3836  0.3459  4.1577
  305MOL     H643174   4.135   7.295   5.908  0.2890  1.0255  0.1025
  305MOL     H743175   4.237   7.388   5.794  3.5169 -1.5084  2.0954
  305MOL     H843176   4.185   7.190   5.622  0.6286 -1.1775  1.3488
  305MOL     C943177   4.383   7.245   5.946 -0.3177  0.0547 -0.2836
  305MOL    C1043178   4.325   7.205   6.085 -0.0940 -0.4942  0.3344
  305MOL    O1143179   4.222   7.300   6.114 -0.2287  0.1186 -0.0599
  305MOL    H1243180   4.484   7.206   5.931 -0.4492  0.7531 -3.2391
  305MOL    H1343181   4.411   7.351   5.943 -0.1506  0.1009  1.6995
  305MOL    H1443182   4.403   7.204   6.162 -2.3996  0.7471  2.7922
  305MOL    H1543183   4.297   7.101   6.069 -0.2854 -0.2818 -0.7499
  305MOL    C1643184   4.129   7.279   6.223 -0.6221  0.4447  0.2884
  305MOL    C1743185   4.193   7.280   6.363 -0.3015  0.0684  1.0833
  305MOL    O1843186   4.255   7.157   6.401 -0.5208  0.6144 -0.3322
  305MOL    H1943187   4.068   7.368   6.210  1.1068  1.8130  1.3754
  305MOL    H2043188   4.068   7.191   6.204 -1.2328  0.7148  0.9719
  305MOL    H2143189   4.125   7.312   6.441 -2.1888  1.2758 -0.9939
  305MOL    H2243190   4.272   7.355   6.359 -0.2716  0.0238  0.8006
  305MOL    C2343191   4.322   7.162   6.530 -0.1681  0.1351 -0.0418
  305MOL    C2443192   4.409   7.038   6.551 -0.0741  0.1802  0.3721
  305MOL    O2543193   4.530   7.036   6.486 -0.0037  0.4631 -0.5750
  305MOL    H2643194   4.384   7.253   6.530 -0.9618  0.8103 -4.0820
  305MOL    H2743195   4.253   7.178   6.612 -1.5426  1.3184 -1.3916
  305MOL    H2843196   4.353   6.947   6.529  0.8883 -1.3910  4.1136
  305MOL    H2943197   4.442   7.052   6.654  2.5311  0.5362 -0.4920
  305MOL    C3043198   4.585   6.905   6.479  0.0678  0.3589 -0.2047
  305MOL    C3143199   4.504   6.817   6.375  0.7702  0.2564 -0.3015
  305MOL    O3243200   4.443   6.716   6.448  0.2176  0.9124 -0.0246
  305MOL    H3343201   4.688   6.915   6.444 -0.8638 -0.1556 -3.3365
  305MOL    H3443202   4.588   6.847   6.570 -0.2515  1.0538  0.2536
  305MOL    H3543203   4.572   6.775   6.300  0.2951  1.7316 -1.5905
  305MOL    H3643204   4.437   6.880   6.317  3.4622  1.4059 -2.3062
  305MOL    C3743205   4.368   6.630   6.361 -0.1226  0.0820  0.0455
  305MOL    C3843206   4.258   6.571   6.454  0.2690  0.1477  0.7614
  305MOL    O3943207   4.183   6.684   6.488 -0.5014  0.1759  0.4864
  305MOL    H4043208   4.329   6.689   6.279  0.2327  0.6000  0.2485
  305MOL    H4143209   4.434   6.549   6.329  0.3959  0.5556 -0.0994
  305MOL    H4243210   4.301   6.533   6.547  1.3238  1.1480  0.6983
  305MOL    H4343211   4.191   6.495   6.412  0.2630  0.0303  0.9811
  305MOL    C4443212   4.077   6.652   6.576  0.0677 -0.1349 -0.4566
  305MOL    C4543213   4.016   6.782   6.642  0.1907 -0.3480  0.0476
  305MOL    O4643214   3.923   6.840   6.548  0.6500 -0.1781  0.0980
  305MOL    H4743215   3.999   6.591   6.532 -0.4374  0.5618 -0.5450
  305MOL    H4843216   4.117   6.584   6.651 -1.0466 -1.4445 -1.0314
  305MOL    H4943217   4.099   6.844   6.677 -0.3905  0.1347  0.5919
  305MOL    H5043218   3.962   6.752   6.732  0.5929  0.4223  0.5550
  305MOL    C5143219   3.985   6.936   6.473 -0.4564  0.0246  0.0661
  305MOL    C5243220   3.885   7.027   6.411 -0.0878 -0.4779 -1.0743
  305MOL    O5343221   3.845   7.123   6.505  0.3691 -0.6850 -0.6918
  305MOL    H5443222   4.051   7.003   6.528 -2.2647 -0.1302  2.5203
  305MOL    H5543223   4.048   6.886   6.400  0.1436  1.3628 -0.3363
  305MOL    H5643224   3.798   6.966   6.387  0.2739 -2.2685  1.9990
  305MOL    H5743225   3.912   7.066   6.313  2.7594 -1.2399 -0.6422
  305MOL    C5843226   3.804   7.242   6.433 -0.6333  0.2386 -0.6009
  305MOL    C5943227   3.763   7.348   6.539 -0.7526 -0.6009 -0.3795
  305MOL    O6043228   3.632   7.311   6.578 -0.2617 -0.7699  0.1287
  305MOL    H6143229   3.887   7.289   6.380 -1.0504 -0.8647 -2.2650
  305MOL    H6243230   3.728   7.221   6.358 -1.0239 -0.3628 -0.0346
  305MOL    H6343231   3.761   7.448   6.497 -1.1277 -0.8432 -0.9415
  305MOL    H6443232   3.832   7.348   6.623 -0.7261 -0.8643 -0.4001
  305MOL    C6543233   3.577   7.392   6.685  0.0959  0.5440  0.1413
  305MOL    C6643234   3.429   7.363   6.690 -0.0591  1.0748  0.0257
  305MOL    O6743235   3.361   7.412   6.573  0.5655 -0.0847  0.5022
  305MOL    H6843236   3.622   7.346   6.773 -0.3800 -3.4050 -1.5847
  305MOL    H6943237   3.599   7.499   6.678 -1.2175  0.8521  0.7047
  305MOL    H7043238   3.388   7.417   6.776 -0.5550  3.0933 -1.4344
  305MOL    H7143239   3.408   7.259   6.712  0.9650  0.8386 -0.1265
  305MOL    C7243240   3.219   7.414   6.570 -0.2355 -0.5912  0.5766
  305MOL    C7343241   3.146   7.294   6.636  0.0810 -0.2095  0.0086
  305MOL    O7443242   3.145   7.315   6.774 -0.5150 -0.1113  0.4051
  305MOL    H7543243   3.190   7.517   6.593 -0.6859 -0.5854 -0.0206
  305MOL    H7643244   3.197   7.411   6.463 -1.7941 -1.3584  0.9097
  305MOL    H7743245   3.204   7.208   6.602  1.5720  1.5522 -2.0189
  305MOL    H7843246   3.053   7.259   6.591  1.2486 -1.7871 -1.2517
  305MOL    C7943247   3.100   7.197   6.852 -0.3030 -0.4318 -0.8613
  305MOL    C8043248   3.228   7.122   6.905  0.5722 -0.0504 -0.5555
  305MOL    O8143249   3.279   7.196   7.010  0.0932  0.0581  0.5192
  305MOL    H8243250   3.040   7.232   6.936 -1.3052  3.0146 -2.9055
  305MOL    H8343251   3.034   7.131   6.795  0.1638  0.5099 -2.5384
  305MOL    H8443252   3.302   7.103   6.827  2.4003  0.6767  0.9908
  305MOL    H8543253   3.194   7.024   6.937 -1.4771  0.2765 -1.6210
  305MOL    C8643254   3.395   7.137   7.064  0.0563 -0.1092  0.2414
  305MOL    C8743255   3.446   7.215   7.182  0.4838  0.6189  0.2613
  305MOL    O8843256   3.529   7.318   7.136 -0.1247  0.1340  0.2501
  305MOL    H8943257   3.384   7.031   7.090  0.7683 -0.4440 -0.7846
  305MOL    H9043258   3.473   7.129   6.988 -0.1755 -1.5264  0.1267
  305MOL    H9143259   3.509   7.151   7.244  1.3511 -0.0155 -1.2460
  305MOL    H9243260   3.358   7.247   7.237  0.4132  1.6408 -0.4306
  305MOL    C9343261   3.451   7.429   7.094 -0.6418 -0.2760  0.0580
  305MOL    C9443262   3.556   7.541   7.079  0.0567 -0.0480 -0.2614
  305MOL    O9543263   3.642   7.519   6.969  0.5068  0.2042 -0.2686
  305MOL    H9643264   3.403   7.421   6.997 -0.2679 -2.1477 -0.0045
  305MOL    H9743265   3.371   7.459   7.162  0.4406  1.9755  0.3826
  305MOL    H9843266   3.609   7.532   7.173 -1.7361 -0.1970  0.7486
  305MOL    H9943267   3.512   7.641   7.075 -1.4049 -0.6048  1.5432
  305MOL   C10043268   3.739   7.621   6.946  0.1018  0.3945  0.1811
  305MOL   C10143269   3.860   7.548   6.885 -0.5423  0.2350  0.5173
  305MOL   O10243270   3.943   7.648   6.827  0.1807 -0.5171  0.2439
  305MOL   H10343271   3.701   7.693   6.874 -2.2159 -3.2739 -2.4292
  305MOL   H10443272   3.767   7.679   7.034 -0.9604  1.0990  0.0624
  305MOL   H10543273   3.833   7.484   6.801  1.4766 -0.5949  0.4792
  305MOL   H10643274   3.906   7.481   6.957 -1.8031 -0.3101  0.8276
  305MOL   C10743275   4.056   7.588   6.767 -0.0081 -0.1363 -0.2043
  305MOL   C10843276   4.163   7.699   6.736  0.2018  0.1879  0.1673
  305MOL   O10943277   4.297   7.654   6.726 -0.2225 -0.2322  0.1547
  305MOL   H11043278   4.101   7.510   6.828  0.7460  1.1951  0.9508
  305MOL   H11143279   4.030   7.521   6.685 -0.0967  0.9321 -1.0541
  305MOL   H11243280   4.158   7.758   6.828  1.4299  0.9106 -0.2163
  305MOL   H11343281   4.141   7.763   6.651  2.5806  0.0640 -0.5688
  305MOL   C11443282   4.325   7.581   6.605 -0.2207  0.3587 -0.1330
  305MOL   C11543283   4.475   7.544   6.602  0.1453 -0.2186  0.6240
  305MOL   O11643284   4.496   7.463   6.487  0.3615  0.7114 -0.1546
  305MOL   H11743285   4.266   7.490   6.599 -0.3275  0.5288 -2.0859
  305MOL   H11843286   4.303   7.637   6.514 -1.2765 -0.7700 -0.5908
  305MOL   H11943287   4.505   7.497   6.695 -2.1636 -2.4272  0.2933
  305MOL   H12043288   4.525   7.641   6.601  0.4753 -0.3852 -0.7057
  305MOL   C12143289   4.627   7.425   6.483 -0.0367  0.4851 -0.0399
  305MOL   C12243290   4.656   7.329   6.357 -0.0886 -0.5885  0.3412
  305MOL   O12343291   4.661   7.409   6.238 -0.3233  0.2136  0.0310
  305MOL   H12443292   4.691   7.512   6.478  2.5460 -1.2484  1.7436
  305MOL   H12543293   4.646   7.358   6.567 -2.0001 -0.8644 -0.6142
  305MOL   H12643294   4.593   7.241   6.349  0.4744 -0.8386 -1.5475
  305MOL   H12743295   4.757   7.295   6.379  0.7018  1.4964  0.0896
  305MOL   C12843296   4.714   7.337   6.129 -0.0620 -0.5611  0.5847
  305MOL   C12943297   4.760   7.422   6.007 -0.0866 -0.0314 -0.1177
  305MOL   O13043298   4.643   7.454   5.936 -0.2878 -0.2293  0.5003
  305MOL   H13143299   4.809   7.294   6.158  2.4548  3.5813 -1.1203
  305MOL   H13243300   4.635   7.268   6.098  0.2816 -1.1012  0.9087
  305MOL   H13343301   4.826   7.357   5.950  0.6799 -0.7162  1.5139
  305MOL   H13443302   4.822   7.506   6.039  1.0896 -1.2150  0.7643
  305MOL   C13543303   4.657   7.517   5.809 -0.5751  0.1070  0.0334
  305MOL   C13643304   4.531   7.556   5.745  0.1904 -0.1626  0.1260
  305MOL   O13743305   4.491   7.451   5.662 -0.2054  0.2280 -0.8556
  305MOL   H13843306   4.704   7.611   5.839 -0.2593 -0.6853  2.1133
  305MOL   H13943307   4.731   7.467   5.746  0.3106  0.6079  0.6641
  305MOL   H14043308   4.552   7.632   5.669  2.7846 -1.6802 -0.7160
  305MOL   H14143309   4.469   7.600   5.823  1.1689  0.0543  0.7878
  305MOL   H14243310   4.478   7.382   5.726  0.2859  0.9835  0.0798
  306MOL     C143311   7.373   3.264   2.580  0.0372  0.0843  0.9675
  306MOL     C243312   7.441   3.122   2.580 -0.7903 -0.0520  0.6574
  306MOL     O343313   7.428   3.071   2.440 -0.5995  0.1239 -0.5348
  306MOL     H443314   7.431   3.339   2.526  1.5322  0.8381  3.5169
  306MOL     H543315   7.362   3.305   2.681 -1.3927 -1.5193  1.4920
  306MOL     H643316   7.393   3.062   2.657  0.4275  1.1692  2.4099
  306MOL     H743317   7.548   3.121   2.600 -0.2800 -1.7835 -1.8143
  306MOL     H843318   7.275   3.269   2.533  1.0803  2.0130 -1.0599
  306MOL     C943319   7.428   2.931   2.432  0.0482  0.0249 -0.1986
  306MOL    C1043320   7.391   2.884   2.287 -0.0404  0.6596  0.5181
  306MOL    O1143321   7.251   2.891   2.276  0.6928  0.1458 -0.3434
  306MOL    H1243322   7.525   2.897   2.468 -0.8289 -0.4094  1.8224
  306MOL    H1343323   7.352   2.880   2.491  0.5324 -3.0895 -2.1303
  306MOL    H1443324   7.428   2.782   2.270  0.2435  0.7412  0.6427
  306MOL    H1543325   7.454   2.943   2.221  1.9162 -1.5071  0.3767
  306MOL    C1643326   7.217   2.878   2.133 -0.1029  0.5861  0.1088
  306MOL    C1743327   7.068   2.847   2.115 -0.8021  0.6175 -0.2709
  306MOL    O1843328   7.032   2.718   2.166 -0.0807 -0.7576 -0.1348
  306MOL    H1943329   7.247   2.966   2.076  1.9103  0.2880  0.6930
  306MOL    H2043330   7.273   2.795   2.090  0.2031  0.3463  0.9521
  306MOL    H2143331   7.034   2.856   2.012  0.5009  1.9406 -0.6060
  306MOL    H2243332   7.013   2.926   2.166 -2.0180 -0.2157 -0.2712
  306MOL    C2343333   6.896   2.683   2.144 -0.1403  0.3057  0.2253
  306MOL    C2443334   6.853   2.546   2.188  0.7895  0.0471  0.5964
  306MOL    O2543335   6.910   2.443   2.110 -0.2842 -0.1905  0.0581
  306MOL    H2643336   6.832   2.757   2.192 -1.4448 -0.0687 -0.9026
  306MOL    H2743337   6.880   2.685   2.036  0.0166 -1.3515  0.1590
  306MOL    H2843338   6.746   2.537   2.206  0.8953 -1.1277  0.6860
  306MOL    H2943339   6.898   2.529   2.286  2.9430  0.8205 -0.2423
  306MOL    C3043340   6.875   2.309   2.135  0.0864  0.5481  0.0664
  306MOL    C3143341   6.999   2.232   2.169 -0.3331 -0.1404  0.1978
  306MOL    O3243342   7.077   2.219   2.052  0.4343 -0.4702 -0.2255
  306MOL    H3343343   6.803   2.310   2.216  0.4883  2.3434  0.4254
  306MOL    H3443344   6.823   2.259   2.054 -0.9502  0.7063  0.6310
  306MOL    H3543345   6.973   2.132   2.203  1.3494 -0.3605  0.8839
  306MOL    H3643346   7.049   2.272   2.256 -2.0438  2.1591  0.1684
  306MOL    C3743347   7.204   2.166   2.082  0.1686 -0.1337  0.1423
  306MOL    C3843348   7.311   2.182   1.970  0.7547  0.2036 -0.3898
  306MOL    O3943349   7.311   2.084   1.870 -0.2438  0.1993 -0.3330
  306MOL    H4043350   7.238   2.194   2.182 -0.4248 -0.0977  0.3328
  306MOL    H4143351   7.212   2.059   2.096  0.3863 -0.6638 -3.4340
  306MOL    H4243352   7.407   2.167   2.020  0.0401 -0.4277  0.8237
  306MOL    H4343353   7.308   2.285   1.937  2.9001  0.5067  0.2439
  306MOL    C4443354   7.274   2.114   1.741 -0.2247  0.0746 -0.2162
  306MOL    C4543355   7.321   2.000   1.645 -0.5941 -0.0314  0.1560
  306MOL    O4643356   7.453   2.012   1.591 -0.0411 -0.4044  0.0134
  306MOL    H4743357   7.167   2.124   1.729 -0.1668 -1.2804 -1.9180
  306MOL    H4843358   7.320   2.209   1.712  0.4058  0.0578  0.6862
  306MOL    H4943359   7.247   2.000   1.564 -1.0018 -3.4641  0.4505
  306MOL    H5043360   7.302   1.906   1.696  0.2681 -0.3352 -0.0675
  306MOL    C5143361   7.484   1.904   1.508  0.8515  0.5299 -0.0662
  306MOL    C5243362   7.606   1.932   1.408  0.0163  0.3634 -0.6362
  306MOL    O5343363   7.569   2.011   1.293  0.0582  0.3650 -0.0464
  306MOL    H5443364   7.522   1.828   1.576 -2.1905  0.4625  1.6750
  306MOL    H5543365   7.397   1.867   1.454  1.1325  0.1741 -0.2744
  306MOL    H5643366   7.654   1.841   1.374 -2.7085 -0.7144 -1.7762
  306MOL    H5743367   7.689   1.972   1.465  0.4758 -2.3905  0.6898
  306MOL    C5843368   7.545   2.150   1.325  0.2128 -0.1341 -0.2226
  306MOL    C5943369   7.671   2.230   1.372 -0.8058  0.0377  0.0493
  306MOL    O6043370   0.023   2.182   1.313 -0.5418 -0.3133  0.3340
  306MOL    H6143371   7.504   2.209   1.243 -2.5193  0.0278  1.1859
  306MOL    H6243372   7.465   2.159   1.398 -0.6616 -0.7120 -1.0923
  306MOL    H6343373   7.674   2.236   1.480 -0.2904 -0.0545  0.0392
  306MOL    H6443374   7.646   2.333   1.348 -2.3650  0.1073  1.8591
  306MOL    C6543375   0.125   2.265   1.354 -0.2663  0.9556  0.5480
  306MOL    C6643376   0.247   2.252   1.263 -0.3229  0.5766 -0.1717
  306MOL    O6743377   0.294   2.118   1.261  0.2703  0.3582 -0.6718
  306MOL    H6843378   0.098   2.370   1.347  0.1042  0.9211 -1.6520
  306MOL    H6943379   0.142   2.246   1.460  0.6756 -0.9249  0.0839
  306MOL    H7043380   0.327   2.310   1.310  1.4978 -1.6962 -0.3601
  306MOL    H7143381   0.230   2.274   1.157  1.0007  2.5211 -0.0108
  306MOL    C7243382   0.426   2.098   1.208  0.3796  0.3791  0.6499
  306MOL    C7343383   0.547   2.138   1.302 -0.4314  0.0137  0.3218
  306MOL    O7443384   0.585   2.275   1.275  0.0822  0.3275 -0.1930
  306MOL    H7543385   0.446   1.996   1.174  4.3662  1.2504  0.1419
  306MOL    H7643386   0.435   2.164   1.121 -0.4783  1.9644  1.7459
  306MOL    H7743387   0.632   2.080   1.266 -2.3724 -2.2785 -0.6737
  306MOL    H7843388   0.542   2.123   1.410 -0.5876 -1.2601  0.1431
  306MOL    C7943389   0.699   2.323   1.340 -0.4393 -0.6637  0.4000
  306MOL    C8043390   0.735   2.460   1.284  0.7734 -0.2498 -0.2723
  306MOL    O8143391   0.876   2.465   1.268 -0.2065  0.0818 -0.0354
  306MOL    H8243392   0.672   2.328   1.445 -0.1564  0.0071  0.4481
  306MOL    H8343393   0.783   2.255   1.323 -0.5220 -0.8335  0.6725
  306MOL    H8443394   0.680   2.536   1.340 -1.3255 -2.5705  0.9030
  306MOL    H8543395   0.686   2.465   1.186  0.0874 -0.6679  0.0428
  306MOL    C8643396   0.936   2.586   1.321  0.0683  0.1192  0.9078
  306MOL    C8743397   0.881   2.719   1.257  0.3171 -0.7264 -0.1826
  306MOL    O8843398   0.746   2.755   1.302  0.2299  0.3923  0.0130
  306MOL    H8943399   0.922   2.593   1.429  0.8969  2.7233  0.8735
  306MOL    H9043400   1.036   2.568   1.283  0.7177  0.6245  2.3351
  306MOL    H9143401   0.890   2.709   1.149  0.6686  0.3453 -0.2565
  306MOL    H9243402   0.953   2.795   1.288  0.2788  0.2768 -2.5017
  306MOL    C9343403   0.708   2.890   1.265  0.4956  0.9730 -0.6826
  306MOL    C9443404   0.556   2.903   1.291  0.1695 -0.1506  0.3492
  306MOL    O9543405   0.461   2.843   1.201 -0.0455 -0.3293  0.0244
  306MOL    H9643406   0.771   2.953   1.327 -0.1014  0.9915 -0.0927
  306MOL    H9743407   0.733   2.900   1.159  2.2238  1.3450 -0.2430
  306MOL    H9843408   0.540   3.010   1.303 -0.4209 -0.0836 -0.8847
  306MOL    H9943409   0.540   2.855   1.387  0.5117  0.2559  0.6118
  306MOL   C10043410   0.467   2.700   1.197 -0.6541 -0.2381 -0.1454
  306MOL   C10143411   0.331   2.653   1.135 -0.2257  0.4511 -0.5140
  306MOL   O10243412   0.220   2.667   1.226  0.3624 -0.2527 -0.3077
  306MOL   H10343413   0.554   2.662   1.145 -0.2933 -0.5230  0.6497
  306MOL   H10443414   0.472   2.660   1.299  0.1760 -0.6756 -0.3551
  306MOL   H10543415   0.339   2.548   1.104 -0.4808  0.8749 -2.0462
  306MOL   H10643416   0.322   2.706   1.040 -1.0666 -0.8682 -1.1810
  306MOL   C10743417   0.100   2.633   1.166 -0.0661  0.5611  0.0570
  306MOL   C10843418   7.763   2.671   1.267 -0.3140  0.1802 -0.2571
  306MOL   O10943419   0.002   2.570   1.368  0.1458  0.7352  0.6235
  306MOL   H11043420   0.085   2.687   1.073 -0.0152 -1.8264 -1.3624
  306MOL   H11143421   0.084   2.528   1.143  0.2510  0.5453 -0.0862
  306MOL   H11243422   7.664   2.680   1.221 -0.0306  1.5718 -0.6150
  306MOL   H11343423   0.014   2.771   1.305 -0.6122  0.4417 -0.7581
  306MOL   C11443424   7.743   2.625   1.492  0.5401  0.6838  0.0057
  306MOL   C11543425   0.104   2.687   1.547 -0.1662  0.2214  0.0312
  306MOL   O11643426   0.192   2.578   1.564  0.0399  0.3515  0.0399
  306MOL   H11743427   7.660   2.695   1.490  2.1520  2.6403 -0.4851
  306MOL   H11843428   7.713   2.543   1.557  0.2297 -1.2475 -2.5058
  306MOL   H11943429   0.092   2.758   1.629  1.8945  0.8315 -0.1826
  306MOL   H12043430   0.133   2.756   1.467 -2.1914  2.1133  0.8643
  306MOL   C12143431   0.324   2.615   1.584  0.1294  0.8032 -0.4330
  306MOL   C12243432   0.405   2.483   1.599 -0.3143 -0.0261  0.7157
  306MOL   O12343433   0.416   2.434   1.731 -0.3495  0.8623  0.0515
  306MOL   H12443434   0.357   2.661   1.491 -0.2737  0.9693 -0.4921
  306MOL   H12543435   0.336   2.681   1.669  2.9001 -1.1575  0.7770
  306MOL   H12643436   0.505   2.510   1.564 -1.0452  1.0979 -0.5740
  306MOL   H12743437   0.366   2.413   1.526  2.4390 -1.3841  0.4816
  306MOL   C12843438   0.288   2.408   1.797 -0.3719 -0.1477 -0.7574
  306MOL   C12943439   0.316   2.331   1.931 -0.0257 -0.7816 -0.4425
  306MOL   O13043440   0.316   2.414   2.044 -0.0784  0.0094  0.1719
  306MOL   H13143441   0.234   2.498   1.828  0.4005  0.1228 -0.1706
  306MOL   H13243442   0.229   2.360   1.719  1.1038 -0.4119 -1.7467
  306MOL   H13343443   0.403   2.265   1.922  0.4142 -0.3098  0.2890
  306MOL   H13443444   0.239   2.255   1.947 -1.2604  0.4971 -0.3117
  306MOL   C13543445   0.356   2.351   2.158 -0.3814 -0.5302 -0.4418
  306MOL   C13643446   0.396   2.434   2.280  0.7044 -0.5752  0.9505
  306MOL   O13743447   0.392   2.331   2.378 -0.1809 -0.0303 -0.1879
  306MOL   H13843448   0.268   2.299   2.195  1.1071 -1.8364  1.3591
  306MOL   H13943449   0.434   2.279   2.132  0.6689  0.5595 -0.3497
  306MOL   H14043450   0.322   2.507   2.310 -0.4627 -1.6141  0.6428
  306MOL   H14143451   0.498   2.473   2.273 -0.3082  2.5072  2.5728
  306MOL   H14243452   0.439   2.340   2.459 -2.6903 -0.9985  1.4123
  307MOL     C143453   5.114   3.961   0.939 -0.2987  0.6246  0.2231
  307MOL     C243454   4.983   4.043   0.949 -0.7331  0.1837 -0.4583
  307MOL     O343455   4.999   4.152   0.856 -0.4683 -0.7893 -0.0631
  307MOL     H443456   5.117   3.885   1.017 -1.1170 -0.0077 -0.3528
  307MOL     H543457   5.202   4.023   0.956 -1.0100  1.0551  2.4777
  307MOL     H643458   4.958   4.079   1.048  1.1422 -1.1916  0.5422
  307MOL     H743459   4.917   3.964   0.914 -0.5180  0.4441 -1.4879
  307MOL     H843460   5.128   3.910   0.844 -0.7773  2.8592 -1.0911
  307MOL     C943461   4.870   4.207   0.834  0.3384 -0.5027  0.0654
  307MOL    C1043462   4.883   4.325   0.740 -0.7211 -0.1715  0.1539
  307MOL    O1143463   4.754   4.391   0.727 -0.2695  0.0788  0.3422
  307MOL    H1243464   4.802   4.139   0.783 -0.2148 -0.4890  0.7705
  307MOL    H1343465   4.831   4.247   0.928  0.6089  1.2043 -0.5395
  307MOL    H1443466   4.909   4.296   0.638  0.6591  0.7704  0.2251
  307MOL    H1543467   4.952   4.402   0.772 -1.2473 -0.0887  1.0968
  307MOL    C1643468   4.752   4.514   0.659  0.8569 -0.2233  0.5727
  307MOL    C1743469   4.616   4.578   0.631 -0.6392 -0.2043  0.4377
  307MOL    O1843470   4.552   4.641   0.739  0.0778 -0.2208 -0.2081
  307MOL    H1943471   4.816   4.586   0.711 -1.6644  2.1884  0.4181
  307MOL    H2043472   4.801   4.494   0.563  1.0728 -1.0590  0.8571
  307MOL    H2143473   4.554   4.500   0.585 -0.3694 -0.3830  0.3743
  307MOL    H2243474   4.632   4.660   0.562  2.0550 -1.7676 -0.8714
  307MOL    C2343475   4.425   4.690   0.704 -0.0652 -0.1191 -0.2293
  307MOL    C2443476   4.370   4.756   0.825  0.2974 -0.2692  0.0562
  307MOL    O2543477   4.235   4.776   0.811 -0.5004 -0.2029 -0.0387
  307MOL    H2643478   4.432   4.767   0.628 -0.2405  0.2701  0.1482
  307MOL    H2743479   4.357   4.621   0.654  0.9997 -0.0544 -1.8183
  307MOL    H2843480   4.416   4.854   0.834  0.8026 -0.3779 -1.2611
  307MOL    H2943481   4.387   4.686   0.907 -2.0947  2.1792  2.7628
  307MOL    C3043482   4.169   4.841   0.922 -0.0811 -0.3368 -0.0143
  307MOL    C3143483   4.032   4.891   0.879  0.2534  0.0532 -0.0639
  307MOL    O3243484   3.937   4.786   0.864 -0.0078 -0.1515  0.1766
  307MOL    H3343485   4.160   4.765   1.000 -0.2310  0.9348  1.2353
  307MOL    H3443486   4.221   4.926   0.967  0.2680 -1.6432  2.1334
  307MOL    H3543487   4.044   4.934   0.779 -0.2951 -0.9471 -0.5656
  307MOL    H3643488   3.989   4.967   0.944  0.2665 -0.4980  0.5993
  307MOL    C3743489   3.820   4.821   0.793  0.5147 -0.2747 -0.5751
  307MOL    C3843490   3.737   4.699   0.756 -0.1758 -0.7535 -0.1284
  307MOL    O3943491   3.661   4.655   0.870  0.3439  0.0383  0.2520
  307MOL    H4043492   3.766   4.886   0.862 -0.1678 -0.7395 -0.6676
  307MOL    H4143493   3.845   4.877   0.703 -1.2316  0.6037 -0.5446
  307MOL    H4243494   3.798   4.620   0.712  0.7725  0.8686 -1.7881
  307MOL    H4343495   3.672   4.729   0.674 -0.5972 -0.1587  0.4193
  307MOL    C4443496   3.560   4.559   0.838 -1.0472 -0.1331  1.3425
  307MOL    C4543497   3.515   4.473   0.962 -0.2279 -0.3466 -0.6967
  307MOL    O4643498   3.627   4.400   1.011 -0.6154 -0.3763  0.5518
  307MOL    H4743499   3.478   4.613   0.790 -0.5797 -0.5458  0.0349
  307MOL    H4843500   3.597   4.492   0.760  0.5441  0.8283  1.2281
  307MOL    H4943501   3.434   4.406   0.934  0.7997 -1.5140 -0.8885
  307MOL    H5043502   3.494   4.541   1.044 -2.1851 -0.5239 -1.0346
  307MOL    C5143503   3.606   4.346   1.145 -0.9616  0.6966  0.3366
  307MOL    C5243504   3.717   4.253   1.168  0.5269  0.1120  0.2085
  307MOL    O5343505   3.705   4.155   1.061 -0.6505  0.0330 -0.1651
  307MOL    H5443506   3.612   4.423   1.222  0.4663  0.6590  0.2883
  307MOL    H5543507   3.508   4.299   1.148  0.3549 -2.1873 -0.6039
  307MOL    H5643508   3.701   4.211   1.267 -0.5955 -0.1580 -0.0753
  307MOL    H5743509   3.815   4.300   1.171  0.6261 -0.1747  2.4268
  307MOL    C5843510   3.787   4.042   1.090  0.2541 -0.1764 -0.4595
  307MOL    C5943511   3.767   3.955   0.963 -0.0083  0.2905 -0.1594
  307MOL    O6043512   3.636   3.899   0.944 -0.5540  0.0909 -0.0567
  307MOL    H6143513   3.891   4.069   1.106  0.3671 -0.9597  0.1819
  307MOL    H6243514   3.758   4.008   1.190  1.3957  1.9850  0.6237
  307MOL    H6343515   3.847   3.882   0.945 -1.2813 -0.8621 -1.2752
  307MOL    H6443516   3.768   4.015   0.873  0.8757 -1.1141 -1.1146
  307MOL    C6543517   3.601   3.793   1.025 -0.0560 -0.3273  0.3552
  307MOL    C6643518   3.500   3.708   0.951  0.4788  0.2498 -0.6145
  307MOL    O6743519   3.494   3.580   1.018 -0.6421 -0.3650  0.8247
  307MOL    H6843520   3.687   3.728   1.038  0.3199 -0.2741 -1.6855
  307MOL    H6943521   3.545   3.823   1.114 -0.0540 -0.1928  0.3110
  307MOL    H7043522   3.530   3.683   0.849  3.3138  2.8745 -0.5187
  307MOL    H7143523   3.403   3.756   0.962  0.9395  0.5229  2.7401
  307MOL    C7243524   3.400   3.482   0.977 -0.5304 -0.1577  0.0632
  307MOL    C7343525   3.433   3.341   1.039 -0.3147  0.2711  0.2942
  307MOL    O7443526   3.349   3.236   0.992  0.2729  0.4562  0.2660
  307MOL    H7543527   3.295   3.508   0.993 -1.0709 -1.7561 -0.8267
  307MOL    H7643528   3.422   3.462   0.873  0.3700  0.7326  0.0744
  307MOL    H7743529   3.431   3.346   1.148 -1.9472  1.5444  0.2207
  307MOL    H7843530   3.535   3.326   1.004  0.1215  2.1840  0.7047
  307MOL    C7943531   3.372   3.108   1.059 -0.1166 -0.1318 -0.1099
  307MOL    C8043532   3.505   3.051   1.041 -0.0936 -0.1212  0.0731
  307MOL    O8143533   3.516   3.002   0.903 -0.4358  0.1470  0.4576
  307MOL    H8243534   3.345   3.113   1.165 -0.2242  1.3224 -0.2045
  307MOL    H8343535   3.302   3.038   1.012  2.6672 -4.2925  1.6007
  307MOL    H8443536   3.509   2.967   1.110 -1.8473 -0.1927  0.0958
  307MOL    H8543537   3.592   3.113   1.063  0.1889  0.6676 -2.9667
  307MOL    C8643538   3.640   2.951   0.871  0.1026 -0.0852  0.4240
  307MOL    C8743539   3.639   2.890   0.731 -0.2465 -0.0482 -0.9040
  307MOL    O8843540   3.547   2.779   0.750  0.2693  0.0257  1.0152
  307MOL    H8943541   3.715   3.029   0.862  0.8684 -1.0733 -2.3329
  307MOL    H9043542   3.666   2.875   0.945 -1.1121 -0.4361  0.5107
  307MOL    H9143543   3.741   2.864   0.704 -0.6210 -0.6025 -1.8325
  307MOL    H9243544   3.597   2.971   0.671 -2.1148  0.2696  0.7961
  307MOL    C9343545   3.505   2.722   0.625  0.2428 -0.1295  0.3666
  307MOL    C9443546   3.402   2.800   0.540 -0.6151  0.1965  0.2188
  307MOL    O9543547   3.278   2.813   0.599  0.2686  0.1533  0.0810
  307MOL    H9643548   3.596   2.684   0.576  0.8990  0.9079  0.7711
  307MOL    H9743549   3.460   2.626   0.649  0.5880 -1.1867 -2.8693
  307MOL    H9843550   3.397   2.748   0.444 -1.5573  2.7338 -1.1522
  307MOL    H9943551   3.452   2.895   0.523  0.6192 -0.2362  1.3219
  307MOL   C10043552   3.263   2.928   0.684  0.1493 -0.7198  0.1046
  307MOL   C10143553   3.121   2.935   0.753  0.3766  0.0415  0.2641
  307MOL   O10243554   3.013   2.958   0.662 -0.2562  0.1075  0.0921
  307MOL   H10343555   3.331   2.934   0.768 -0.4817  1.1765  0.5259
  307MOL   H10443556   3.264   3.017   0.621 -0.0346 -0.9355 -0.2041
  307MOL   H10543557   3.129   3.004   0.837  0.6861  0.4401 -0.0930
  307MOL   H10643558   3.107   2.838   0.803  0.6425 -1.0031 -1.6517
  307MOL   C10743559   2.890   2.992   0.722  0.4420 -0.5533  0.5050
  307MOL   C10843560   2.772   2.951   0.625 -0.2381 -0.1722 -0.4569
  307MOL   O10943561   2.726   2.821   0.642 -0.4241  0.2279  0.4326
  307MOL   H11043562   2.891   2.947   0.821  2.0964  0.8607  1.1627
  307MOL   H11143563   2.876   3.097   0.745  2.4337 -0.1984  0.2527
  307MOL   H11243564   2.803   2.960   0.521  0.8520  2.5135  0.0618
  307MOL   H11343565   2.683   3.013   0.639 -2.1604 -3.1651  1.1904
  307MOL   C11443566   2.822   2.727   0.617  0.2270  0.0696 -0.0557
  307MOL   C11543567   2.734   2.590   0.603  0.2355 -0.3163  0.6409
  307MOL   O11643568   2.646   2.587   0.494 -0.4229 -0.0806 -0.4063
  307MOL   H11743569   2.876   2.750   0.525 -0.7865  0.4040 -0.5758
  307MOL   H11843570   2.888   2.709   0.702  1.8407 -0.5393 -1.4165
  307MOL   H11943571   2.663   2.586   0.686 -0.3883 -2.1171  0.0256
  307MOL   H12043572   2.796   2.501   0.613  0.4391 -0.0728  1.6966
  307MOL   C12143573   2.702   2.604   0.367  0.4810  0.0436 -0.2351
  307MOL   C12243574   2.603   2.547   0.270 -0.2118 -0.2648  0.0214
  307MOL   O12343575   2.640   2.416   0.233  0.0447  0.3989 -0.0542
  307MOL   H12443576   2.728   2.708   0.347 -0.1443 -0.1195 -2.0001
  307MOL   H12543577   2.794   2.548   0.349  0.2829 -0.1764 -0.5700
  307MOL   H12643578   2.610   2.609   0.181 -2.4996 -3.1479 -2.2731
  307MOL   H12743579   2.501   2.552   0.310  0.1691  0.9731  0.8848
  307MOL   C12843580   2.523   2.344   0.172 -0.7009  0.2736  0.2707
  307MOL   C12943581   2.579   2.220   0.090 -0.1691  0.0213 -0.1749
  307MOL   O13043582   2.611   2.273   7.730 -0.3479  0.1824  0.2988
  307MOL   H13143583   2.458   2.320   0.257  1.4839 -3.7408  0.9675
  307MOL   H13243584   2.465   2.402   0.101 -2.4572 -0.3846  1.1193
  307MOL   H13343585   2.494   2.152   0.093  0.6813 -1.0342  0.4591
  307MOL   H13443586   2.659   2.166   0.141 -1.2901 -1.1202  0.4175
  307MOL   C13543587   2.734   2.351   7.731  0.9438  0.2290  0.7152
  307MOL   C13643588   2.759   2.358   7.584 -0.2982 -0.6436 -0.5032
  307MOL   O13743589   2.706   2.479   7.527  0.1203 -0.0281  0.2563
  307MOL   H13843590   2.720   2.453   7.765 -0.9690 -0.2527  1.4069
  307MOL   H13943591   2.807   2.300   0.024  0.4316 -0.9888  0.3525
  307MOL   H14043592   2.738   2.271   7.522 -1.4365 -0.3799 -0.4950
  307MOL   H14143593   2.867   2.376   7.580 -0.1829  0.0997  3.4484
  307MOL   H14243594   2.612   2.477   7.537  0.3047  0.0716  2.1877
  308MOL     C143595   5.925   3.801   7.205  0.0698  0.4679 -0.1848
  308MOL     C243596   5.844   3.690   7.261  0.4601  0.5120  0.5273
  308MOL     O343597   5.734   3.665   7.168  0.0694 -0.3761 -0.5735
  308MOL     H443598   6.023   3.805   7.253 -0.5576  0.1969  1.1565
  308MOL     H543599   5.879   3.894   7.238  0.4973  0.2525  1.0800
  308MOL     H643600   5.807   3.711   7.361  3.0058  1.6706  1.2607
  308MOL     H743601   5.893   3.593   7.267 -1.3719 -0.6876 -2.5433
  308MOL     H843602   5.927   3.800   7.096 -0.0045 -0.7579 -0.1835
  308MOL     C943603   5.638   3.577   7.220  0.1507 -0.1518  0.5664
  308MOL    C1043604   5.505   3.646   7.255  0.4209 -0.3615 -0.1930
  308MOL    O1143605   5.516   3.734   7.363 -0.5352 -0.2808  0.3050
  308MOL    H1243606   5.626   3.496   7.147  3.1262  0.0764 -0.2209
  308MOL    H1343607   5.664   3.533   7.316 -1.5202  0.4605  1.3247
  308MOL    H1443608   5.434   3.566   7.276 -0.7698  0.3889 -1.2619
  308MOL    H1543609   5.466   3.703   7.170 -1.5762 -0.6481  0.4898
  308MOL    C1643610   5.389   3.784   7.405  0.6717 -0.7906  0.1987
  308MOL    C1743611   5.400   3.839   7.550 -0.3326  0.5246  0.0625
  308MOL    O1843612   5.278   3.860   7.620  0.6348  0.3949  0.4420
  308MOL    H1943613   5.344   3.857   7.337  1.9878 -0.1198  0.0275
  308MOL    H2043614   5.319   3.701   7.406  1.5514 -1.5656 -0.5343
  308MOL    H2143615   5.455   3.932   7.535  0.3223  0.5518  2.4634
  308MOL    H2243616   5.460   3.767   7.606 -2.2272  0.6978  2.3797
  308MOL    C2343617   5.191   3.954   7.552  0.2071 -0.6428  1.3304
  308MOL    C2443618   5.088   4.019   7.648 -0.3319 -0.0971  0.4501
  308MOL    O2543619   4.985   3.922   7.666  0.2522 -0.5204  0.6107
  308MOL    H2643620   5.250   4.021   7.489  2.3632 -3.1354  0.6189
  308MOL    H2743621   5.146   3.877   7.490  0.8393  0.5522 -0.6341
  308MOL    H2843622   5.050   4.101   7.587 -1.5579 -0.4567  0.7210
  308MOL    H2943623   5.137   4.066   7.733  0.6556  1.3171 -0.8557
  308MOL    C3043624   4.869   3.969   7.736 -0.0364  0.5132  0.7064
  308MOL    C3143625   4.777   3.848   7.743  0.1314 -0.4239 -0.6057
  308MOL    O3243626   4.673   3.879   0.060  0.0230 -0.3484 -0.0586
  308MOL    H3343627   4.899   3.993   0.067  2.0981 -0.6831  0.3910
  308MOL    H3443628   4.822   4.059   7.696 -0.3198  0.5176  1.0529
  308MOL    H3543629   4.829   3.761   0.013  2.9596  0.3445 -2.3598
  308MOL    H3643630   4.749   3.812   7.644  2.4486 -1.1296 -1.0461
  308MOL    C3743631   4.566   3.790   0.077  0.4875  0.8449  0.0655
  308MOL    C3843632   4.497   3.842   0.201  0.2910  0.4045  0.0551
  308MOL    O3943633   4.392   3.757   0.252  0.4650  0.5196 -0.1844
  308MOL    H4043634   4.499   3.781   7.762 -1.3928 -3.2453  1.8008
  308MOL    H4143635   4.597   3.687   0.094  0.7092  1.3343  2.7265
  308MOL    H4243636   4.458   3.942   0.179 -1.5416 -0.6097 -1.3933
  308MOL    H4343637   4.569   3.847   0.283  2.1090 -1.5164 -1.3853
  308MOL    C4443638   4.318   3.817   0.359  0.4307 -0.1897  0.2963
  308MOL    C4543639   4.228   3.712   0.422 -0.3055  0.2969  0.1199
  308MOL    O4643640   4.109   3.698   0.344 -0.3093 -0.6129 -0.2759
  308MOL    H4743641   4.384   3.827   0.445 -1.5691  1.4254  1.7091
  308MOL    H4843642   4.270   3.908   0.323  0.3222  0.6244  2.4097
  308MOL    H4943643   4.198   3.741   0.523  3.7208 -0.7150  1.6934
  308MOL    H5043644   4.277   3.615   0.422  0.3439  0.6045 -2.3394
  308MOL    C5143645   4.011   3.616   0.404 -0.0724  0.0030  0.4500
  308MOL    C5243646   3.888   3.625   0.318 -0.0352  0.0828 -1.0277
  308MOL    O5343647   3.778   3.541   0.366  0.3649  0.3253 -0.2989
  308MOL    H5443648   4.041   3.513   0.426  1.0127  0.1455 -0.3489
  308MOL    H5543649   3.998   3.656   0.505  2.6176 -0.4021  0.9964
  308MOL    H5643650   3.916   3.578   0.224  1.2921 -0.3122 -0.4414
  308MOL    H5743651   3.867   3.731   0.302  0.3872  0.5987  1.5842
  308MOL    C5843652   3.652   3.554   0.299 -0.3407  0.0596  0.8576
  308MOL    C5943653   3.550   3.465   0.371  0.4852 -0.0102  0.2313
  308MOL    O6043654   3.528   3.345   0.301  0.2526  0.2081 -0.1681
  308MOL    H6143655   3.616   3.657   0.300 -0.7887 -0.0922  0.3182
  308MOL    H6243656   3.658   3.519   0.196 -0.5162 -2.3777  1.6498
  308MOL    H6343657   3.456   3.520   0.378  1.0241  1.3278 -2.5570
  308MOL    H6443658   3.574   3.459   0.477  0.6373  2.3974  0.3585
  308MOL    C6543659   3.618   3.245   0.340  0.8074  0.0224 -0.1355
  308MOL    C6643660   3.574   3.117   0.273  0.1209 -0.3652 -0.0637
  308MOL    O6743661   3.672   3.013   0.276  0.2151  0.0881 -0.7552
  308MOL    H6843662   3.718   3.280   0.312  0.0857  0.6647 -1.9538
  308MOL    H6943663   3.621   3.234   0.449 -3.7217 -0.3797  0.0341
  308MOL    H7043664   3.560   3.131   0.166 -0.9634 -0.8596  0.0084
  308MOL    H7143665   3.477   3.105   0.322  0.0224 -1.4346 -0.5122
  308MOL    C7243666   3.636   2.895   0.202  0.1221  0.4478 -0.3822
  308MOL    C7343667   3.745   2.780   0.210 -0.5351  0.6040 -0.1947
  308MOL    O7443668   3.850   2.829   0.134 -0.0873  0.2350 -0.0510
  308MOL    H7543669   3.540   2.861   0.241  0.7711  0.6443  1.4303
  308MOL    H7643670   3.621   2.914   0.096 -1.7291  1.2647  0.0108
  308MOL    H7743671   3.700   2.692   0.164  0.4038  1.3322 -2.5863
  308MOL    H7843672   3.780   2.752   0.309 -1.7189  0.1667  0.1106
  308MOL    C7943673   3.948   2.724   0.118  0.4480  0.4435  0.2860
  308MOL    C8043674   4.059   2.781   0.035 -0.2500  0.5176  0.2879
  308MOL    O8143675   4.040   2.751   7.663 -0.0647  0.0973  0.2336
  308MOL    H8243676   3.986   2.691   0.214  0.6890 -0.1366 -0.0088
  308MOL    H8343677   3.912   2.630   0.076  0.9997 -0.0392  0.8877
  308MOL    H8443678   4.146   2.720   0.060 -0.3485 -0.3839 -1.4887
  308MOL    H8543679   4.081   2.886   0.052  0.0619  0.4092  0.5455
  308MOL    C8643680   4.128   2.833   7.589 -0.0479  0.4664 -0.6915
  308MOL    C8743681   4.086   2.837   7.434  0.1004  0.6090  0.3024
  308MOL    O8843682   3.972   2.910   7.415 -0.3311  0.0433 -0.4418
  308MOL    H8943683   4.118   2.934   7.629  1.4400  0.2635  0.2304
  308MOL    H9043684   4.230   2.800   7.606 -1.1497 -1.5822  2.3246
  308MOL    H9143685   4.063   2.736   7.399 -2.6480  1.3918 -0.2867
  308MOL    H9243686   4.173   2.877   7.381 -1.4657  1.4320 -1.6961
  308MOL    C9343687   3.907   2.912   7.282  0.3175  0.2576 -0.7880
  308MOL    C9443688   4.011   2.966   7.180  0.0411  0.6328 -0.7103
  308MOL    O9543689   3.944   3.044   7.081 -0.7307  0.1572 -0.9761
  308MOL    H9643690   3.864   2.816   7.253 -1.0540  0.4931  0.3562
  308MOL    H9743691   3.824   2.982   7.279 -0.8542 -0.9883  1.0046
  308MOL    H9843692   4.079   2.892   7.136  0.8127  0.3820  0.8463
  308MOL    H9943693   4.066   3.040   7.238 -0.8827 -2.0056  3.7950
  308MOL   C10043694   3.884   2.964   6.984 -0.8574 -0.3513  0.3340
  308MOL   C10143695   3.809   3.049   6.882  0.1993  0.1054  0.2555
  308MOL   O10243696   3.762   2.956   6.779 -0.0954 -0.7029 -0.0783
  308MOL   H10343697   3.960   2.913   6.925 -0.3683 -0.4724  1.0647
  308MOL   H10443698   3.817   2.888   7.023 -3.6953  1.4900 -0.8160
  308MOL   H10543699   3.890   3.112   6.844  1.8992 -1.9780  0.3356
  308MOL   H10643700   3.731   3.108   6.930 -0.4413 -0.7044  0.2060
  308MOL   C10743701   3.697   3.013   6.665  0.5192  1.2202  0.0685
  308MOL   C10843702   3.614   2.913   6.593 -0.6417  0.2591 -0.8221
  308MOL   O10943703   3.510   2.850   6.669 -0.4063 -0.4199  0.3906
  308MOL   H11043704   3.634   3.095   6.700 -0.5189 -0.3235  1.9122
  308MOL   H11143705   3.754   3.063   6.587 -0.0226 -0.0305 -1.1612
  308MOL   H11243706   3.676   2.840   6.540  0.1608  2.3395 -2.8252
  308MOL   H11343707   3.560   2.966   6.514 -1.9780 -0.4535 -0.4062
  308MOL   C11443708   3.412   2.939   6.716  0.0872 -0.2174  0.8122
  308MOL   C11543709   3.280   2.867   6.710  0.0685  0.8829  0.3052
  308MOL   O11643710   3.254   2.836   6.576 -0.2733 -0.2575 -0.2200
  308MOL   H11743711   3.433   3.002   6.803  1.4990  0.8471 -0.2777
  308MOL   H11843712   3.384   3.020   6.649 -1.7841 -1.9577 -0.5514
  308MOL   H11943713   3.190   2.923   6.735 -0.9978 -0.1996 -0.9951
  308MOL   H12043714   3.300   2.776   6.767  1.1693 -0.7453 -2.5586
  308MOL   C12143715   3.273   2.708   6.531  0.7853 -0.7879 -0.6624
  308MOL   C12243716   3.300   2.700   6.382  0.0890  0.1450 -0.7989
  308MOL   O12343717   3.186   2.728   6.300 -0.7034 -0.5640  0.1773
  308MOL   H12443718   3.358   2.678   6.593  0.0652  0.2382  0.8608
  308MOL   H12543719   3.192   2.641   6.560  1.3142 -0.2906  2.2182
  308MOL   H12643720   3.336   2.602   6.351 -1.4207 -0.7399  0.1737
  308MOL   H12743721   3.384   2.763   6.352  0.3068  0.0313 -0.4368
  308MOL   C12843722   3.207   2.759   6.160  0.1733 -0.5641  0.5863
  308MOL   C12943723   3.072   2.767   6.094 -0.1744 -0.2273 -0.0768
  308MOL   O13043724   3.004   2.892   6.104 -0.0643  1.0762 -0.4185
  308MOL   H13143725   3.276   2.844   6.150  0.7028 -1.1307 -0.6657
  308MOL   H13243726   3.259   2.673   6.117 -1.3015 -0.9686 -0.4127
  308MOL   H13343727   3.015   2.679   6.122  1.2169 -1.2597 -0.4172
  308MOL   H13443728   3.074   2.741   5.988  1.0238  2.0144 -0.6490
  308MOL   C13543729   2.894   2.911   6.025 -0.2779 -0.0645  0.2072
  308MOL   C13643730   2.779   2.813   6.051  0.0285 -0.2318  0.0732
  308MOL   O13743731   2.791   2.690   5.972  0.2420 -0.2748 -0.1828
  308MOL   H13843732   2.859   3.012   6.047 -2.3895  0.1684 -3.7284
  308MOL   H13943733   2.919   2.914   5.919 -0.8687  0.8219  0.0840
  308MOL   H14043734   2.698   2.869   6.004  1.2283  0.9833 -0.5607
  308MOL   H14143735   2.763   2.787   6.155 -0.9554 -1.0242 -0.2710
  308MOL   H14243736   2.782   2.712   5.881 -1.9506  1.0883  0.3414
  309MOL     C143737   2.308   7.339   5.428  0.3597 -0.6350 -0.5732
  309MOL     C243738   2.425   7.329   5.331  0.3801  0.0523 -0.4490
  309MOL     O343739   2.403   7.433   5.233 -0.4177  0.1035  0.3953
  309MOL     H443740   2.299   7.261   5.505 -1.2764 -0.5477 -0.6553
  309MOL     H543741   2.214   7.316   5.377 -0.9776  2.8532  0.1670
  309MOL     H643742   2.435   7.235   5.277 -1.5446 -0.2103 -0.3898
  309MOL     H743743   2.522   7.342   5.380  1.1255  0.7584 -2.0725
  309MOL     H843744   2.306   7.440   5.469  3.6637 -0.6029 -0.3397
  309MOL     C943745   2.497   7.448   5.129 -0.6932  0.0163 -0.5759
  309MOL    C1043746   2.427   7.557   5.042  0.2405 -0.0475 -0.2423
  309MOL    O1143747   2.345   7.495   4.948  0.6632 -0.2045 -0.8158
  309MOL    H1243748   2.577   7.499   5.182  2.3336 -3.6837 -1.4000
  309MOL    H1343749   2.528   7.363   5.070  0.2788 -0.2828  0.3578
  309MOL    H1443750   2.494   7.626   4.991  0.7711  0.1125  0.6659
  309MOL    H1543751   2.367   7.625   5.103  0.4093 -0.2764  0.1819
  309MOL    C1643752   2.224   7.441   4.995 -0.1994  0.1210 -1.3728
  309MOL    C1743753   2.144   7.393   4.870 -0.4579 -0.1204  0.1110
  309MOL    O1843754   2.013   7.382   4.919 -0.4006 -0.2280 -0.0761
  309MOL    H1943755   2.232   7.363   5.071 -0.1672  1.3827 -0.0573
  309MOL    H2043756   2.168   7.523   5.040  0.4555 -1.4493  2.5291
  309MOL    H2143757   2.186   7.297   4.837  1.7419  0.4921  0.9988
  309MOL    H2243758   2.146   7.481   4.806  0.3495 -0.6480 -0.6083
  309MOL    C2343759   1.923   7.339   4.815 -0.2260 -0.5194 -0.6736
  309MOL    C2443760   1.780   7.345   4.877 -0.6155 -0.3152  0.2989
  309MOL    O2543761   1.680   7.325   4.778 -0.4101 -0.1205  0.9653
  309MOL    H2643762   1.935   7.414   4.737 -0.1483  0.9814  0.7671
  309MOL    H2743763   1.941   7.234   4.788 -3.1299 -1.8540  2.2729
  309MOL    H2843764   1.769   7.450   4.905 -0.9351  0.3906 -2.3265
  309MOL    H2943765   1.775   7.272   4.958  0.9390 -2.7277 -1.7473
  309MOL    C3043766   1.543   7.319   4.823 -0.1191 -0.3216 -0.4495
  309MOL    C3143767   1.461   7.333   4.692 -0.1441  0.0273  0.2265
  309MOL    O3243768   1.436   7.208   4.639 -0.6950 -0.2681 -0.7973
  309MOL    H3343769   1.513   7.231   4.880 -1.8105 -1.2648 -2.7307
  309MOL    H3443770   1.509   7.392   4.896  0.2304 -1.1378  0.5487
  309MOL    H3543771   1.518   7.407   4.635  0.5641  0.2489  1.2015
  309MOL    H3643772   1.367   7.376   4.727  0.5292 -0.0858  2.2790
  309MOL    C3743773   1.344   7.240   4.531  0.0165 -0.3164 -0.4090
  309MOL    C3843774   1.318   7.108   4.452  0.5539  0.2943  0.1468
  309MOL    O3943775   1.189   7.067   4.495 -0.1062  0.8853  0.3257
  309MOL    H4043776   1.253   7.281   4.576  0.4894 -0.8433  1.0548
  309MOL    H4143777   1.391   7.308   4.460  1.7862 -1.9140 -0.7984
  309MOL    H4243778   1.393   7.035   4.482 -0.2774 -0.1615  1.1511
  309MOL    H4343779   1.324   7.126   4.345  1.0099 -0.1701  0.0978
  309MOL    C4443780   1.156   6.928   4.462 -0.7583  0.7594 -0.0056
  309MOL    C4543781   1.014   6.894   4.510 -0.0554  0.5187 -0.0012
  309MOL    O4643782   0.915   6.964   4.426 -0.8775 -0.3106 -0.1859
  309MOL    H4743783   1.163   6.910   4.355 -0.1378  0.4586  0.0857
  309MOL    H4843784   1.218   6.849   4.504 -3.3744 -0.4318  1.7075
  309MOL    H4943785   1.012   6.925   4.614  2.4873  0.7306  0.0181
  309MOL    H5043786   0.998   6.787   4.501  1.0644  0.2661  0.9219
  309MOL    C5143787   0.788   6.943   4.475  0.2272  0.2132  0.4507
  309MOL    C5243788   0.696   6.996   4.372 -0.4731  0.2250 -0.5081
  309MOL    O5343789   0.672   7.138   4.389  0.0381 -0.3961  0.4382
  309MOL    H5443790   0.769   6.836   4.481  0.1851  0.1860 -0.2243
  309MOL    H5543791   0.767   6.983   4.575  0.4026 -1.8157  1.3181
  309MOL    H5643792   0.604   6.939   4.387  0.2136 -0.1903  2.4127
  309MOL    H5743793   0.739   6.973   4.274 -0.3330  0.7154 -0.5627
  309MOL    C5843794   0.553   7.181   4.333 -0.8620 -0.2049 -0.4906
  309MOL    C5943795   0.589   7.254   4.205  0.0845 -0.3816  0.2952
  309MOL    O6043796   0.628   7.152   4.108  0.3609  0.6455  0.0460
  309MOL    H6143797   0.478   7.104   4.315 -0.8450 -0.0028 -1.4526
  309MOL    H6243798   0.491   7.246   4.394  0.1205 -0.7585  1.1023
  309MOL    H6343799   0.669   7.324   4.229  0.2506 -0.4550 -0.0351
  309MOL    H6443800   0.502   7.312   4.177 -0.1194 -1.2767 -0.9619
  309MOL    C6543801   0.688   7.222   3.998  0.7189  0.0149 -1.0536
  309MOL    C6643802   0.735   7.115   3.903 -0.0091  0.3726  0.2176
  309MOL    O6743803   0.629   7.060   3.824 -0.0774  0.4221  0.4301
  309MOL    H6843804   0.620   7.285   3.941 -1.7317 -1.3293  0.2289
  309MOL    H6943805   0.772   7.283   4.030  0.5491 -0.5380  0.5330
  309MOL    H7043806   0.790   7.041   3.960  0.9928 -0.2413 -1.5285
  309MOL    H7143807   0.811   7.159   3.838 -0.1807  0.9059  0.3680
  309MOL    C7243808   0.673   6.934   3.767 -0.6209 -0.2530  0.6911
  309MOL    C7343809   0.557   6.858   3.702 -0.3273  0.1054  0.7353
  309MOL    O7443810   0.539   6.896   3.570  0.4127 -0.6101  0.0801
  309MOL    H7543811   0.756   6.951   3.698 -1.3416 -1.2217 -0.4382
  309MOL    H7643812   0.718   6.877   3.848  0.5336 -0.9806 -0.4333
  309MOL    H7743813   0.469   6.871   3.763  0.1897  1.4230  1.2252
  309MOL    H7843814   0.584   6.753   3.692  1.3775  0.6330 -0.6382
  309MOL    C7943815   0.454   6.813   3.493 -0.5556 -0.3372  0.2720
  309MOL    C8043816   0.447   6.863   3.356 -0.1647 -0.2485  0.2257
  309MOL    O8143817   0.538   6.788   3.280  0.2741 -0.3136 -0.0737
  309MOL    H8243818   0.476   6.708   3.506  0.2529 -0.2497 -0.3659
  309MOL    H8343819   0.351   6.821   3.530  0.2393  0.1869  2.4499
  309MOL    H8443820   0.456   6.971   3.346 -0.6791 -0.2108  0.1559
  309MOL    H8543821   0.350   6.840   3.312  1.1602 -0.4327 -2.7063
  309MOL    C8643822   0.548   6.840   3.149 -0.3498  0.3685 -0.3644
  309MOL    C8743823   0.640   6.739   3.075  0.2587  0.0338 -0.5150
  309MOL    O8843824   0.778   6.766   3.078 -0.1158  0.0552  0.7725
  309MOL    H8943825   0.456   6.848   3.092 -0.0593  0.3156 -0.8385
  309MOL    H9043826   0.599   6.936   3.154  1.3580 -0.5768  1.3054
  309MOL    H9143827   0.611   6.745   2.970  0.0711 -0.0621 -0.4683
  309MOL    H9243828   0.622   6.635   3.103  0.9610  0.2920  0.9349
  309MOL    C9343829   0.838   6.756   3.209 -0.0660 -0.6578 -1.0576
  309MOL    C9443830   0.982   6.701   3.207  0.3972 -0.3943 -0.8199
  309MOL    O9543831   1.066   6.782   3.137 -0.1994  0.2726 -0.3820
  309MOL    H9643832   0.836   6.857   3.248 -0.0308 -0.7487 -0.8188
  309MOL    H9743833   0.790   6.685   3.277  1.4824 -1.0478 -0.3453
  309MOL    H9843834   0.990   6.602   3.162  0.3765 -1.0964  0.6867
  309MOL    H9943835   1.020   6.690   3.308  1.5896 -0.7635 -1.3034
  309MOL   C10043836   1.206   6.747   3.130 -0.2060 -0.1121 -0.2270
  309MOL   C10143837   1.268   6.744   3.275 -0.4179 -0.2825  0.3189
  309MOL   O10243838   1.259   6.622   3.335  0.4127 -0.2336  0.2529
  309MOL   H10343839   1.229   6.662   3.066  0.8221  0.8590 -1.1706
  309MOL   H10443840   1.252   6.830   3.077  1.7457 -0.8360  0.2860
  309MOL   H10543841   1.222   6.819   3.340  0.4496 -0.9296  1.7056
  309MOL   H10643842   1.376   6.756   3.266 -0.2380  0.4594  3.0086
  309MOL   C10743843   1.340   6.612   3.461 -1.2223 -0.3272 -0.2066
  309MOL   C10843844   1.337   6.461   3.516  0.0956 -0.6534  0.2441
  309MOL   O10943845   1.368   6.363   3.415  0.1627  0.3785  0.5800
  309MOL   H11043846   1.439   6.654   3.447 -1.9286  2.2928  2.0687
  309MOL   H11143847   1.298   6.683   3.532 -0.3451  1.0060 -0.9947
  309MOL   H11243848   1.245   6.443   3.570  0.0668 -0.6304  0.2030
  309MOL   H11343849   1.418   6.461   3.589 -0.4252  3.7175  1.0048
  309MOL   C11443850   1.356   6.238   3.477 -0.0975 -0.7901 -0.4721
  309MOL   C11543851   1.437   6.129   3.415 -0.6823 -0.6466 -0.0201
  309MOL   O11643852   1.561   6.111   3.483  0.6160 -0.0805 -0.2990
  309MOL   H11743853   1.357   6.236   3.586  0.2363 -1.3410 -0.4830
  309MOL   H11843854   1.252   6.215   3.456 -0.4505 -0.3530  0.7278
  309MOL   H11943855   1.456   6.159   3.311 -1.1948 -2.2994 -0.5963
  309MOL   H12043856   1.382   6.036   3.422 -0.6801 -0.8154 -1.9359
  309MOL   C12143857   1.652   6.014   3.415  0.6313 -0.7779 -0.6213
  309MOL   C12243858   1.783   5.988   3.492  0.0467 -0.1408 -0.3742
  309MOL   O12343859   1.879   6.086   3.463 -0.1977 -0.6690  0.0617
  309MOL   H12443860   1.593   5.923   3.425  0.5288 -0.6071  0.3627
  309MOL   H12543861   1.665   6.040   3.310 -0.7333  1.7406 -0.1886
  309MOL   H12643862   1.820   5.891   3.460  0.4536  0.1770 -0.8771
  309MOL   H12743863   1.752   5.970   3.595  0.7693  0.0795 -0.1181
  309MOL   C12843864   1.988   6.099   3.558 -0.1932  0.3487  0.2615
  309MOL   C12943865   2.071   6.226   3.533 -0.3879 -0.5020 -0.2705
  309MOL   O13043866   2.204   6.209   3.478  0.4919 -0.1253 -0.4105
  309MOL   H13143867   1.948   6.099   3.659 -0.5958  0.7605  0.1023
  309MOL   H13243868   2.051   6.012   3.572  2.1259  1.4234 -2.7703
  309MOL   H13343869   2.079   6.283   3.626  1.0509  0.0141 -0.6955
  309MOL   H13443870   2.016   6.293   3.466  0.7944 -0.4541 -1.2059
  309MOL   C13543871   2.205   6.143   3.350  0.0355 -0.2265  0.1592
  309MOL   C13643872   2.330   6.161   3.283  0.8833  0.7366  0.3756
  309MOL   O13743873   2.421   6.067   3.329  0.9900 -0.2629 -0.0730
  309MOL   H13843874   2.173   6.039   3.352 -1.4580  0.2410  1.7768
  309MOL   H13943875   2.126   6.193   3.293 -0.6545 -1.6547 -0.1674
  309MOL   H14043876   2.377   6.259   3.284  2.0641  0.1893  0.4174
  309MOL   H14143877   2.313   6.142   3.177 -0.5597 -0.4314  0.8018
  309MOL   H14243878   2.435   6.105   3.415 -0.7148  2.2773 -0.8486
  310MOL     C143879   6.360   7.709   2.767  0.1873  0.1861  0.8548
  310MOL     C243880   6.283   7.674   2.896  1.1720 -0.2779  0.2496
  310MOL     O343881   6.379   7.621   2.984  0.0161 -0.0524 -0.5603
  310MOL     H443882   6.297   7.744   2.686  0.5196 -0.1143  0.4669
  310MOL     H543883   6.419   7.630   2.722 -1.1148  0.3895 -1.2526
  310MOL     H643884   6.208   7.598   2.872  3.0847 -2.3228  0.5254
  310MOL     H743885   6.243   7.761   2.948  0.7933 -0.1392 -0.2709
  310MOL     H843886   6.431   0.014   2.796  0.1065  1.1640 -1.4338
  310MOL     C943887   6.329   7.574   3.106 -0.2772 -0.4665  0.2443
  310MOL    C1043888   6.250   7.676   3.189  0.5681  0.4713 -0.3561
  310MOL    O1143889   6.109   7.690   3.156 -0.5250  0.3394 -0.1777
  310MOL    H1243890   6.271   7.486   3.077 -1.7123  0.9088 -1.1852
  310MOL    H1343891   6.416   7.550   3.167 -0.1424  1.0150  0.6602
  310MOL    H1443892   6.300   0.002   3.184 -0.8988  1.3281  1.0130
  310MOL    H1543893   6.259   7.650   3.295  1.0305  1.6303 -0.1032
  310MOL    C1643894   6.028   7.585   3.181 -0.2335 -0.1737  0.2828
  310MOL    C1743895   5.875   7.622   3.167 -0.7524  0.0836  0.5669
  310MOL    O1843896   5.834   7.721   3.257 -0.0253 -0.1860  0.1283
  310MOL    H1943897   6.046   7.512   3.102  2.5104 -0.7595  1.3904
  310MOL    H2043898   6.057   7.526   3.267  2.2061 -0.0595 -0.4097
  310MOL    H2143899   5.806   7.540   3.186  1.1539 -1.6799  0.0035
  310MOL    H2243900   5.869   7.660   3.065 -0.5366 -0.0124  0.5180
  310MOL    C2343901   5.709   0.004   3.211 -0.5516 -0.2837 -0.3146
  310MOL    C2443902   5.655   0.130   3.281  0.3548 -0.0670 -0.4003
  310MOL    O2543903   5.618   0.091   3.413 -0.1115  0.0923  0.5373
  310MOL    H2643904   5.706   0.017   3.103  0.7895 -0.5540 -0.3934
  310MOL    H2743905   5.631   7.701   3.229 -0.4173 -0.0548  1.3215
  310MOL    H2843906   5.571   0.186   3.240 -1.2120 -0.7952  1.7170
  310MOL    H2943907   5.724   0.214   3.292 -0.3074  0.0433  3.9569
  310MOL    C3043908   5.576   0.200   3.497  0.2152 -0.2741 -0.1823
  310MOL    C3143909   5.573   0.162   3.649  0.2664  0.2368 -0.0406
  310MOL    O3243910   5.471   0.062   3.687  0.1411  0.0722  0.3051
  310MOL    H3343911   5.637   0.289   3.486  0.0251 -0.2392 -1.0433
  310MOL    H3443912   5.474   0.239   3.483  0.9906  1.8783 -0.1057
  310MOL    H3543913   5.563   0.249   3.714 -0.7009  0.1944 -0.1268
  310MOL    H3643914   5.663   0.111   3.683 -0.5234  0.4290  2.4570
  310MOL    C3743915   5.464   0.015   3.821 -0.6381 -0.0945 -0.3190
  310MOL    C3843916   5.403   7.648   3.834  0.6522  0.2769  0.6831
  310MOL    O3943917   5.264   7.656   3.817  0.3770 -0.1110  0.0589
  310MOL    H4043918   5.567   0.015   3.858 -0.3916 -1.5914 -0.9591
  310MOL    H4143919   5.410   0.072   3.897  1.3778 -0.1889  1.2376
  310MOL    H4243920   5.418   7.604   3.933  0.2361  0.5657  0.8741
  310MOL    H4343921   5.448   7.586   3.757 -0.1687  2.6422 -1.7616
  310MOL    C4443922   5.199   7.527   3.814 -0.0030 -0.6126 -0.9704
  310MOL    C4543923   5.053   7.527   3.790  0.0463 -0.4246  0.2966
  310MOL    O4643924   4.990   7.571   3.914  0.5179 -0.0369  0.2510
  310MOL    H4743925   5.242   7.463   3.736 -0.2478  0.1722 -1.7551
  310MOL    H4843926   5.231   7.463   3.896 -0.9793 -0.6101 -0.5817
  310MOL    H4943927   5.020   7.423   3.787  0.1998 -0.5695  2.6158
  310MOL    H5043928   5.039   7.578   3.695 -0.8616 -0.0578  0.6243
  310MOL    C5143929   4.856   7.605   3.889  0.2443 -0.1647 -0.9631
  310MOL    C5243930   4.788   7.651   4.009  0.0787  0.2556 -0.1657
  310MOL    O5343931   4.647   7.638   3.986  0.1465  0.7338 -0.1997
  310MOL    H5443932   4.849   7.686   3.816  0.0545 -0.7098 -1.5590
  310MOL    H5543933   4.805   7.518   3.846  1.3406 -1.1057 -0.3944
  310MOL    H5643934   4.814   7.753   4.038 -1.9487  0.3891  1.3584
  310MOL    H5743935   4.832   7.593   4.090  1.9067  1.3297 -0.3788
  310MOL    C5843936   4.579   7.638   4.110  0.2000  0.1990  0.9520
  310MOL    C5943937   4.428   7.622   4.069  0.3939  0.3929  0.7854
  310MOL    O6043938   4.355   7.739   4.027 -0.1217  0.0477 -0.3008
  310MOL    H6143939   4.606   7.557   4.179 -0.6002  0.3422  1.4340
  310MOL    H6243940   4.605   7.727   4.168  1.2469 -1.5811  3.3492
  310MOL    H6343941   4.378   7.572   4.152 -2.5709 -1.0531 -1.7424
  310MOL    H6443942   4.410   7.545   3.993  1.8515  2.0049 -1.2482
  310MOL    C6543943   4.329   7.742   3.892  0.1968 -0.0063  0.5071
  310MOL    C6643944   4.240   0.086   3.856  0.7013 -0.0847  0.6916
  310MOL    O6743945   4.101   0.066   3.892 -0.2486 -0.8724 -0.2576
  310MOL    H6843946   4.424   7.769   3.846  0.9249 -0.5713  1.6570
  310MOL    H6943947   4.296   7.649   3.846  0.4712  1.4856 -2.8510
  310MOL    H7043948   4.232   0.088   3.748  1.6155 -2.9843  0.5325
  310MOL    H7143949   4.274   0.180   3.900 -0.8476 -0.0427  1.8608
  310MOL    C7243950   4.076   0.126   4.018  0.6348  0.7278 -0.6298
  310MOL    C7343951   3.926   0.121   4.020  0.0636 -0.4737  0.3185
  310MOL    O7443952   3.877   0.172   4.142  0.1992  0.4870 -0.0502
  310MOL    H7543953   4.125   0.078   4.104 -1.2361  1.6346  0.9832
  310MOL    H7643954   4.103   0.232   4.011  1.5622  0.6217  0.9972
  310MOL    H7743955   3.891   0.019   4.011  0.2066 -0.6163  1.3532
  310MOL    H7843956   3.878   0.181   3.942  0.7937 -0.0943  0.1515
  310MOL    C7943957   3.732   0.179   4.134 -0.0390  0.2050 -0.1153
  310MOL    C8043958   3.681   0.149   4.275 -0.0122  0.3315  0.2288
  310MOL    O8143959   3.673   0.017   4.314 -0.0818  0.3589 -0.2248
  310MOL    H8243960   3.708   0.280   4.102  0.2775  0.1475 -0.5442
  310MOL    H8343961   3.689   0.121   4.053  1.7643 -0.6117 -0.5260
  310MOL    H8443962   3.583   0.196   4.265  1.5538  3.3582 -1.6007
  310MOL    H8543963   3.743   0.201   4.348  1.2647 -1.0104  0.1107
  310MOL    C8643964   3.589   7.771   4.428 -0.1659 -0.2238 -0.6301
  310MOL    C8743965   3.604   7.625   4.461  0.4533 -0.4380  0.4434
  310MOL    O8843966   3.555   7.577   4.586 -0.2061  0.0100 -0.7991
  310MOL    H8943967   3.626   0.063   4.509 -2.4473  0.1456  0.1600
  310MOL    H9043968   3.483   0.022   4.411  0.1582  0.6047 -1.6002
  310MOL    H9143969   3.711   7.607   4.449  0.3844 -0.5915  0.0404
  310MOL    H9243970   3.549   7.577   4.380 -2.1620  0.7613  1.4484
  310MOL    C9343971   3.649   7.596   4.694  0.3551 -0.0178 -0.6396
  310MOL    C9443972   3.584   7.568   4.827  0.4247 -0.1148 -0.0987
  310MOL    O9543973   3.673   7.584   4.925  0.2467  0.2246 -0.3075
  310MOL    H9643974   3.733   7.531   4.669 -1.7517 -2.3262 -1.9402
  310MOL    H9743975   3.694   7.694   4.679 -2.4740  1.4152  0.0560
  310MOL    H9843976   3.545   7.467   4.831 -0.1772  0.0718 -1.1479
  310MOL    H9943977   3.504   7.641   4.837  0.0136 -0.5495 -0.1944
  310MOL   C10043978   3.636   7.566   5.064 -0.8187  0.4022  0.1399
  310MOL   C10143979   3.759   7.589   5.163  0.1576 -0.0872  0.0575
  310MOL   O10243980   3.708   7.584   5.299  0.3689  0.1238  0.7478
  310MOL   H10343981   3.553   7.631   5.091 -0.9514  0.4879 -0.4646
  310MOL   H10443982   3.602   7.463   5.068 -1.4356  0.6016  0.0547
  310MOL   H10543983   3.802   7.688   5.145  0.1431  0.3091  2.0633
  310MOL   H10643984   3.832   7.511   5.141  0.7107  0.1205  1.0924
  310MOL   C10743985   3.815   7.593   5.395  0.7773  0.0380 -0.9780
  310MOL   C10843986   3.769   7.560   5.538 -0.0947  0.2775  0.2105
  310MOL   O10943987   3.710   7.674   5.594 -0.4235  0.2678  0.6734
  310MOL   H11043988   3.902   7.541   5.352 -1.0665 -0.7731 -3.8890
  310MOL   H11143989   3.860   7.691   5.411 -3.8120  1.8827  1.5668
  310MOL   H11243990   3.858   7.521   5.588  1.1645  0.9505 -1.4602
  310MOL   H11343991   3.700   7.476   5.538  0.4265 -0.1666  0.9042
  310MOL   C11443992   3.667   7.665   5.722  0.4038  0.0700 -0.8347
  310MOL   C11543993   3.694   0.025   5.787 -0.2822 -0.6604  0.3255
  310MOL   O11643994   3.823   0.028   5.843 -0.1112 -0.5004  0.0536
  310MOL   H11743995   3.561   7.646   5.710  0.1138  0.4566  0.9767
  310MOL   H11843996   3.708   7.590   5.791 -1.9015  0.9747  1.5961
  310MOL   H11943997   3.621   0.035   5.867 -0.1499  1.6966  0.2128
  310MOL   H12043998   3.687   0.113   5.723 -0.0870 -0.3305  0.7495
  310MOL   C12143999   3.843   0.130   5.937  0.4802 -0.6709 -0.8447
  310MOL   C12244000   3.991   0.154   5.959 -0.3830 -0.0324  0.0126
  310MOL   O12344001   4.052   0.048   6.029  0.1717  0.4118  0.2999
  310MOL   H12444002   3.802   0.218   5.887  1.1284  0.8404  1.2308
  310MOL   H12544003   3.780   0.109   6.023 -0.0807  0.6174 -0.9282
  310MOL   H12644004   3.998   0.239   6.027 -0.5382  0.3441 -0.4391
  310MOL   H12744005   4.044   0.180   5.867  0.5960  1.0195  0.8640
  310MOL   C12844006   4.093   7.710   5.948  0.0139  0.2969 -0.1224
  310MOL   C12944007   4.180   7.617   6.029 -0.1657 -0.0543  0.0701
  310MOL   O13044008   4.284   7.693   6.092 -0.8778  0.2956  0.8073
  310MOL   H13144009   4.017   7.648   5.902 -1.7133  0.3298  2.5589
  310MOL   H13244010   4.158   7.732   5.864 -1.0855  0.0655 -1.0371
  310MOL   H13344011   4.235   7.549   5.964 -1.4852  0.5766 -1.7409
  310MOL   H13444012   4.119   7.559   6.098  0.0826 -1.2473 -0.6981
  310MOL   C13544013   4.366   7.603   6.174  0.0482  0.3361  0.0108
  310MOL   C13644014   4.472   7.689   6.246 -0.0031 -0.4360  0.1120
  310MOL   O13744015   4.390   0.008   6.318 -0.3702 -0.0500 -0.5360
  310MOL   H13844016   4.302   7.557   6.249  0.0426 -1.4344 -1.0697
  310MOL   H13944017   4.401   7.521   6.112 -0.2014  0.8047 -0.7642
  310MOL   H14044018   4.536   7.740   6.174  0.3018 -0.9577  0.0102
  310MOL   H14144019   4.540   7.638   6.315 -1.3240 -0.4346  1.4453
  310MOL   H14244020   4.322   0.024   6.253 -0.5915  1.5034  0.0619
  311MOL     C144021   2.736   0.808   5.812  0.1848  0.0700 -0.4059
  311MOL     C244022   2.878   0.804   5.778  0.1619  0.6783 -0.9619
  311MOL     O344023   2.895   0.824   5.639 -0.6017  0.0109 -0.2390
  311MOL     H444024   2.672   0.758   5.739 -1.0813  1.2180 -0.1093
  311MOL     H544025   2.698   0.908   5.831  0.1172 -0.2135  1.0137
  311MOL     H644026   2.918   0.703   5.794 -1.0285  0.4690  0.8019
  311MOL     H744027   2.937   0.875   5.835 -0.0802 -0.1667  0.3722
  311MOL     H844028   2.723   0.757   5.908 -0.0566  0.0239 -0.4632
  311MOL     C944029   3.037   0.836   5.602  0.2905  0.0175  0.7757
  311MOL    C1044030   3.044   0.863   5.452  0.6876  0.0676  0.2336
  311MOL    O1144031   2.997   0.998   5.436 -0.5275 -0.4944 -0.0213
  311MOL    H1244032   3.080   0.920   5.655 -0.6919 -0.4171  2.2983
  311MOL    H1344033   3.082   0.738   5.618 -2.2213 -1.1061  1.2360
  311MOL    H1444034   2.978   0.794   5.399 -0.5316  0.8543  0.7014
  311MOL    H1544035   3.147   0.851   5.418  0.6338 -2.2486  0.7646
  311MOL    C1644036   2.984   1.045   5.303 -0.3432  0.7740  1.0466
  311MOL    C1744037   3.108   1.125   5.263 -0.5360  0.2189  0.2077
  311MOL    O1844038   3.208   1.029   5.223 -0.7067  0.6319 -0.3480
  311MOL    H1944039   2.979   0.957   5.239 -1.2925  0.3645  1.6742
  311MOL    H2044040   2.894   1.101   5.280  0.4325  1.1867 -1.0876
  311MOL    H2144041   3.148   1.188   5.343 -1.2226 -0.2983  0.9629
  311MOL    H2244042   3.080   1.192   5.181 -2.6113 -1.3756 -0.4364
  311MOL    C2344043   3.309   1.083   5.127  0.2022  0.2747 -0.0360
  311MOL    C2444044   3.412   0.971   5.094 -0.5680  0.2856 -0.6275
  311MOL    O2544045   3.363   0.886   4.989  0.0115 -0.3648 -0.4123
  311MOL    H2644046   3.267   1.133   5.040  0.3488  1.6006  0.6399
  311MOL    H2744047   3.365   1.158   5.183 -1.2051  1.0587  0.3571
  311MOL    H2844048   3.437   0.915   5.184  0.2742  1.7684  0.0862
  311MOL    H2944049   3.500   1.024   5.058  0.1746 -0.9951 -0.7184
  311MOL    C3044050   3.466   0.787   4.957  0.9803  0.1194  0.1649
  311MOL    C3144051   3.413   0.704   4.838 -0.6081 -0.0769 -0.3284
  311MOL    O3244052   3.379   0.791   4.726  0.0238  0.6579 -0.0974
  311MOL    H3344053   3.545   0.853   4.923 -0.0493  1.2267 -0.1028
  311MOL    H3444054   3.488   0.717   5.038 -0.2409  0.2301  0.5918
  311MOL    H3544055   3.332   0.636   4.865  1.6018 -2.4276  0.5566
  311MOL    H3644056   3.497   0.637   4.822  0.2123  0.6106  1.0129
  311MOL    C3744057   3.319   0.715   4.630 -0.0136  0.0240 -0.1569
  311MOL    C3844058   3.245   0.809   4.532  0.4105 -0.1178 -0.4872
  311MOL    O3944059   3.315   0.848   4.412  0.2048 -0.1959 -0.5313
  311MOL    H4044060   3.389   0.660   4.567  1.0630 -0.4340  1.4077
  311MOL    H4144061   3.246   0.651   4.680 -0.4181 -0.7477 -1.7025
  311MOL    H4244062   3.201   0.897   4.579  1.5578  0.6884 -0.8970
  311MOL    H4344063   3.153   0.757   4.504 -0.7595  1.2116  0.7654
  311MOL    C4444064   3.274   0.970   4.341 -0.3712 -0.3743  0.1409
  311MOL    C4544065   3.126   0.990   4.329 -0.3039  0.1527  0.6894
  311MOL    O4644066   3.081   1.061   4.444 -0.7379  0.8748 -0.7076
  311MOL    H4744067   3.314   1.059   4.389 -1.4600  0.0301  0.3083
  311MOL    H4844068   3.320   0.965   4.242 -1.0496 -1.1770 -0.1386
  311MOL    H4944069   3.090   0.887   4.315 -1.2348  0.7214 -1.2458
  311MOL    H5044070   3.113   1.050   4.239 -2.1787 -1.0278  0.1352
  311MOL    C5144071   2.937   1.065   4.445  0.1175  0.1293  0.3245
  311MOL    C5244072   2.889   1.164   4.550 -0.7604 -0.4276  0.5894
  311MOL    O5344073   2.923   1.299   4.511 -0.4851  0.4808 -0.3296
  311MOL    H5444074   2.906   1.099   4.346  1.2830  1.9038  0.5498
  311MOL    H5544075   2.901   0.963   4.459 -1.3327  0.6796  0.7546
  311MOL    H5644076   2.917   1.137   4.652 -0.6466 -1.6706  0.2253
  311MOL    H5744077   2.780   1.170   4.547 -0.8574 -1.4514  1.6978
  311MOL    C5844078   2.916   1.390   4.621 -0.6887 -0.0953 -0.0807
  311MOL    C5944079   2.940   1.535   4.577  0.2270 -0.2858  0.1245
  311MOL    O6044080   3.075   1.545   4.546  0.0507  0.2936 -0.3880
  311MOL    H6144081   2.828   1.373   4.684 -0.5564  0.4439  0.2529
  311MOL    H6244082   3.003   1.366   4.682 -1.6512 -0.4695  1.1665
  311MOL    H6344083   2.910   1.604   4.656  0.6596 -0.2756  0.2830
  311MOL    H6444084   2.871   1.551   4.495  1.5724 -1.7067 -1.3178
  311MOL    C6544085   3.107   1.675   4.488  0.3884  1.3296 -0.3582
  311MOL    C6644086   3.257   1.703   4.503 -0.6236  0.1135  0.0569
  311MOL    O6744087   3.326   1.633   4.395 -0.6314 -0.1391  0.0081
  311MOL    H6844088   3.072   1.686   4.385 -2.8373 -0.2693  0.5276
  311MOL    H6944089   3.056   1.754   4.544 -0.5322  0.3819  0.1400
  311MOL    H7044090   3.288   1.668   4.602 -0.2089 -1.2560 -0.5423
  311MOL    H7144091   3.279   1.809   4.501  1.3449 -0.3067 -2.5139
  311MOL    C7244092   3.359   1.501   4.424  0.3919 -0.8129 -0.8790
  311MOL    C7344093   3.466   1.451   4.332  0.3480  0.5754  0.2048
  311MOL    O7444094   3.602   1.449   4.384 -0.5335  0.6935  1.3617
  311MOL    H7544095   3.387   1.490   4.529 -1.3627 -0.0571 -0.3150
  311MOL    H7644096   3.269   1.442   4.413 -0.1736 -0.1733  0.1926
  311MOL    H7744097   3.469   1.503   4.236 -0.6958 -0.7399 -0.5563
  311MOL    H7844098   3.432   1.350   4.308 -1.7656  1.4831 -0.7451
  311MOL    C7944099   3.691   1.350   4.332 -0.7430  0.3841  0.0546
  311MOL    C8044100   3.830   1.390   4.358  0.7784  0.1923  0.2712
  311MOL    O8144101   3.916   1.311   4.273 -0.2306 -0.2059  0.2359
  311MOL    H8244102   3.678   1.247   4.365  1.3012  0.0490 -0.1104
  311MOL    H8344103   3.694   1.347   4.223  0.1552 -2.1207  0.1172
  311MOL    H8444104   3.854   1.385   4.465  1.8474  0.7927  0.0605
  311MOL    H8544105   3.827   1.495   4.330 -0.4318  0.3655  1.0019
  311MOL    C8644106   4.045   1.370   4.255  0.4484  0.2047  0.1805
  311MOL    C8744107   4.065   1.389   4.110 -0.5120  0.0008 -0.1437
  311MOL    O8844108   4.070   1.266   4.043  0.1577 -0.1714 -0.0041
  311MOL    H8944109   4.051   1.476   4.282  1.1411  1.0506 -3.0394
  311MOL    H9044110   4.130   1.320   4.303 -0.5664 -2.1936 -0.4794
  311MOL    H9144111   4.164   1.433   4.102  0.8542 -2.8446  0.3885
  311MOL    H9244112   3.996   1.454   4.056  2.8770  3.0190 -1.0161
  311MOL    C9344113   3.954   1.237   3.969 -0.0015  0.2472  0.4842
  311MOL    C9444114   3.980   1.095   3.909 -0.0778 -0.2468  0.1306
  311MOL    O9544115   3.977   1.091   3.765  0.4862 -0.1584 -0.1432
  311MOL    H9644116   3.872   1.226   4.040 -0.9163 -0.7639 -0.7182
  311MOL    H9744117   3.929   1.314   3.896 -0.4162 -2.3652 -2.2295
  311MOL    H9844118   3.921   1.012   3.947  0.2143  0.0522  1.2565
  311MOL    H9944119   4.078   1.056   3.936  0.3633 -0.6330 -1.9157
  311MOL   C10044120   3.847   1.091   3.693 -0.2243 -0.2637 -0.4041
  311MOL   C10144121   3.876   1.127   3.549 -0.1614  0.3463 -0.1328
  311MOL   O10244122   3.763   1.099   3.469  0.3140 -0.5172 -0.0860
  311MOL   H10344123   3.801   0.993   3.708 -1.6741  0.2359 -1.4764
  311MOL   H10444124   3.794   1.175   3.738  1.2452  0.0185  0.8260
  311MOL   H10544125   3.954   1.061   3.510  0.1124  0.1805  0.6974
  311MOL   H10644126   3.910   1.230   3.536  1.0242  0.2393  1.8972
  311MOL   C10744127   3.784   1.145   3.336  0.3306 -0.8014 -0.3411
  311MOL   C10844128   3.669   1.102   3.244  0.5338  0.1101 -0.1159
  311MOL   O10944129   3.685   1.119   3.105  0.1946  0.2553 -0.4352
  311MOL   H11044130   3.782   1.254   3.336 -1.4414 -0.7912 -2.4924
  311MOL   H11144131   3.876   1.132   3.278 -0.1321  1.8163 -1.7224
  311MOL   H11244132   3.571   1.139   3.274  0.7049 -1.5517  2.6609
  311MOL   H11344133   3.660   0.994   3.257  1.9883  0.1342  1.1850
  311MOL   C11444134   3.582   1.065   3.028  0.3588 -0.0678 -0.4978
  311MOL   C11544135   3.594   1.110   2.883 -0.4750 -0.3823 -0.2510
  311MOL   O11644136   3.691   1.031   2.813  0.2494 -0.0048  0.2519
  311MOL   H11744137   3.568   0.957   3.027 -1.0233  0.0752  1.6493
  311MOL   H11844138   3.487   1.108   3.060  1.2282  0.4361  1.5029
  311MOL   H11944139   3.617   1.217   2.878  1.1800 -0.5761  2.2871
  311MOL   H12044140   3.496   1.088   2.840 -2.6077  1.9675  3.1248
  311MOL   C12144141   3.675   1.044   2.672  0.3111 -0.8454 -0.1408
  311MOL   C12244142   3.601   0.919   2.611 -0.1063 -0.4199  0.2403
  311MOL   O12344143   3.463   0.949   2.601 -0.5536  0.1658 -0.4394
  311MOL   H12444144   3.641   1.146   2.651 -1.7989 -1.0063  2.2272
  311MOL   H12544145   3.776   1.052   2.633  0.1838 -0.3592 -0.3772
  311MOL   H12644146   3.627   0.825   2.659 -1.4767  0.6775  3.2333
  311MOL   H12744147   3.629   0.907   2.506  0.0615  1.5857  0.0212
  311MOL   C12844148   3.384   0.842   2.551  0.1852  0.3891  0.0568
  311MOL   C12944149   3.236   0.883   2.557 -0.6682 -0.1526 -0.0043
  311MOL   O13044150   3.199   0.932   2.434  0.6795  0.3882  0.1461
  311MOL   H13144151   3.414   0.811   2.451  0.3239  0.5627  0.0438
  311MOL   H13244152   3.396   0.761   2.623 -1.0884 -0.8096 -1.0603
  311MOL   H13344153   3.224   0.961   2.632 -1.4905  0.7733 -1.0861
  311MOL   H13444154   3.181   0.790   2.573 -0.3406 -0.7156 -2.0693
  311MOL   C13544155   3.053   0.965   2.419  0.1229  0.0601  0.2770
  311MOL   C13644156   3.030   0.974   2.268 -0.1455 -0.2263  0.0026
  311MOL   O13744157   2.915   1.055   2.238  0.5335  0.2860  0.0644
  311MOL   H13844158   2.989   0.892   2.468  0.8047 -1.1160 -0.5602
  311MOL   H13944159   3.022   1.060   2.462 -1.1638 -0.5436  0.7048
  311MOL   H14044160   3.008   0.874   2.231  0.9447 -0.1900 -0.7822
  311MOL   H14144161   3.116   1.023   2.221 -2.6898  2.1869 -2.3459
  311MOL   H14244162   2.928   1.083   2.148  0.0540 -2.8520 -1.0382
  312MOL     C144163   1.825   5.352   4.181 -0.0442  0.3363 -0.5854
  312MOL     C244164   1.892   5.214   4.205 -0.1799 -0.9172  0.3995
  312MOL     O344165   1.782   5.130   4.237  0.2683 -0.0830  0.0105
  312MOL     H444166   1.903   5.425   4.158  0.7381 -0.5705 -0.8405
  312MOL     H544167   1.771   5.379   4.272  0.6170 -0.8381  0.1707
  312MOL     H644168   1.969   5.221   4.281 -0.0334  3.4361 -0.0360
  312MOL     H744169   1.943   5.185   4.113  0.6784 -1.5414  1.0626
  312MOL     H844170   1.760   5.348   4.094 -2.1974  0.8345  0.9366
  312MOL     C944171   1.821   5.000   4.290 -0.3759  0.3123  1.0405
  312MOL    C1044172   1.700   4.932   4.353  0.4353  0.0373  0.6242
  312MOL    O1144173   1.582   4.954   4.278  0.1473 -0.1468  0.2339
  312MOL    H1244174   1.854   4.944   4.202  0.1585  1.1155  0.7270
  312MOL    H1344175   1.903   5.022   4.358 -0.0182  1.5532  0.2304
  312MOL    H1444176   1.688   4.969   4.455 -1.3668  0.6897  0.1879
  312MOL    H1544177   1.726   4.827   4.361 -0.6586 -0.3358 -0.6433
  312MOL    C1644178   1.472   4.884   4.327 -0.4363  0.4216 -0.1742
  312MOL    C1744179   1.359   4.895   4.230 -0.5972  0.2861 -0.9476
  312MOL    O1844180   1.292   5.009   4.283  0.4160  0.3571  0.0347
  312MOL    H1944181   1.509   4.781   4.336 -3.0263 -0.4786  0.8014
  312MOL    H2044182   1.441   4.916   4.427 -0.7014 -0.3460 -0.0018
  312MOL    H2144183   1.292   4.809   4.221 -0.3579  0.0387 -0.4373
  312MOL    H2244184   1.393   4.907   4.127 -0.0830  1.0969 -0.6867
  312MOL    C2344185   1.260   5.104   4.182  0.2702 -0.1479  0.1779
  312MOL    C2444186   1.382   5.194   4.165  0.1787  0.4506 -0.2075
  312MOL    O2544187   1.352   5.292   4.069  0.4389  0.2588 -0.0452
  312MOL    H2644188   1.227   5.059   4.088  1.5360 -1.0911  0.1703
  312MOL    H2744189   1.184   5.178   4.208  0.1430 -1.6168  4.5651
  312MOL    H2844190   1.463   5.135   4.123 -0.2863 -0.1946 -0.2196
  312MOL    H2944191   1.421   5.240   4.256  0.6711 -0.2691 -0.0476
  312MOL    C3044192   1.449   5.396   4.065 -0.4702 -0.2165  0.0314
  312MOL    C3144193   1.423   5.500   3.957  0.1348 -0.1264  0.4694
  312MOL    O3244194   1.309   5.591   3.976 -0.8109 -0.0125  0.0328
  312MOL    H3344195   1.456   5.444   4.162  0.4236  1.1489 -0.6971
  312MOL    H3444196   1.541   5.340   4.045 -1.4228 -1.3426 -1.3267
  312MOL    H3544197   1.411   5.449   3.861  0.1785 -2.7699  1.8460
  312MOL    H3644198   1.516   5.557   3.947  0.2557 -0.5768 -1.1406
  312MOL    C3744199   1.188   5.526   3.953 -0.0343 -0.1578  0.4638
  312MOL    C3844200   1.064   5.610   3.984 -0.0775  0.0939 -0.1409
  312MOL    O3944201   1.083   5.704   4.092  0.4158  0.4918 -0.0274
  312MOL    H4044202   1.168   5.472   3.860  0.2457 -0.3590  0.5195
  312MOL    H4144203   1.178   5.450   4.031  0.3923 -1.2653 -0.5381
  312MOL    H4244204   0.979   5.542   3.995  0.3805 -0.7749 -1.7581
  312MOL    H4344205   1.049   5.667   3.892  1.1173 -0.1398 -0.4879
  312MOL    C4444206   0.983   5.805   4.106 -0.0336  0.6317  0.8894
  312MOL    C4544207   0.839   5.770   4.147 -0.1374  0.4751 -0.0858
  312MOL    O4644208   0.766   5.722   4.036  0.0839  0.1460  0.0860
  312MOL    H4744209   1.012   5.877   4.183  0.8664  0.5554  0.6300
  312MOL    H4844210   0.969   5.861   4.013  1.2748 -0.7759 -0.1692
  312MOL    H4944211   0.792   5.860   4.187  1.2623  0.0065  2.6855
  312MOL    H5044212   0.844   5.698   4.228  3.0390  0.2007 -0.4686
  312MOL    C5144213   0.639   5.673   4.081 -0.2651 -0.1419  0.4422
  312MOL    C5244214   0.655   5.531   4.141  0.4058  0.3503  0.6752
  312MOL    O5344215   0.686   5.540   4.280  0.6666 -0.1104  0.4128
  312MOL    H5444216   0.591   5.748   4.144  0.2408 -0.9043  1.7554
  312MOL    H5544217   0.572   5.668   3.995  0.3597  2.6496 -0.2543
  312MOL    H5644218   0.734   5.477   4.089  0.4433  1.9834 -1.0516
  312MOL    H5744219   0.565   5.471   4.126 -0.5493  1.3501  2.3133
  312MOL    C5844220   0.726   5.422   4.335 -0.1890 -0.1180 -0.3668
  312MOL    C5944221   0.875   5.392   4.324 -0.0580 -0.7027  0.3098
  312MOL    O6044222   0.924   5.337   4.448  0.0175  0.1000 -0.1793
  312MOL    H6144223   0.703   5.436   4.441  4.3117 -2.1335  0.9724
  312MOL    H6244224   0.668   5.335   4.305  1.9223 -1.4395 -0.7125
  312MOL    H6344225   0.936   5.477   4.293 -1.0661  0.6609  2.0199
  312MOL    H6444226   0.903   5.324   4.244 -1.4027 -1.6621  0.6426
  312MOL    C6544227   1.060   5.294   4.430 -0.2173  0.6262  0.2665
  312MOL    C6644228   1.134   5.260   4.552 -0.7296  0.1190 -0.5969
  312MOL    O6744229   1.182   5.375   4.622 -0.2038 -0.2874  0.0473
  312MOL    H6844230   1.058   5.212   4.358  0.1182  1.1785 -0.3820
  312MOL    H6944231   1.118   5.363   4.369  0.6039  0.3507  0.7355
  312MOL    H7044232   1.216   5.206   4.507 -0.5706 -1.7455  1.8766
  312MOL    H7144233   1.083   5.203   4.629 -1.0254  0.7705 -0.2999
  312MOL    C7244234   1.284   5.345   4.716 -0.3303 -0.1144  0.0403
  312MOL    C7344235   1.417   5.359   4.648  0.3694 -0.3754 -0.0415
  312MOL    O7444236   1.441   5.254   4.553  0.3858  0.3623 -0.0755
  312MOL    H7544237   1.285   5.412   4.802 -2.3197 -0.4788  0.3594
  312MOL    H7644238   1.286   5.243   4.754  3.6366 -0.0961  0.1164
  312MOL    H7744239   1.492   5.367   4.727  0.0163 -1.6298  0.4427
  312MOL    H7844240   1.421   5.455   4.596  2.8487  0.3596  1.4631
  312MOL    C7944241   1.563   5.247   4.484  0.1753  0.4320  0.7001
  312MOL    C8044242   1.690   5.220   4.564 -0.1426 -0.3819 -0.1721
  312MOL    O8144243   1.719   5.318   4.670 -0.2701  0.5132  0.0149
  312MOL    H8244244   1.534   5.166   4.417  1.9750 -0.5916  1.1360
  312MOL    H8344245   1.574   5.339   4.427 -0.6101 -0.0098 -0.1955
  312MOL    H8444246   1.772   5.223   4.492 -0.9939  1.6771 -1.0972
  312MOL    H8544247   1.672   5.127   4.617  2.3133 -0.5365  0.4523
  312MOL    C8644248   1.776   5.438   4.619  0.2832  0.1208 -0.1764
  312MOL    C8744249   1.824   5.546   4.718 -0.0481 -0.4517  1.1140
  312MOL    O8844250   1.891   5.644   4.642 -0.4228 -0.3782 -0.7209
  312MOL    H8944251   1.870   5.408   4.572 -0.1271  0.7990 -1.4456
  312MOL    H9044252   1.707   5.484   4.549  0.1780 -0.7896 -0.6850
  312MOL    H9144253   1.896   5.506   4.789  1.0505  2.2800  1.5965
  312MOL    H9244254   1.743   5.588   4.776 -0.7205 -1.3634  0.8440
  312MOL    C9344255   2.034   5.652   4.643  0.6384  0.1239  0.2766
  312MOL    C9444256   2.086   5.736   4.526 -0.4752  0.2012  0.5067
  312MOL    O9544257   2.067   5.674   4.402 -0.1394 -0.0515 -0.2125
  312MOL    H9644258   2.060   5.698   4.738 -2.7624  3.6247 -0.3633
  312MOL    H9744259   2.074   5.551   4.649 -1.5375 -0.6907  1.7458
  312MOL    H9844260   2.192   5.745   4.550 -0.1768  2.8998 -1.6126
  312MOL    H9944261   2.051   5.839   4.530 -2.1492 -0.3273 -0.1207
  312MOL   C10044262   2.156   5.737   4.307 -0.7220 -0.3380  0.1798
  312MOL   C10144263   2.127   5.666   4.168 -0.3242 -0.0857  0.4098
  312MOL   O10244264   2.176   5.744   4.056 -0.1298 -0.4476  0.0151
  312MOL   H10344265   2.132   5.842   4.292 -1.1758 -0.3733  0.6498
  312MOL   H10444266   2.258   5.729   4.343 -0.8832 -2.1665  0.2862
  312MOL   H10544267   2.020   5.650   4.155 -0.2967  1.0764 -1.4661
  312MOL   H10644268   2.169   5.566   4.169  1.0188  0.4613  0.0426
  312MOL   C10744269   2.137   5.707   3.926  0.5646  1.1497 -0.3881
  312MOL   C10844270   2.105   5.829   3.829 -0.3521  0.2098  0.1587
  312MOL   O10944271   1.977   5.878   3.836  0.5948 -0.3341  0.2924
  312MOL   H11044272   2.210   5.641   3.879 -0.3751  1.0515 -1.7646
  312MOL   H11144273   2.046   5.646   3.934  0.7655  0.8635 -0.2550
  312MOL   H11244274   2.121   5.800   3.726  0.0256 -0.3372  0.3667
  312MOL   H11344275   2.180   5.908   3.844  1.6530 -1.1115 -2.6097
  312MOL   C11444276   1.936   5.943   3.950 -1.0388  0.0431 -0.8149
  312MOL   C11544277   1.789   5.983   3.932  0.2127 -0.7488 -0.8574
  312MOL   O11644278   1.786   6.111   3.875 -0.2679  0.0869 -0.1118
  312MOL   H11744279   1.952   5.889   4.044 -0.1188 -0.8405 -1.4698
  312MOL   H11844280   2.001   6.030   3.963  0.7517 -1.1353 -1.6370
  312MOL   H11944281   1.741   5.986   4.030  0.2433 -0.3862 -0.8556
  312MOL   H12044282   1.734   5.911   3.871 -1.9480 -0.4482  0.6646
  312MOL   C12144283   1.660   6.162   3.840  0.2240 -0.5983 -1.4586
  312MOL   C12244284   1.678   6.310   3.775 -0.4847  0.3397  0.4279
  312MOL   O12344285   1.691   6.407   3.881  0.9724  0.1530  0.0647
  312MOL   H12444286   1.620   6.100   3.760  0.6109  0.4474 -2.4790
  312MOL   H12544287   1.594   6.157   3.926  2.8058  0.7517  0.6711
  312MOL   H12644288   1.596   6.335   3.709 -0.6296  0.2623  0.5779
  312MOL   H12744289   1.771   6.303   3.718 -1.1379 -1.1757 -0.4773
  312MOL   C12844290   1.816   6.416   3.949  0.2968  0.3423 -0.1024
  312MOL   C12944291   1.810   6.541   4.035  0.4553 -0.9028  0.0233
  312MOL   O13044292   1.868   6.645   3.960  0.1837  0.0694 -0.3589
  312MOL   H13144293   1.823   6.329   4.014  1.7350 -0.4846 -1.3278
  312MOL   H13244294   1.905   6.414   3.886  1.7458 -0.8734  1.9246
  312MOL   H13344295   1.880   6.526   4.118 -1.3864 -0.4564  1.6821
  312MOL   H13444296   1.709   6.559   4.070  0.1748  0.5575 -1.4623
  312MOL   C13544297   1.852   6.764   4.037  0.1346 -0.5361  0.4048
  312MOL   C13644298   1.920   6.886   3.963 -0.1297 -0.2849  0.2410
  312MOL   O13744299   1.913   6.999   4.042 -0.1975 -0.1807 -0.5544
  312MOL   H13844300   1.746   6.783   4.049 -0.2550 -0.6712 -2.3524
  312MOL   H13944301   1.886   6.759   4.140 -1.4676  2.1518  1.1080
  312MOL   H14044302   1.864   6.917   3.875 -2.8212 -3.4229  0.7504
  312MOL   H14144303   2.024   6.872   3.931  0.2121  1.0220  0.7761
  312MOL   H14244304   1.996   7.045   4.036  1.5177 -2.8635  1.4880
  313MOL     C144305   3.649   6.856   7.601  0.4657  0.2830 -0.1190
  313MOL     C244306   3.522   6.900   7.519  0.4143 -0.1162 -0.1245
  313MOL     O344307   3.409   6.881   7.599  0.0448 -0.4943  0.7313
  313MOL     H444308   3.729   6.823   7.534  1.1456 -0.4669  1.0393
  313MOL     H544309   3.628   6.776   7.672 -2.8539  1.2247  0.0179
  313MOL     H644310   3.513   6.829   7.437 -0.3061 -2.5294  2.0026
  313MOL     H744311   3.523   7.000   7.475  2.5117  0.3723  0.9696
  313MOL     H844312   3.687   6.938   7.661  0.3531  1.3016 -1.4134
  313MOL     C944313   3.294   6.948   7.548  0.0491  0.1544  0.0857
  313MOL    C1044314   3.185   6.921   7.648 -0.2517 -0.5656 -0.1328
  313MOL    O1144315   3.158   6.776   7.637 -0.1171 -0.2018 -0.0333
  313MOL    H1244316   3.307   7.052   7.521  0.3836  0.1637  0.2869
  313MOL    H1344317   3.270   6.883   7.463 -1.2953 -3.4347  3.0398
  313MOL    H1444318   3.094   6.976   7.621  1.7023  2.6801 -0.4018
  313MOL    H1544319   3.207   6.946   7.751 -2.9605  0.1919  0.3142
  313MOL    C1644320   3.220   6.693   7.728 -0.3563 -0.1227 -0.2062
  313MOL    C1744321   3.217   6.547   7.687 -0.1976 -0.1397 -0.7700
  313MOL    O1844322   3.308   6.523   7.578 -0.0815 -0.2024  0.1756
  313MOL    H1944323   3.325   6.722   7.737 -0.4820 -0.2054  1.9736
  313MOL    H2044324   3.177   6.711   0.056 -1.8337  1.0469 -1.0308
  313MOL    H2144325   3.115   6.531   7.652 -0.8646 -3.2977  2.3271
  313MOL    H2244326   3.240   6.482   0.000  0.0608  2.3430  1.1265
  313MOL    C2344327   3.440   6.498   7.630 -0.2795  0.0329 -0.5509
  313MOL    C2444328   3.520   6.497   7.503  0.1434  1.1558  0.4455
  313MOL    O2544329   3.549   6.364   7.466 -0.5644  0.1092 -0.0661
  313MOL    H2644330   3.486   6.579   7.687  0.4486 -1.3165  0.7934
  313MOL    H2744331   3.459   6.404   7.681  1.5327  0.1692 -0.9161
  313MOL    H2844332   3.615   6.550   7.504  0.9773 -0.3094  0.2274
  313MOL    H2944333   3.474   6.539   7.413  0.6131 -1.7042 -1.1910
  313MOL    C3044334   3.452   6.294   7.381 -1.0176  0.0612 -0.8281
  313MOL    C3144335   3.501   6.159   7.325  0.5412  0.1557  0.2817
  313MOL    O3244336   3.433   6.135   7.206 -0.4071  0.5795  0.0108
  313MOL    H3344337   3.361   6.284   7.441  1.6061  0.0666  3.3293
  313MOL    H3444338   3.446   6.351   7.288 -0.1698 -3.0955 -2.8773
  313MOL    H3544339   3.483   6.080   7.398 -2.7033 -0.0035 -0.6322
  313MOL    H3644340   3.605   6.154   7.291 -0.1017 -0.0635 -1.7019
  313MOL    C3744341   3.440   6.001   7.152 -0.0271 -0.1181  0.5504
  313MOL    C3844342   3.324   5.919   7.188 -0.0583 -0.6465  0.2925
  313MOL    O3944343   3.338   5.792   7.123 -0.4100 -0.3447 -0.2279
  313MOL    H4044344   3.440   6.014   7.044  0.0351  1.0521  0.6868
  313MOL    H4144345   3.539   5.960   7.172  0.5087  1.9537  2.2879
  313MOL    H4244346   3.231   5.960   7.149  0.8569  0.9889 -0.2296
  313MOL    H4344347   3.302   5.913   7.295  2.5114  0.8846  0.9417
  313MOL    C4444348   3.232   5.698   7.134 -0.3961 -0.0182 -0.0141
  313MOL    C4544349   3.294   5.564   7.166  0.7463  0.6243 -0.0092
  313MOL    O4644350   3.297   5.537   7.304  0.6708  0.3097  0.1985
  313MOL    H4744351   3.153   5.724   7.204  3.8082  1.7340  4.3094
  313MOL    H4844352   3.203   5.704   7.029  5.3695  1.4767 -1.6960
  313MOL    H4944353   3.391   5.546   7.117  0.7497 -1.9190  0.8471
  313MOL    H5044354   3.233   5.484   7.124  2.1737  0.8787 -2.7053
  313MOL    C5144355   3.405   5.607   7.373  0.0471  0.5902 -0.4389
  313MOL    C5244356   3.400   5.575   7.516 -0.2198 -0.4472  0.0279
  313MOL    O5344357   3.419   5.434   7.547 -0.3675 -0.6458  0.8284
  313MOL    H5444358   3.499   5.581   7.324 -0.1786  2.9424 -2.2323
  313MOL    H5544359   3.387   5.713   7.355 -0.5384  0.6715  0.5827
  313MOL    H5644360   3.303   5.591   7.562  1.0281 -0.4406  2.7554
  313MOL    H5744361   3.483   5.629   7.562 -0.3219 -1.0244  0.9042
  313MOL    C5844362   3.463   5.411   7.684  0.2943  0.3679  0.0982
  313MOL    C5944363   3.365   5.454   0.023 -0.1260  0.1968  0.4452
  313MOL    O6044364   3.345   5.595   0.017  0.3907 -0.1263  0.2841
  313MOL    H6144365   3.471   5.303   7.690  0.8222  0.4026  0.0693
  313MOL    H6244366   3.560   5.460   7.696  0.2192  0.7137 -0.6844
  313MOL    H6344367   3.402   5.430   0.123  1.8005 -1.5333 -0.6350
  313MOL    H6444368   3.267   5.417   7.766  1.3724 -1.5387 -2.6834
  313MOL    C6544369   3.449   5.666   0.087  0.3160  0.5815 -0.3207
  313MOL    C6644370   3.416   5.822   0.079 -0.0913 -0.9460  0.1023
  313MOL    O6744371   3.435   5.870   7.718  0.5848  0.1380 -0.2340
  313MOL    H6844372   3.452   5.647   0.195  2.2782 -0.8763 -0.5878
  313MOL    H6944373   3.542   5.637   0.038 -0.0243 -0.9744 -0.0663
  313MOL    H7044374   3.477   5.870   0.155  2.7035 -3.9539 -0.1494
  313MOL    H7144375   3.309   5.836   0.099 -0.3018 -3.2283  0.7220
  313MOL    C7244376   3.566   5.917   7.695  0.6580  0.2450 -0.3538
  313MOL    C7344377   3.585   6.062   7.732 -0.8687 -0.4159 -0.7585
  313MOL    O7444378   3.621   6.054   0.097 -0.2045 -0.1080  0.1335
  313MOL    H7544379   3.645   5.865   7.749  0.6172  0.0074 -0.5224
  313MOL    H7644380   3.576   5.881   7.592  0.5210  1.9150 -0.9555
  313MOL    H7744381   3.496   6.116   7.702 -1.8718 -1.6034 -0.0206
  313MOL    H7844382   3.664   6.099   7.667 -1.9713  3.4248  0.0011
  313MOL    C7944383   3.648   6.178   0.158 -0.0788 -0.7297 -0.0524
  313MOL    C8044384   3.645   6.147   0.300 -0.0721 -0.1132 -0.0335
  313MOL    O8144385   3.517   6.125   0.355  0.2688 -0.1821  0.5970
  313MOL    H8244386   3.743   6.221   0.127  0.1588 -0.6388  0.7983
  313MOL    H8344387   3.565   6.242   0.126  0.9549  1.2968  1.2509
  313MOL    H8444388   3.690   6.226   0.359 -0.6319 -0.3286  0.6944
  313MOL    H8544389   3.706   6.059   0.319 -4.3533 -2.4660  3.8882
  313MOL    C8644390   3.520   6.091   0.489  0.7073  0.5521 -0.3704
  313MOL    C8744391   3.378   6.054   0.532  0.0834 -0.2058 -0.4875
  313MOL    O8844392   3.335   5.934   0.483 -0.0676 -0.3887  0.6307
  313MOL    H8944393   3.584   6.007   0.516 -0.4355 -0.1900  0.0756
  313MOL    H9044394   3.555   6.177   0.546 -1.2697  1.2630 -0.1938
  313MOL    H9144395   3.310   6.139   0.520  0.2947  0.4819  2.7803
  313MOL    H9244396   3.377   6.036   0.640  0.1757 -0.9263 -0.6045
  313MOL    C9344397   3.198   5.923   0.459 -0.4042  0.3862 -0.2578
  313MOL    C9444398   3.162   5.767   0.458  0.0445  0.1029  0.4563
  313MOL    O9544399   3.133   5.726   0.588 -0.4822  0.0528 -0.2631
  313MOL    H9644400   3.144   5.964   0.544  0.3368  0.2667  0.2677
  313MOL    H9744401   3.173   5.976   0.367  3.2142 -0.3524 -1.7236
  313MOL    H9844402   3.232   5.708   0.400 -0.9849  0.2756 -0.9860
  313MOL    H9944403   3.066   5.747   0.411  0.5569 -2.2196  0.3559
  313MOL   C10044404   3.255   5.695   0.655 -0.4808 -0.3183  0.2123
  313MOL   C10144405   3.219   5.637   0.793 -0.3720 -0.0412  0.4754
  313MOL   O10244406   3.323   5.553   0.848  0.5759  0.5453  0.8185
  313MOL   H10344407   3.304   5.612   0.605  0.4810  0.6554 -0.4660
  313MOL   H10444408   3.327   5.777   0.648  0.1320 -0.9923 -1.5265
  313MOL   H10544409   3.128   5.578   0.782 -1.0099  0.5595  2.3562
  313MOL   H10644410   3.204   5.715   0.868 -1.9711 -0.3004  0.4465
  313MOL   C10744411   3.299   5.517   0.978  0.0584 -0.3831  0.4512
  313MOL   C10844412   3.397   5.409   1.028 -0.6092  0.0371  0.1876
  313MOL   O10944413   3.345   5.322   1.133  0.2560 -0.9733  0.3069
  313MOL   H11044414   3.311   5.592   1.057  2.7973 -1.0617  0.7382
  313MOL   H11144415   3.200   5.476   0.995 -0.3559  0.4608  0.1227
  313MOL   H11244416   3.487   5.460   1.062 -2.2906  0.8748  3.6585
  313MOL   H11344417   3.412   5.348   0.939  1.3708  0.5399  0.1385
  313MOL   C11444418   3.444   5.241   1.185  0.0808  1.1628 -0.2733
  313MOL   C11544419   3.438   5.113   1.108 -0.3048  0.0112  0.4224
  313MOL   O11644420   3.544   5.032   1.148  0.0675  0.5428  0.1341
  313MOL   H11744421   3.544   5.284   1.177  1.1213 -0.5847  2.4594
  313MOL   H11844422   3.421   5.206   1.286 -1.7886  2.1455 -0.3300
  313MOL   H11944423   3.449   5.133   1.001 -0.8978  0.2588  0.4069
  313MOL   H12044424   3.344   5.058   1.117  0.1181 -0.7117  0.4738
  313MOL   C12144425   3.511   4.896   1.115 -0.5744 -0.3132 -0.0252
  313MOL   C12244426   3.627   4.806   1.161 -0.0257  0.1973  0.1502
  313MOL   O12344427   3.608   4.784   1.298 -0.1057  0.0757  0.6359
  313MOL   H12444428   3.424   4.865   1.171 -2.2137  2.0584 -1.1482
  313MOL   H12544429   3.508   4.879   1.007 -0.8362  0.8503 -0.2110
  313MOL   H12644430   3.717   4.866   1.150 -0.6450  1.5788  2.3691
  313MOL   H12744431   3.637   4.715   1.101  2.1198  1.2121 -1.0767
  313MOL   C12844432   3.714   4.701   1.347 -0.2789  0.3254  0.8870
  313MOL   C12944433   3.671   4.658   1.485 -0.2225 -0.5951 -0.6406
  313MOL   O13044434   3.766   4.572   1.547  0.3751  0.2909 -0.0411
  313MOL   H13144435   3.740   4.612   1.291  1.9694  1.9052 -0.7054
  313MOL   H13244436   3.812   4.748   1.347 -0.2575  0.2937 -0.5024
  313MOL   H13344437   3.577   4.603   1.481 -1.3554  1.3711 -1.7545
  313MOL   H13444438   3.677   4.744   1.551 -0.7882 -0.4975 -0.7245
  313MOL   C13544439   3.724   4.533   1.678 -0.1872  0.0997 -0.3164
  313MOL   C13644440   3.854   4.532   1.759 -0.1128  0.3605  0.7684
  313MOL   O13744441   3.903   4.661   1.789  0.3471 -0.0591 -0.0232
  313MOL   H13844442   3.658   4.606   1.725 -0.9514 -0.7721 -0.0141
  313MOL   H13944443   3.672   4.437   1.684  0.2637 -0.0517  1.4295
  313MOL   H14044444   3.930   4.476   1.704 -2.4205  0.3475 -2.5430
  313MOL   H14144445   3.836   4.484   1.855 -1.8221  1.0392  0.8034
  313MOL   H14244446   3.840   4.716   1.832 -1.3181 -2.9559  1.3353
  314MOL     C144447   4.638   2.703   5.174  0.4411  0.7768 -0.0623
  314MOL     C244448   4.724   2.596   5.238 -0.2741 -0.0933 -0.1953
  314MOL     O344449   4.738   2.614   5.382 -0.1649  0.0822  0.2765
  314MOL     H444450   4.645   2.679   5.068 -1.1040 -2.1168  0.4581
  314MOL     H544451   4.670   2.804   5.202  1.6777  0.7394 -1.2427
  314MOL     H644452   4.819   2.597   5.184  0.7385  0.2414  1.5775
  314MOL     H744453   4.677   2.499   5.224  0.2865 -0.5000  0.6553
  314MOL     H844454   4.536   2.689   5.210  1.0011 -0.9927  0.8551
  314MOL     C944455   4.831   2.524   5.443 -0.5731 -0.6511  0.5615
  314MOL    C1044456   4.830   2.554   5.589  0.0824 -0.5920 -0.1385
  314MOL    O1144457   4.897   2.681   5.611 -0.6414 -0.4800  0.5739
  314MOL    H1244458   4.805   2.418   5.438 -0.2005 -0.6886 -1.0575
  314MOL    H1344459   4.929   2.532   5.396 -1.2525  0.3178 -0.7154
  314MOL    H1444460   4.891   2.482   5.644  1.9819  0.3012 -1.0294
  314MOL    H1544461   4.729   2.552   5.631  0.5886 -0.0346  1.1599
  314MOL    C1644462   4.858   2.748   5.733  1.0157 -0.2670  0.4345
  314MOL    C1744463   4.743   2.846   5.704 -0.5201 -0.0333  0.2672
  314MOL    O1844464   4.623   2.780   5.686 -0.2997  0.2105  0.6594
  314MOL    H1944465   4.836   2.676   5.812 -0.4587  0.0148  0.2852
  314MOL    H2044466   4.940   2.813   5.762  0.0881  1.5748 -0.9814
  314MOL    H2144467   4.771   2.919   5.628  1.3365 -3.9500 -2.9521
  314MOL    H2244468   4.724   2.917   5.785 -1.0722  0.0181  0.0945
  314MOL    C2344469   4.518   2.856   5.634 -0.0196  0.2132  0.6970
  314MOL    C2444470   4.529   2.892   5.484 -0.1033  1.4814  0.2328
  314MOL    O2544471   4.444   3.000   5.447  0.0430  0.0018  0.7833
  314MOL    H2644472   4.421   2.807   5.643 -0.0148  0.6437  3.3543
  314MOL    H2744473   4.501   2.949   5.688  0.5297  0.4620  0.4367
  314MOL    H2844474   4.504   2.805   5.422 -0.4488  1.4260  0.4478
  314MOL    H2944475   4.630   2.925   5.458  0.1583  1.2524  0.9372
  314MOL    C3044476   4.482   3.063   5.327 -1.1820 -0.0350 -0.4465
  314MOL    C3144477   4.380   3.152   5.258  0.5755 -0.7600 -0.4063
  314MOL    O3244478   4.424   3.200   5.140  0.1828 -0.2560 -0.0477
  314MOL    H3344479   4.581   3.108   5.337 -1.6906  1.1765 -0.7428
  314MOL    H3444480   4.493   2.975   5.264 -2.4707  0.3106 -1.1623
  314MOL    H3544481   4.353   3.239   5.318  2.7009  0.0904 -0.6381
  314MOL    H3644482   4.298   3.082   5.241 -1.3145  1.2067  0.4500
  314MOL    C3744483   4.366   3.321   5.097 -1.0911 -0.0352 -0.5722
  314MOL    C3844484   4.374   3.343   4.942 -0.3760  0.1757  0.8843
  314MOL    O3944485   4.280   3.262   4.879 -0.1295 -0.5098 -0.3916
  314MOL    H4044486   4.259   3.316   5.118 -0.7885 -3.0201  0.5241
  314MOL    H4144487   4.403   3.400   5.162  0.2411  2.2377 -3.9808
  314MOL    H4244488   4.467   3.303   4.902 -0.4832 -2.1952  2.8628
  314MOL    H4344489   4.367   3.449   4.915  0.5157  0.7441  2.7712
  314MOL    C4444490   4.300   3.250   4.735 -0.0031  0.2821 -0.1410
  314MOL    C4544491   4.215   3.367   4.681 -0.0924 -0.2248  0.2808
  314MOL    O4644492   4.195   3.349   4.537 -0.4230 -0.2299  0.1381
  314MOL    H4744493   4.403   3.268   4.703  1.1413 -2.7016  1.7096
  314MOL    H4844494   4.273   3.154   4.693  1.0943  0.8458 -2.2186
  314MOL    H4944495   4.259   3.462   4.709  0.5465 -1.0080  2.0108
  314MOL    H5044496   4.115   3.374   4.724  0.6329 -1.3241  2.2002
  314MOL    C5144497   4.311   3.375   4.458  0.6209 -0.7121  0.2318
  314MOL    C5244498   4.350   3.521   4.460 -0.5474 -0.5284 -0.2001
  314MOL    O5344499   4.255   3.589   4.382  0.4727  0.2773  0.0405
  314MOL    H5444500   4.400   3.322   4.490  0.6262  0.3147  2.0261
  314MOL    H5544501   4.286   3.355   4.354  0.8712  1.8458 -0.3355
  314MOL    H5644502   4.450   3.544   4.424 -0.2705 -2.8269 -0.9824
  314MOL    H5744503   4.368   3.559   4.561  0.7310  0.5438 -0.8167
  314MOL    C5844504   4.301   3.711   4.324  0.5586 -0.2600  0.3980
  314MOL    C5944505   4.194   3.758   4.217 -0.7955 -0.5496 -0.0229
  314MOL    O6044506   4.068   3.800   4.269  0.1879  0.3476 -0.3157
  314MOL    H6144507   4.336   3.790   4.390  1.5449  3.0023 -3.8408
  314MOL    H6244508   4.383   3.679   4.260 -0.5574 -3.4595  0.4780
  314MOL    H6344509   4.169   3.675   4.150  0.0557  1.1431 -2.5339
  314MOL    H6444510   4.244   3.836   4.160 -0.7244  1.4387  2.6785
  314MOL    C6544511   3.972   3.837   4.161 -0.4948  0.0965  0.3148
  314MOL    C6644512   3.924   3.726   4.069 -0.5648  0.3338 -0.5938
  314MOL    O6744513   3.828   3.780   3.982 -0.6189  0.1932 -0.5291
  314MOL    H6844514   3.886   3.889   4.203 -0.4747 -0.7317  1.4203
  314MOL    H6944515   4.020   3.908   4.095 -0.1953  0.6691  1.1482
  314MOL    H7044516   3.884   3.644   4.128  0.8936  1.3882  1.8985
  314MOL    H7144517   4.000   3.693   3.998 -1.3470 -2.5697 -0.1527
  314MOL    C7244518   3.706   3.703   3.981 -0.1293  0.2128  0.3868
  314MOL    C7344519   3.598   3.777   3.914  0.7849 -0.2639 -0.4817
  314MOL    O7444520   3.626   3.782   3.771 -0.0869 -0.0656  0.2518
  314MOL    H7544521   3.718   3.609   3.928  0.3184  0.7853 -0.5528
  314MOL    H7644522   3.671   3.679   4.081  1.2566 -1.4119  0.4998
  314MOL    H7744523   3.592   3.879   3.951  0.9817 -0.1226 -0.8353
  314MOL    H7844524   3.506   3.723   3.936 -1.8665  3.2776 -2.4438
  314MOL    C7944525   3.514   3.818   3.690 -0.1395 -0.3128 -0.2584
  314MOL    C8044526   3.541   3.819   3.540 -0.4018 -0.0166 -0.2445
  314MOL    O8144527   3.423   3.835   3.469  0.0336 -0.6310 -0.4199
  314MOL    H8244528   3.437   3.742   3.705 -0.6238  0.2780  0.2459
  314MOL    H8344529   3.476   3.920   3.692 -0.8840 -0.5359 -1.7843
  314MOL    H8444530   3.577   3.718   3.521 -1.6286 -0.0856 -2.3112
  314MOL    H8544531   3.611   3.898   3.517 -0.5863  0.6409  1.3777
  314MOL    C8644532   3.438   3.838   3.329  0.2624  0.6614  0.3269
  314MOL    C8744533   3.294   3.844   3.266  0.0545  0.2580 -0.4014
  314MOL    O8844534   3.239   3.713   3.257  0.5690 -0.8351  1.2077
  314MOL    H8944535   3.479   3.938   3.319  0.9838  0.2668 -0.7399
  314MOL    H9044536   3.503   3.759   3.290 -0.5296  0.8280 -1.3342
  314MOL    H9144537   3.304   3.888   3.167 -0.0751  1.3742  0.0695
  314MOL    H9244538   3.215   3.891   3.325  0.5820  0.7528 -0.0907
  314MOL    C9344539   3.246   3.619   3.364  0.7218  0.0381 -0.2164
  314MOL    C9444540   3.157   3.506   3.328 -0.3268  1.0010 -0.0965
  314MOL    O9544541   3.146   3.413   3.436  0.1733 -0.0293 -0.9390
  314MOL    H9644542   3.344   3.572   3.368  0.3232 -0.8327 -0.4886
  314MOL    H9744543   3.228   3.660   3.463 -0.0606 -1.5967  0.3391
  314MOL    H9844544   3.193   3.447   3.244 -2.0799  0.5509 -0.5345
  314MOL    H9944545   3.061   3.545   3.296 -0.8273  1.0978  1.4715
  314MOL   C10044546   3.076   3.291   3.399  0.1005 -0.7982 -0.3519
  314MOL   C10144547   3.093   3.172   3.500 -0.3731  0.5253 -0.3789
  314MOL   O10244548   2.994   3.177   3.600  0.7934 -0.2653  0.4328
  314MOL   H10344549   2.972   3.319   3.380  0.1003 -0.6518 -0.1385
  314MOL   H10444550   3.107   3.257   3.300 -1.8268 -0.7221 -1.0020
  314MOL   H10544551   3.190   3.184   3.549 -1.4855  1.7458  1.6298
  314MOL   H10644552   3.075   3.078   3.449 -0.7581  1.2902 -1.6717
  314MOL   C10744553   3.014   3.066   3.688 -0.0251  0.1475 -0.2032
  314MOL   C10844554   2.915   3.072   3.803 -0.2300  0.0594  0.0609
  314MOL   O10944555   2.981   3.148   3.908 -0.1373 -0.1845  0.2492
  314MOL   H11044556   2.989   2.977   3.630 -0.2603 -0.9271  1.5228
  314MOL   H11144557   3.113   3.061   3.734  0.2862  0.3749 -0.8312
  314MOL   H11244558   2.908   2.969   3.838  2.6205 -0.8614 -1.9386
  314MOL   H11344559   2.819   3.116   3.775 -0.0623 -0.3836 -1.2495
  314MOL   C11444560   2.915   3.155   4.038  0.7133  0.4087 -0.3157
  314MOL   C11544561   2.942   3.282   4.117 -0.1265  0.4481 -0.0495
  314MOL   O11644562   2.852   3.390   4.084  0.1305  0.1022 -0.3949
  314MOL   H11744563   2.808   3.134   4.034  0.9921 -1.5511  1.6886
  314MOL   H11844564   2.958   3.072   4.094  1.2332  0.0720 -1.1992
  314MOL   H11944565   3.048   3.306   4.111  0.2113 -1.0605 -0.2693
  314MOL   H12044566   2.927   3.258   4.222  0.9345  1.4984  0.3470
  314MOL   C12144567   2.867   3.515   4.164 -0.4755  0.2127 -0.3190
  314MOL   C12244568   2.987   3.595   4.119  0.5513 -0.1723 -0.0877
  314MOL   O12344569   3.104   3.547   4.191 -0.1723  0.1157 -0.0557
  314MOL   H12444570   2.784   3.582   4.141  0.4770  0.6095 -2.7887
  314MOL   H12544571   2.864   3.488   4.269  2.8655 -1.0704 -0.5018
  314MOL   H12644572   2.977   3.703   4.119  1.3059 -0.0343 -3.9850
  314MOL   H12744573   2.989   3.572   4.012  0.8710  0.5360 -0.2334
  314MOL   C12844574   3.213   3.532   4.104 -0.1032  0.1114 -0.7600
  314MOL   C12944575   3.337   3.507   4.189  0.0999  0.0184 -0.0609
  314MOL   O13044576   3.369   3.639   4.245  0.1896  0.5921  0.1623
  314MOL   H13144577   3.198   3.449   4.035 -1.4335 -1.0945  0.9443
  314MOL   H13244578   3.218   3.618   4.037  1.0723  0.3992 -0.3073
  314MOL   H13344579   3.421   3.476   4.127  0.4295 -1.8320  1.2877
  314MOL   H13444580   3.330   3.438   4.272 -0.2458  0.2869  0.1366
  314MOL   C13544581   3.483   3.638   4.334 -0.3578 -0.7021 -0.2881
  314MOL   C13644582   3.512   3.774   4.392  0.1988 -0.1107  0.7254
  314MOL   O13744583   3.425   3.817   4.495 -0.3285 -0.3508  0.2291
  314MOL   H13844584   3.464   3.561   4.408 -2.4370  0.4727  0.4250
  314MOL   H13944585   3.566   3.609   4.269  2.4295  0.5087  2.5834
  314MOL   H14044586   3.500   3.847   4.312  2.5942 -1.1582 -0.6537
  314MOL   H14144587   3.614   3.774   4.430  0.3998 -0.6556  0.2034
  314MOL   H14244588   3.345   3.768   4.480 -1.8726  1.0445  3.4301
  315MOL     C144589   4.410   5.890   4.265  0.0331 -0.0496 -0.0468
  315MOL     C244590   4.531   5.821   4.327  0.6426  0.4781  0.1628
  315MOL     O344591   4.658   5.808   4.261 -0.6609  0.1513 -0.2825
  315MOL     H444592   4.361   5.826   4.191  1.1317 -3.2811  1.9216
  315MOL     H544593   4.431   5.987   4.221 -3.2684  0.7579  0.0645
  315MOL     H644594   4.505   5.728   4.378 -0.5451  1.3671  1.1957
  315MOL     H744595   4.564   5.889   4.406  0.8510 -0.9030  1.2874
  315MOL     H844596   4.334   5.910   4.341  0.2295 -0.5786  0.2897
  315MOL     C944597   4.645   5.736   4.135 -0.3616  0.0994 -0.5705
  315MOL    C1044598   4.781   5.758   4.073  0.0427 -0.7760 -0.8688
  315MOL    O1144599   4.797   5.898   4.054  0.0213  0.5287 -0.3536
  315MOL    H1244600   4.621   5.633   4.161 -1.0130  0.5306  0.5609
  315MOL    H1344601   4.569   5.773   4.066 -1.8810 -0.3802  0.8448
  315MOL    H1444602   4.793   5.693   3.987  2.0027 -0.6637 -0.7134
  315MOL    H1544603   4.861   5.720   4.137  0.9835  1.9108 -0.3483
  315MOL    C1644604   4.923   5.947   4.012  0.1271  0.3769  0.7416
  315MOL    C1744605   4.939   5.912   3.866 -0.7119 -0.3952 -0.0175
  315MOL    O1844606   4.994   5.779   3.864  0.5018  0.2664  0.4191
  315MOL    H1944607   4.930   6.054   4.027  4.0836  0.1666  0.8844
  315MOL    H2044608   5.004   5.898   4.067  1.3620  4.1803  2.4586
  315MOL    H2144609   5.009   5.985   3.825 -2.2275 -0.1933 -2.3339
  315MOL    H2244610   4.842   5.926   3.817 -1.3349 -0.3134  1.2331
  315MOL    C2344611   5.029   5.742   3.733  0.2636  0.3588  0.6524
  315MOL    C2444612   4.908   5.693   3.659  0.1925  0.1112 -0.1583
  315MOL    O2544613   4.835   5.590   3.727  0.3042  0.2069 -0.0165
  315MOL    H2644614   5.088   5.812   3.674 -1.7115  2.7826  1.4520
  315MOL    H2744615   5.103   5.664   3.754  0.3245 -0.1286 -1.2730
  315MOL    H2844616   4.946   5.659   3.563 -0.8307 -1.0535 -0.1641
  315MOL    H2944617   4.849   5.778   3.626  1.1301  1.2418  1.0443
  315MOL    C3044618   4.877   5.452   3.718 -0.3026  0.6369  0.0958
  315MOL    C3144619   4.796   5.372   3.819 -1.2022 -0.2871 -0.1436
  315MOL    O3244620   4.674   5.322   3.777 -0.8122  0.0704  0.5788
  315MOL    H3344621   4.859   5.417   3.616  1.3140  0.4447 -0.1415
  315MOL    H3444622   4.984   5.450   3.739 -0.7326 -2.6243  2.2537
  315MOL    H3544623   4.797   5.421   3.917 -1.3397  1.7784 -1.1449
  315MOL    H3644624   4.851   5.280   3.834  0.0108  0.4471 -0.0309
  315MOL    C3744625   4.584   5.421   3.739  0.6470 -0.2143  0.4538
  315MOL    C3844626   4.453   5.351   3.693 -0.4175 -0.0088 -0.4770
  315MOL    O3944627   4.481   5.280   3.575  0.6683 -0.0214 -0.0943
  315MOL    H4044628   4.558   5.484   3.824 -0.4141 -0.6497  0.4647
  315MOL    H4144629   4.630   5.491   3.670 -0.5531  0.8086  0.6676
  315MOL    H4244630   4.376   5.427   3.681  0.5021  1.1080  0.6350
  315MOL    H4344631   4.423   5.274   3.764 -0.4590 -0.7028 -1.2331
  315MOL    C4444632   4.370   5.205   3.527  0.0050 -0.7863 -0.5690
  315MOL    C4544633   4.395   5.116   3.400 -0.9321 -0.1663 -0.0849
  315MOL    O4644634   4.370   5.186   3.276 -0.3079 -0.3340  0.0337
  315MOL    H4744635   4.328   5.141   3.605  0.7471 -0.1594  0.3595
  315MOL    H4844636   4.289   5.276   3.512  1.8478  1.3992 -0.5136
  315MOL    H4944637   4.337   5.024   3.403  1.2907 -1.7077 -2.2101
  315MOL    H5044638   4.495   5.074   3.411 -0.6816  0.7998  1.5177
  315MOL    C5144639   4.400   5.107   3.167  0.2710 -0.2108  0.2863
  315MOL    C5244640   4.334   5.171   3.042 -0.3658 -0.4925  0.9132
  315MOL    O5344641   4.381   5.301   2.995  0.2646  0.0368 -0.0158
  315MOL    H5444642   4.508   5.104   3.155  0.1532 -0.9258 -0.6999
  315MOL    H5544643   4.364   5.004   3.170  1.6081 -0.7325 -0.7723
  315MOL    H5644644   4.229   5.189   3.065 -1.0944 -2.5923 -0.6409
  315MOL    H5744645   4.330   5.093   2.966 -2.3760  0.4122  0.0547
  315MOL    C5844646   4.486   5.276   2.902  0.4521  0.2035  0.0115
  315MOL    C5944647   4.628   5.232   2.956  0.2338 -0.4715 -0.0120
  315MOL    O6044648   4.734   5.297   2.888  0.1635  0.3255 -0.6416
  315MOL    H6144649   4.457   5.215   2.817 -1.4608  0.3494  0.5262
  315MOL    H6244650   4.489   5.374   2.853  1.6183 -0.3061 -0.9496
  315MOL    H6344651   4.648   5.126   2.937  0.7437 -0.7992  2.1343
  315MOL    H6444652   4.639   5.243   3.064 -2.4523  1.2577  0.1421
  315MOL    C6544653   4.868   5.277   2.947  0.4507  0.2001 -0.2092
  315MOL    C6644654   4.924   5.136   2.942  0.2975 -0.2225 -0.1994
  315MOL    O6744655   4.865   5.083   3.065  0.2183  0.1572  0.3456
  315MOL    H6844656   4.930   5.342   2.885  1.2002 -0.7589 -0.4702
  315MOL    H6944657   4.870   5.322   3.046  0.7114 -0.5691  0.1373
  315MOL    H7044658   5.032   5.129   2.945  0.3449  0.2290 -0.7259
  315MOL    H7144659   4.880   5.093   2.852 -2.5836  1.5884  0.2647
  315MOL    C7244660   4.920   4.952   3.088  0.3826 -0.0044 -1.0740
  315MOL    C7344661   4.884   4.899   3.226 -0.2913  0.5201 -0.3121
  315MOL    O7444662   4.741   4.877   3.223 -0.4804 -0.1793 -0.1173
  315MOL    H7544663   4.870   4.880   3.023 -0.7320  0.1934 -0.4488
  315MOL    H7644664   5.027   4.950   3.071  0.7366  2.3418  0.6139
  315MOL    H7744665   4.924   4.973   3.295 -0.7887  1.4961 -1.0655
  315MOL    H7844666   4.932   4.801   3.237 -2.0350 -0.2508  0.5328
  315MOL    C7944667   4.691   4.821   3.346  0.1555  0.5168 -0.0989
  315MOL    C8044668   4.545   4.766   3.327 -0.5744 -0.7727 -0.4542
  315MOL    O8144669   4.468   4.790   3.450  0.1563 -0.2497 -0.7822
  315MOL    H8244670   4.764   4.752   3.390 -0.0044  0.1059 -0.4806
  315MOL    H8344671   4.687   4.909   3.410 -0.2498  0.5909 -0.2319
  315MOL    H8444672   4.539   4.662   3.295 -0.0362 -1.1099  0.5093
  315MOL    H8544673   4.499   4.839   3.261 -0.1585  1.2991  1.4855
  315MOL    C8644674   4.469   4.685   3.539  0.3856  0.0574 -0.4987
  315MOL    C8744675   4.384   4.733   3.663 -0.9976  0.5028 -0.5486
  315MOL    O8844676   4.254   4.771   3.614  0.7432  0.1893 -0.5722
  315MOL    H8944677   4.417   4.605   3.487 -0.8954  1.1837 -0.9910
  315MOL    H9044678   4.566   4.645   3.568  0.7511 -0.5450 -2.5076
  315MOL    H9144679   4.435   4.811   3.720  0.5598 -0.4145 -0.6745
  315MOL    H9244680   4.384   4.643   3.725 -0.7097  0.0486 -1.2094
  315MOL    C9344681   4.172   4.828   3.712 -0.6733  0.0494  0.2877
  315MOL    C9444682   4.051   4.883   3.634  0.7255 -0.5842 -0.1628
  315MOL    O9544683   4.084   5.006   3.571 -0.4414  0.3189 -0.6503
  315MOL    H9644684   4.138   4.747   3.777  0.1326  1.2298  2.2076
  315MOL    H9744685   4.209   4.913   3.769 -0.7130  1.1709 -1.3407
  315MOL    H9844686   3.961   4.904   3.692 -0.5992 -1.8513 -1.6937
  315MOL    H9944687   4.003   4.814   3.564 -0.7352 -0.9354  1.1568
  315MOL   C10044688   3.976   5.056   3.508 -0.0312 -0.4758 -0.7845
  315MOL   C10144689   4.022   5.179   3.431 -0.1063  0.1145  0.1707
  315MOL   O10244690   4.028   5.292   3.519  0.1822  0.3549 -0.2413
  315MOL   H10344691   3.929   4.987   3.438 -0.5014  0.1167 -1.0587
  315MOL   H10444692   3.896   5.088   3.575  0.7085 -0.9536  0.3302
  315MOL   H10544693   3.937   5.193   3.365  0.5742  1.7375 -0.3807
  315MOL   H10644694   4.116   5.159   3.379 -0.9525 -2.8039 -0.3565
  315MOL   C10744695   4.057   5.406   3.438  0.2916 -0.7920 -0.3023
  315MOL   C10844696   4.065   5.535   3.512 -0.2835  0.2016  0.5129
  315MOL   O10944697   3.929   5.569   3.539 -0.0761  0.1224 -0.3066
  315MOL   H11044698   4.154   5.403   3.389  0.0614 -0.3131 -0.7918
  315MOL   H11144699   3.986   5.413   3.356  0.7183  1.6363 -0.4840
  315MOL   H11244700   4.114   5.616   3.458 -2.1476  0.3695 -0.9634
  315MOL   H11344701   4.128   5.516   3.600  0.7679  2.8066  0.3652
  315MOL   C11444702   3.919   5.665   3.639  0.3407  0.7618  1.0799
  315MOL   C11544703   3.770   5.681   3.663 -0.3434  0.5577 -0.1879
  315MOL   O11644704   3.708   5.744   3.558  0.4217  0.0808 -0.1776
  315MOL   H11744705   3.976   5.643   3.729 -0.4759  0.1070  1.4464
  315MOL   H11844706   3.948   5.768   3.623  1.2064  0.4741  0.8043
  315MOL   H11944707   3.750   5.744   3.750  0.7803 -0.5507  0.9124
  315MOL   H12044708   3.731   5.581   3.685 -0.0485  0.6902  0.9923
  315MOL   C12144709   3.638   5.649   3.477 -0.4908  0.1784 -0.0800
  315MOL   C12244710   3.561   5.724   3.367  0.0231  0.5836 -0.7247
  315MOL   O12344711   3.438   5.775   3.400 -0.1188 -0.0353  0.4478
  315MOL   H12444712   3.716   5.589   3.428 -2.3501 -0.4512 -2.3694
  315MOL   H12544713   3.580   5.572   3.527 -0.8147  0.0234 -0.6915
  315MOL   H12644714   3.541   5.656   3.285  0.2534 -2.5747  1.7335
  315MOL   H12744715   3.624   5.802   3.324  1.9487 -1.1568 -1.1615
  315MOL   C12844716   3.401   5.883   3.320  0.2397 -0.1624  0.7697
  315MOL   C12944717   3.249   5.907   3.324 -0.2651  0.3713  0.3209
  315MOL   O13044718   3.199   5.998   3.226 -0.4814  0.8181  0.3894
  315MOL   H13144719   3.457   5.972   3.348 -1.3220  0.7697  1.0010
  315MOL   H13244720   3.435   5.861   3.219  1.7336  1.5798  0.8783
  315MOL   H13344721   3.229   5.952   3.421  1.1717 -0.3249  0.9572
  315MOL   H13444722   3.203   5.808   3.328 -0.2775  0.2118 -2.6110
  315MOL   C13544723   3.204   5.952   3.088 -0.4926  0.5782  0.4000
  315MOL   C13644724   3.133   6.059   3.007  0.2981  0.4535 -0.3274
  315MOL   O13744725   3.193   6.184   3.033  0.8344 -0.2225 -0.0363
  315MOL   H13844726   3.305   5.936   3.052 -0.9606 -3.7705  0.8439
  315MOL   H13944727   3.158   5.854   3.080  1.2457 -0.5393  3.4320
  315MOL   H14044728   3.031   6.047   3.043  0.7335  0.6012  1.0060
  315MOL   H14144729   3.142   6.030   2.903  0.4395 -2.2582  0.4028
  315MOL   H14244730   3.208   6.197   3.125 -4.5980 -1.1545  1.1625
  316MOL     C144731   6.098   5.253   7.697  0.6933  0.1406 -0.1157
  316MOL     C244732   6.180   5.253   7.574 -0.4558  0.5426 -0.3905
  316MOL     O344733   6.112   5.204   7.456  0.6781  0.0600 -0.1958
  316MOL     H444734   6.048   5.162   7.731  1.0268  1.1109  3.1722
  316MOL     H544735   6.022   5.331   7.691  0.5762 -0.1717 -3.2045
  316MOL     H644736   6.255   5.174   7.590 -0.3179  0.6290 -0.6098
  316MOL     H744737   6.230   5.349   7.568  1.1013 -0.2247 -0.0466
  316MOL     H844738   6.159   5.287   0.009 -0.1649 -0.6983  0.8841
  316MOL     C944739   6.170   5.251   7.332 -0.3947  0.4706 -0.1378
  316MOL    C1044740   6.059   5.252   7.225 -0.1046  0.2778  0.5235
  316MOL    O1144741   6.057   5.119   7.159 -0.2131  0.5154 -0.4637
  316MOL    H1244742   6.212   5.351   7.341  1.1058 -0.4359  3.8243
  316MOL    H1344743   6.250   5.181   7.308  0.4599  0.0479  3.5978
  316MOL    H1444744   6.096   5.325   7.153  1.4454  0.4252  1.4493
  316MOL    H1544745   5.958   5.283   7.254  0.8603  2.7157  1.4273
  316MOL    C1644746   5.948   5.102   7.068  0.3920  0.9109 -0.2026
  316MOL    C1744747   5.967   5.159   6.929  0.1080 -0.2031  0.0455
  316MOL    O1844748   5.941   5.301   6.933 -0.4684 -0.0563 -0.1894
  316MOL    H1944749   5.948   4.993   7.057  1.2055  0.8572  0.2759
  316MOL    H2044750   5.861   5.134   7.124  1.4581  2.9188  0.3520
  316MOL    H2144751   5.894   5.122   6.857  0.8208 -0.7773 -0.3903
  316MOL    H2244752   6.063   5.131   6.885 -1.8418 -2.1134 -3.1675
  316MOL    C2344753   5.981   5.381   6.824  0.7824  0.4896  0.0376
  316MOL    C2444754   6.132   5.365   6.789  0.6064 -0.2065  0.0397
  316MOL    O2544755   6.203   5.383   6.916 -0.3004 -0.4033  0.4497
  316MOL    H2644756   5.926   5.346   6.737 -0.9762  1.5060  0.7309
  316MOL    H2744757   5.976   5.490   6.832 -1.5932  0.2937  1.4346
  316MOL    H2844758   6.159   5.438   6.713  0.3548  1.2047  1.2793
  316MOL    H2944759   6.151   5.269   6.742 -2.9163 -0.8167 -0.3276
  316MOL    C3044760   6.340   5.412   6.900  0.7379  0.6893 -0.5471
  316MOL    C3144761   6.432   5.290   6.878 -0.0174 -0.3185  0.7679
  316MOL    O3244762   6.458   5.273   6.741 -0.6054 -0.4880  0.6276
  316MOL    H3344763   6.351   5.490   6.824 -0.2956  0.0835 -1.3275
  316MOL    H3444764   6.366   5.459   6.994  0.4152  1.4063 -0.8082
  316MOL    H3544765   6.394   5.198   6.922 -0.5671  0.2642  1.5481
  316MOL    H3644766   6.526   5.310   6.929 -0.0733 -0.5028  0.9439
  316MOL    C3744767   6.552   5.164   6.710  0.1402 -0.0412 -0.6934
  316MOL    C3844768   6.594   5.191   6.569  0.8379 -0.1907  0.4709
  316MOL    O3944769   6.730   5.167   6.534  0.4563 -0.1093 -0.0352
  316MOL    H4044770   6.636   5.184   6.775 -1.1261 -1.4850  1.4382
  316MOL    H4144771   6.514   5.064   6.731  1.1301 -0.4213 -0.6921
  316MOL    H4244772   6.571   5.294   6.541 -2.0224 -1.0387 -0.5100
  316MOL    H4344773   6.538   5.133   6.495 -2.0503  0.7663  1.8347
  316MOL    C4444774   6.769   5.217   6.410  0.5186 -0.5307  0.0230
  316MOL    C4544775   6.923   5.212   6.391 -0.0088 -0.1232 -0.3340
  316MOL    O4644776   6.984   5.313   6.471 -0.0270 -0.1588  0.2068
  316MOL    H4744777   6.725   5.159   6.329 -0.8658  0.4623  0.0406
  316MOL    H4844778   6.741   5.322   6.409  0.5863 -0.5074  0.7764
  316MOL    H4944779   6.934   5.231   6.284  1.4392  0.0542 -0.1636
  316MOL    H5044780   6.965   5.114   6.412  0.5525 -0.3806 -2.5666
  316MOL    C5144781   7.113   5.368   6.432  0.3095 -0.0551 -0.3590
  316MOL    C5244782   7.159   5.496   6.506 -0.4660 -0.8051  0.1152
  316MOL    O5344783   7.093   5.610   6.455  0.4764 -0.0113  0.5762
  316MOL    H5444784   7.181   5.284   6.446  1.0233  0.6189  0.3025
  316MOL    H5544785   7.100   5.383   6.325  1.3624 -0.2492 -0.5199
  316MOL    H5644786   7.265   5.516   6.496 -0.5647 -1.0458 -1.7760
  316MOL    H5744787   7.146   5.487   6.613 -0.7647 -0.7865  0.0818
  316MOL    C5844788   7.082   5.723   6.536  0.0464 -0.1453 -0.4066
  316MOL    C5944789   7.196   5.820   6.512  0.1591 -0.7217 -0.7774
  316MOL    O6044790   7.318   5.765   6.565 -0.5022 -0.5983  0.0255
  316MOL    H6144791   6.986   5.763   6.501 -0.3100 -2.0259 -1.6570
  316MOL    H6244792   7.086   5.698   6.642 -0.9872 -1.3434 -0.6385
  316MOL    H6344793   7.176   5.919   6.554  2.4772 -0.8530  0.6903
  316MOL    H6444794   7.203   5.840   6.405 -2.2022 -0.8163 -0.9795
  316MOL    C6544795   7.430   5.812   6.490  0.0047 -0.1066 -0.1503
  316MOL    C6644796   7.564   5.789   6.560 -0.1303  0.0169  0.1392
  316MOL    O6744797   7.598   5.888   6.648 -0.1573 -0.0400 -0.4670
  316MOL    H6844798   7.443   5.752   6.399 -1.1073  1.9014 -1.6775
  316MOL    H6944799   7.416   5.919   6.477 -1.5187 -0.3655 -0.7175
  316MOL    H7044800   7.643   5.787   6.484  0.3790 -3.8299  0.6774
  316MOL    H7144801   7.564   5.693   6.610 -0.4773 -0.1287 -0.1348
  316MOL    C7244802   7.713   5.850   6.725  0.0885 -0.2523  0.8795
  316MOL    C7344803   0.005   5.967   6.800 -0.1391  0.2434  0.2715
  316MOL    O7444804   0.086   6.044   6.715  0.4307  0.0172  0.3242
  316MOL    H7544805   7.702   5.768   6.796  1.2024 -2.2976 -1.2281
  316MOL    H7644806   0.007   5.799   6.653 -1.2290 -0.6240 -0.0707
  316MOL    H7744807   0.069   5.921   6.875 -1.2564 -1.0750  0.4276
  316MOL    H7844808   7.684   6.014   6.837 -1.3902 -0.5374 -1.7305
  316MOL    C7944809   0.134   6.165   6.765 -0.1556  0.2585 -0.2669
  316MOL    C8044810   0.178   6.254   6.648 -0.7243  0.0884  0.5195
  316MOL    O8144811   0.059   6.306   6.587 -0.0761  0.7361  0.2605
  316MOL    H8244812   0.056   6.220   6.816  1.0076  2.1794 -0.4945
  316MOL    H8344813   0.228   6.148   6.817 -0.4265 -0.2137  0.0709
  316MOL    H8444814   0.245   6.212   6.574 -0.7508 -1.2304  1.2370
  316MOL    H8544815   0.229   6.341   6.689 -1.0483  1.2963 -1.5853
  316MOL    C8644816   7.768   6.217   6.490  0.1395  0.4613  0.1029
  316MOL    C8744817   7.676   6.299   6.402 -0.0639  0.4312 -0.1850
  316MOL    O8844818   7.724   6.318   6.265 -0.7404 -0.6408 -0.3282
  316MOL    H8944819   0.070   6.153   6.440  0.0663  0.6865 -0.2993
  316MOL    H9044820   7.712   6.148   6.553 -0.7532 -0.0442 -1.2046
  316MOL    H9144821   7.654   6.393   6.453 -1.3563 -0.5289  1.0586
  316MOL    H9244822   7.580   6.247   6.399 -0.0003  0.1933  1.5315
  316MOL    C9344823   0.057   6.418   6.261  0.1606  0.0222  0.0558
  316MOL    C9444824   0.083   6.496   6.124  0.1919  0.0224  0.0067
  316MOL    O9544825   0.120   6.400   6.023 -0.2490 -0.1899  0.7800
  316MOL    H9644826   0.032   6.491   6.338 -1.8879  0.1587 -0.7256
  316MOL    H9744827   0.152   6.368   6.282  0.6342  0.9763  0.1928
  316MOL    H9844828   0.159   6.573   6.138 -0.5203  0.5524  0.9800
  316MOL    H9944829   7.761   6.545   6.094 -2.1063 -3.2467  1.4110
  316MOL   C10044830   0.168   6.458   5.897 -0.2361  0.2510  0.5069
  316MOL   C10144831   0.308   6.401   5.871  0.1100  0.2316 -0.4301
  316MOL   O10244832   0.394   6.483   5.951  0.1874  0.2859  0.3264
  316MOL   H10344833   0.114   6.412   5.814  0.0399  0.8195  0.0094
  316MOL   H10444834   0.169   6.567   5.891  0.3438  0.2444  0.4489
  316MOL   H10544835   0.331   6.394   5.764 -0.6686  0.4049 -0.6118
  316MOL   H10644836   0.310   6.297   5.904  0.7140  0.5877  0.6821
  316MOL   C10744837   0.517   6.415   5.977  0.0031  0.1787  0.0721
  316MOL   C10844838   0.513   6.274   6.052 -0.0675  0.4787 -0.2152
  316MOL   O10944839   0.520   6.176   5.940 -0.3987  0.4234  0.2891
  316MOL   H11044840   0.585   6.401   5.893  0.7044 -0.2493  0.7107
  316MOL   H11144841   0.564   6.487   6.045  1.3764 -0.4974 -0.1427
  316MOL   H11244842   0.428   6.263   6.119 -0.3428  2.3652 -0.2263
  316MOL   H11344843   0.602   6.269   6.114  0.5464  0.2702 -1.0935
  316MOL   C11444844   0.528   6.039   5.986 -0.5217 -0.4968 -0.0474
  316MOL   C11544845   0.393   5.994   6.053  0.2653 -0.0563  0.6273
  316MOL   O11644846   0.386   6.025   6.198  0.3110  0.0731 -0.2344
  316MOL   H11744847   0.538   5.985   5.892  2.7431 -0.3746  0.1878
  316MOL   H11844848   0.614   6.024   6.051 -0.6548 -0.5214  0.1254
  316MOL   H11944849   0.386   5.886   6.040 -0.8666 -0.0067  0.8019
  316MOL   H12044850   0.301   6.030   6.008  0.1180 -0.5592  0.5256
  316MOL   C12144851   0.254   6.013   6.259 -0.5539 -0.0871 -0.3710
  316MOL   C12244852   0.255   5.912   6.373  0.5743 -0.6586  0.1653
  316MOL   O12344853   0.342   5.960   6.488 -0.3798 -0.4700 -0.0801
  316MOL   H12444854   0.224   6.107   6.305 -2.8322 -1.0030  0.1364
  316MOL   H12544855   0.167   5.995   6.196 -1.5330  1.9801  0.3507
  316MOL   H12644856   0.296   5.820   6.329 -2.1832 -1.5460 -0.6558
  316MOL   H12744857   0.153   5.892   6.403 -0.2223  0.6256 -1.6089
  316MOL   C12844858   0.327   5.880   6.603  0.7886 -0.8892  0.3357
  316MOL   C12944859   0.425   5.760   6.595 -0.4385  0.0385  0.0814
  316MOL   O13044860   0.365   5.666   6.506  0.2526  0.6831 -0.4750
  316MOL   H13144861   0.365   5.948   6.679  1.6485 -1.5479  0.5060
  316MOL   H13244862   0.227   5.853   6.637 -0.2235  0.0949 -1.7731
  316MOL   H13344863   0.433   5.715   6.694  1.4478 -0.7301 -0.4082
  316MOL   H13444864   0.521   5.794   6.555  1.2819 -0.5486  3.5619
  316MOL   C13544865   0.447   5.549   6.484 -0.2762 -0.3325 -0.2670
  316MOL   C13644866   0.376   5.471   6.377  1.0013 -0.1460 -0.0716
  316MOL   O13744867   0.368   5.553   6.263  0.3202 -0.4166 -0.2057
  316MOL   H13844868   0.551   5.576   6.464 -0.4105  1.8026  1.6363
  316MOL   H13944869   0.447   5.491   6.576 -3.3245 -0.4513 -0.2923
  316MOL   H14044870   0.278   5.443   6.417  1.8885 -2.2306  0.7500
  316MOL   H14144871   0.427   5.377   6.351  1.8587  0.7684 -1.8002
  316MOL   H14244872   0.378   5.642   6.292 -3.0924 -0.0875  0.1368
  317MOL     C144873   5.053   0.941   0.783  0.2648 -0.3937  0.4547
  317MOL     C244874   4.975   0.989   0.903 -0.3106 -0.3954 -0.5552
  317MOL     O344875   5.051   1.058   0.998 -0.5220  0.4556  0.5419
  317MOL     H444876   4.996   0.865   0.729 -0.7319  2.7599 -3.0763
  317MOL     H544877   5.145   0.891   0.814 -0.9920 -2.1909  1.4103
  317MOL     H644878   4.932   0.905   0.958 -0.2499  0.5178  0.9164
  317MOL     H744879   4.884   1.038   0.868 -0.8770 -0.7175  0.4441
  317MOL     H844880   5.076   1.017   0.709  0.7576 -2.8266 -1.9805
  317MOL     C944881   4.956   1.118   1.084  0.9734  0.2787  0.3732
  317MOL    C1044882   5.023   1.224   1.177 -0.5904 -0.3404  0.0093
  317MOL    O1144883   5.093   1.155   1.282 -0.2753  0.4614  0.0371
  317MOL    H1244884   4.881   1.179   1.032 -1.2666 -1.9285  0.9146
  317MOL    H1344885   4.904   1.048   1.150  1.7012 -1.4447 -0.8466
  317MOL    H1444886   4.943   1.281   1.224 -2.1626 -0.5400 -2.3855
  317MOL    H1544887   5.076   1.293   1.112 -1.7203  0.9856  0.4675
  317MOL    C1644888   5.152   1.241   1.382  0.3588 -0.5277  0.0953
  317MOL    C1744889   5.239   1.177   1.488  0.3245 -0.0848 -0.1438
  317MOL    O1844890   5.288   1.268   1.584 -0.3216  0.2640 -0.0775
  317MOL    H1944891   5.198   1.326   1.331 -2.0703  0.7652 -0.0355
  317MOL    H2044892   5.065   1.284   1.432 -0.3954  0.4403 -1.9530
  317MOL    H2144893   5.316   1.127   1.429 -1.0629 -1.3604 -0.8865
  317MOL    H2244894   5.190   1.100   1.547  0.4536  0.2870  0.4480
  317MOL    C2344895   5.377   1.208   1.675  0.4006 -0.4041  0.7080
  317MOL    C2444896   5.404   1.305   1.791  0.3062 -0.7549  0.5260
  317MOL    O2544897   5.284   1.304   1.876 -0.4069 -0.3705  0.1164
  317MOL    H2644898   5.327   1.121   1.718 -1.7862 -1.3690 -3.5502
  317MOL    H2744899   5.470   1.176   1.629  0.3812  1.8060 -0.9168
  317MOL    H2844900   5.417   1.404   1.746 -0.1852 -1.0939 -0.3886
  317MOL    H2944901   5.494   1.280   1.845  1.1357  0.1996 -0.3889
  317MOL    C3044902   5.285   1.417   1.964 -0.0026  0.5083 -0.2302
  317MOL    C3144903   5.372   1.378   2.088 -0.6708 -0.1911  0.7617
  317MOL    O3244904   5.318   1.426   2.213 -0.3110  0.0313  0.7512
  317MOL    H3344905   5.314   1.508   1.913  0.4752  0.5266  0.0727
  317MOL    H3444906   5.188   1.428   2.012  0.6170  1.7076  0.7738
  317MOL    H3544907   5.472   1.420   2.074  0.1402 -2.1173  0.4733
  317MOL    H3644908   5.383   1.269   2.092 -0.4716 -0.2013  0.0589
  317MOL    C3744909   5.376   1.370   2.329 -0.3814 -0.3899  0.1475
  317MOL    C3844910   5.344   1.456   2.459  0.2414 -0.2772  0.5312
  317MOL    O3944911   5.206   1.439   2.493  0.0083  0.2297  0.2959
  317MOL    H4044912   5.352   1.266   2.348 -1.8064  0.2887  2.1631
  317MOL    H4144913   5.483   1.367   2.308 -0.1465  1.1288  1.0638
  317MOL    H4244914   5.365   1.562   2.444 -2.6728  0.3837  0.7329
  317MOL    H4344915   5.415   1.414   2.529  3.0193  1.6753 -1.0446
  317MOL    C4444916   5.179   1.490   2.621 -0.2604  0.5323  0.0186
  317MOL    C4544917   5.179   1.638   2.637  0.1696  0.0381  0.4347
  317MOL    O4644918   5.305   1.684   2.656 -0.1094  0.1435  0.2302
  317MOL    H4744919   5.076   1.464   2.645 -0.4123  0.1501 -1.0503
  317MOL    H4844920   5.235   1.433   2.696  1.1489  1.8955  0.0216
  317MOL    H4944921   5.118   1.656   2.725 -0.5804  2.0072 -0.4610
  317MOL    H5044922   5.138   1.696   2.555  1.4962  1.9486  1.1000
  317MOL    C5144923   5.315   1.818   2.702  0.3247 -0.2701  0.1040
  317MOL    C5244924   5.425   1.821   2.806  0.5546 -0.3285  0.2893
  317MOL    O5344925   5.376   1.775   2.937  0.8152  0.0875 -0.1426
  317MOL    H5444926   5.342   1.885   2.621 -0.8676  0.4735  0.3048
  317MOL    H5544927   5.229   1.867   2.748 -0.2448 -0.1031 -1.1259
  317MOL    H5644928   5.455   1.925   2.812  0.6906 -0.3495 -0.0028
  317MOL    H5744929   5.514   1.763   2.781 -0.0374 -0.8040 -0.8113
  317MOL    C5844930   5.381   1.634   2.956 -0.0266 -0.3666 -0.2165
  317MOL    C5944931   5.302   1.599   3.082  0.2543 -0.8791  0.5022
  317MOL    O6044932   5.164   1.580   3.062  0.1624 -0.0961  0.6481
  317MOL    H6144933   5.327   1.581   2.877  2.6116 -1.4077 -1.3718
  317MOL    H6244934   5.486   1.612   2.972  0.0326  0.0742  0.0225
  317MOL    H6344935   5.316   1.675   3.159  0.5056 -1.6173  1.1893
  317MOL    H6444936   5.340   1.510   3.132  0.2898 -0.7128  0.7704
  317MOL    C6544937   5.095   1.708   3.040  0.2079  0.7410 -0.3911
  317MOL    C6644938   4.946   1.692   3.030  0.4665  0.0453 -0.2941
  317MOL    O6744939   4.909   1.628   2.906 -0.4076 -0.0964  0.5491
  317MOL    H6844940   5.116   1.770   3.127  0.2443  0.3817 -0.1438
  317MOL    H6944941   5.145   1.753   2.954  1.6785  3.5078  1.8380
  317MOL    H7044942   4.892   1.787   3.025 -0.6083 -0.5541 -0.2734
  317MOL    H7144943   4.914   1.629   3.112 -0.3395  1.6681  0.6780
  317MOL    C7244944   4.771   1.604   2.895  0.4271 -0.1922 -0.4743
  317MOL    C7344945   4.697   1.726   2.842  0.3874  0.4333  0.0531
  317MOL    O7444946   4.681   1.829   2.942  0.0439  0.1096  0.1208
  317MOL    H7544947   4.750   1.521   2.827  2.4946 -2.8706  2.0510
  317MOL    H7644948   4.726   1.575   2.989  0.2846  1.6857  0.0499
  317MOL    H7744949   4.604   1.687   2.801 -0.0818  0.5583  0.9856
  317MOL    H7844950   4.743   1.772   2.754  1.9086 -0.6521  0.2553
  317MOL    C7944951   4.586   1.930   2.905  0.5325 -0.3563 -0.8345
  317MOL    C8044952   4.556   2.039   3.009 -0.7793  0.0725 -0.5870
  317MOL    O8144953   4.652   2.142   2.996 -0.2793 -0.7526 -0.3276
  317MOL    H8244954   4.618   1.974   2.811 -0.3573  0.3843 -0.7993
  317MOL    H8344955   4.490   1.884   2.882 -0.0523 -0.5272  1.7478
  317MOL    H8444956   4.563   1.992   3.107 -0.3281 -0.3280 -0.8073
  317MOL    H8544957   4.454   2.074   2.999 -0.5502  1.2087  0.9377
  317MOL    C8644958   4.621   2.257   3.076 -0.3917 -0.3241  0.1916
  317MOL    C8744959   4.501   2.346   3.014 -0.0759 -0.6210  0.2580
  317MOL    O8844960   4.384   2.328   3.090  0.1804 -0.0712 -0.0434
  317MOL    H8944961   4.583   2.231   3.175 -0.7604 -0.7109 -0.0475
  317MOL    H9044962   4.710   2.317   3.092 -1.5869  1.6537 -0.5100
  317MOL    H9144963   4.483   2.306   2.914 -1.1206 -2.3991  1.1308
  317MOL    H9244964   4.526   2.452   3.021 -0.2579 -0.6070  0.7422
  317MOL    C9344965   4.278   2.415   3.037 -0.5684 -0.1938 -0.0616
  317MOL    C9444966   4.238   2.525   3.144  0.2983 -0.0758 -0.3242
  317MOL    O9544967   4.313   2.641   3.124  0.4531 -0.5246 -0.6140
  317MOL    H9644968   4.286   2.463   2.939 -0.7015  1.0750  0.5470
  317MOL    H9744969   4.188   2.357   3.017 -2.2687  3.0614 -2.2851
  317MOL    H9844970   4.250   2.491   3.247  0.3992  1.4238  0.1768
  317MOL    H9944971   4.132   2.547   3.130  0.0014 -1.7177 -0.7302
  317MOL   C10044972   4.277   2.749   3.196 -0.6839  0.4294  0.4724
  317MOL   C10144973   4.328   2.750   3.345 -0.2824 -0.4764 -0.3950
  317MOL   O10244974   4.468   2.788   3.350 -0.0826 -0.5848  0.1583
  317MOL   H10344975   4.306   2.841   3.145  1.2176 -0.2208  0.3481
  317MOL   H10444976   4.168   2.754   3.200 -0.6638  0.3581  1.1280
  317MOL   H10544977   4.310   2.650   3.383  1.5633 -0.4090  0.7121
  317MOL   H10644978   4.269   2.819   3.404  0.7480  0.7196 -0.7260
  317MOL   C10744979   4.559   2.683   3.310 -0.4321 -0.7594  0.0226
  317MOL   C10844980   4.587   2.580   3.424 -0.2562 -0.0512  0.2425
  317MOL   O10944981   4.638   2.455   3.363 -0.0967  0.2054 -0.1614
  317MOL   H11044982   4.535   2.629   3.218 -0.8893  1.9336 -1.4885
  317MOL   H11144983   4.649   2.734   3.277 -0.8153  1.7979  2.7484
  317MOL   H11244984   4.484   2.551   3.446  0.8317 -1.3734  3.8827
  317MOL   H11344985   4.625   2.626   3.515  0.6781  0.0309 -0.1833
  317MOL   C11444986   4.661   2.342   3.451 -0.2587 -0.8476  0.4898
  317MOL   C11544987   4.520   2.278   3.482 -0.9409  0.6824  0.0573
  317MOL   O11644988   4.538   2.137   3.478  0.4619  0.0220  0.0597
  317MOL   H11744989   4.728   2.278   3.393  0.1002 -1.9620  2.1097
  317MOL   H11844990   4.716   2.368   3.542 -0.3078  3.0546 -0.4830
  317MOL   H11944991   4.456   2.308   3.399  0.0947  1.6081 -0.4145
  317MOL   H12044992   4.490   2.321   3.577  0.3144  1.0737  0.2917
  317MOL   C12144993   4.436   2.078   3.545 -0.3035 -0.3140 -0.8192
  317MOL   C12244994   4.434   1.931   3.504  1.0155 -0.0039 -0.0332
  317MOL   O12344995   4.510   1.844   3.591 -0.8735  0.5555 -0.1082
  317MOL   H12444996   4.440   2.090   3.653 -1.1508 -4.5197 -0.2297
  317MOL   H12544997   4.344   2.132   3.522 -1.5573 -1.2351  1.8300
  317MOL   H12644998   4.453   1.915   3.398  1.2731  0.6800 -0.0935
  317MOL   H12744999   4.327   1.911   3.512  0.7903  1.3047  0.4523
  317MOL   C12845000   4.494   1.704   3.567  0.3282 -0.1228 -0.2024
  317MOL   C12945001   4.557   1.642   3.700  0.4554  0.1379 -0.6821
  317MOL   O13045002   4.456   1.646   3.795  0.2699  0.2968  0.1890
  317MOL   H13145003   4.387   1.684   3.557  0.0424  1.3366 -0.2462
  317MOL   H13245004   4.542   1.682   3.472  0.7983  0.3352 -0.0745
  317MOL   H13345005   4.648   1.685   3.741  0.2047 -1.3023  1.4565
  317MOL   H13445006   4.574   1.535   3.685 -0.2636 -0.0797  0.0493
  317MOL   C13545007   4.505   1.589   3.916  0.4827  0.4358  0.1222
  317MOL   C13645008   4.388   1.576   4.012  0.1319  0.1692  0.0061
  317MOL   O13745009   4.332   1.705   4.025 -0.1797 -0.4635  0.1687
  317MOL   H13845010   4.554   1.494   3.899 -0.7313 -0.2678  0.4738
  317MOL   H13945011   4.583   1.648   3.965 -0.6506  1.0173  1.2740
  317MOL   H14045012   4.411   1.542   4.112  0.9258 -1.5316 -0.7277
  317MOL   H14145013   4.304   1.518   3.974 -1.8545  2.7234  0.2930
  317MOL   H14245014   4.329   1.734   3.935  3.2488 -2.1249 -0.5822
  318MOL     C145015   5.668   1.393   3.123  0.3384 -0.0795  0.2643
  318MOL     C245016   5.596   1.294   3.036 -0.5106  0.1061  0.0655
  318MOL     O345017   5.487   1.356   2.968  0.8041  0.4336 -0.0806
  318MOL     H445018   5.752   1.348   3.176  0.1757 -1.1684 -0.3994
  318MOL     H545019   5.593   1.430   3.193  0.0674 -0.0288 -0.0545
  318MOL     H645020   5.551   1.213   3.093 -2.4513  2.2910  1.6997
  318MOL     H745021   5.676   1.252   2.973 -1.5605  0.1055 -1.2881
  318MOL     H845022   5.702   1.474   3.058 -1.6292 -1.3327 -2.4217
  318MOL     C945023   5.395   1.267   2.905 -0.1771  0.4286  0.1694
  318MOL    C1045024   5.444   1.207   2.774 -0.0757  0.4224  0.3399
  318MOL    O1145025   5.337   1.119   2.729  0.1908 -0.2862  0.2132
  318MOL    H1245026   5.371   1.192   2.981 -1.5549 -0.2780 -0.9483
  318MOL    H1345027   5.305   1.328   2.901 -1.2563 -1.1478 -0.0619
  318MOL    H1445028   5.542   1.165   2.794 -2.1403 -3.5469  3.0065
  318MOL    H1545029   5.455   1.280   2.694 -1.2259  1.0695  0.7574
  318MOL    C1645030   5.375   1.062   2.610 -0.1274  0.0862  0.3425
  318MOL    C1745031   5.273   0.967   2.561  0.5496 -0.1044  0.0229
  318MOL    O1845032   5.302   0.935   2.429  0.2518 -0.1957 -0.8624
  318MOL    H1945033   5.384   1.150   2.547 -2.1811  0.4830  0.5540
  318MOL    H2045034   5.476   1.027   2.630 -1.1752 -2.6631  1.0847
  318MOL    H2145035   5.174   1.009   2.541  0.2040 -1.5068 -1.2579
  318MOL    H2245036   5.259   0.884   2.630  0.9208 -0.1601  0.0313
  318MOL    C2345037   5.375   0.816   2.413  0.9032 -0.0733 -0.1503
  318MOL    C2445038   5.302   0.686   2.452  0.3439 -0.0159  0.1215
  318MOL    O2545039   5.333   0.656   2.591 -0.0586  0.0021 -0.3335
  318MOL    H2645040   5.401   0.803   2.307 -0.4677  0.6694 -0.5790
  318MOL    H2745041   5.471   0.814   2.465  1.1643  1.3424 -0.5520
  318MOL    H2845042   5.340   0.600   2.396  2.2095  1.6984 -1.3138
  318MOL    H2945043   5.195   0.691   2.433  0.4934 -2.0744 -1.4183
  318MOL    C3045044   5.288   0.535   2.645 -0.0886 -0.2508 -0.9036
  318MOL    C3145045   5.137   0.532   2.673  0.2097  0.6993 -0.1603
  318MOL    O3245046   5.125   0.615   2.788  0.5396 -0.2047 -0.3335
  318MOL    H3345047   5.318   0.454   2.579 -0.7203 -2.1983  1.1447
  318MOL    H3445048   5.352   0.516   2.731 -2.3811 -0.7177  0.7303
  318MOL    H3545049   5.121   0.431   2.712 -0.5326  0.7957 -0.2246
  318MOL    H3645050   5.076   0.546   2.584 -2.2484 -1.0996  1.1930
  318MOL    C3745051   4.997   0.610   2.858 -0.1562  0.0436 -0.3620
  318MOL    C3845052   4.991   0.735   2.951  0.4916  0.3305 -0.3384
  318MOL    O3945053   4.922   0.847   2.897  0.0682  0.4432 -0.2988
  318MOL    H4045054   4.904   0.604   2.803 -0.3116 -0.0561 -0.0910
  318MOL    H4145055   4.998   0.513   2.908 -1.7459 -0.0329 -0.4598
  318MOL    H4245056   5.090   0.768   2.982 -1.0014  3.3109  1.4870
  318MOL    H4345057   4.930   0.714   3.039  1.3438  0.1764  0.2262
  318MOL    C4445058   4.994   0.917   2.791  0.2924 -0.5267 -0.1974
  318MOL    C4545059   4.911   1.056   2.782  0.3498  1.1538  0.5846
  318MOL    O4645060   4.974   1.134   2.881  0.2848  0.6692 -0.4887
  318MOL    H4745061   5.100   0.931   2.813 -0.2885  0.2193  2.2861
  318MOL    H4845062   4.987   0.848   2.707  0.3560 -1.2225  0.3632
  318MOL    H4945063   4.807   1.030   2.802  0.7833 -1.1266 -0.0428
  318MOL    H5045064   4.921   1.098   2.682 -1.5784  1.1488  0.3748
  318MOL    C5145065   4.932   1.275   2.904  0.6754 -0.3337 -0.0232
  318MOL    C5245066   4.986   1.322   3.036  0.1343 -0.2338 -0.4520
  318MOL    O5345067   4.947   1.236   3.142  0.1847 -0.0248  0.0318
  318MOL    H5445068   4.983   1.338   2.830  0.4753 -0.2203 -0.0652
  318MOL    H5545069   4.824   1.291   2.907  0.8645  0.9893  0.2648
  318MOL    H5645070   4.954   1.423   3.064  2.1811  0.6084 -0.9970
  318MOL    H5745071   5.094   1.311   3.022  0.2727 -0.0383  0.4078
  318MOL    C5845072   5.061   1.164   3.194 -0.2033 -0.3384  0.6793
  318MOL    C5945073   4.999   1.102   3.325  0.3407  0.1248  0.4463
  318MOL    O6045074   5.089   1.014   3.389  0.0344 -1.0500  0.2996
  318MOL    H6145075   5.100   1.080   3.136 -0.2784 -0.3683  0.6711
  318MOL    H6245076   5.148   1.225   3.218  2.2706 -3.5888  0.4223
  318MOL    H6345077   4.902   1.065   3.292  1.1492 -0.7259 -1.0194
  318MOL    H6445078   4.983   1.189   3.389 -2.2904 -1.1429  1.5608
  318MOL    C6545079   5.052   0.978   3.522 -0.1280  0.4877 -0.0882
  318MOL    C6645080   5.093   1.091   3.620  0.0000 -0.1590 -0.1694
  318MOL    O6745081   5.115   1.052   3.758  0.0966  0.2785 -0.3322
  318MOL    H6845082   4.944   0.961   3.512  0.0212  1.0621 -3.1446
  318MOL    H6945083   5.098   0.882   3.546  1.8627  1.6395  0.8159
  318MOL    H7045084   5.026   1.177   3.618 -0.4310 -0.3438  3.3876
  318MOL    H7145085   5.192   1.120   3.586  0.3208  0.6899  1.4364
  318MOL    C7245086   5.059   1.138   3.853 -0.1977  0.1148 -0.1591
  318MOL    C7345087   4.906   1.117   3.883 -0.6601 -0.0930 -0.4990
  318MOL    O7445088   4.827   1.180   3.789  0.0931  0.0235  0.1298
  318MOL    H7545089   5.112   1.119   3.947  0.5983 -1.1279 -0.8520
  318MOL    H7645090   5.081   1.242   3.829  1.7846 -0.4833 -1.0402
  318MOL    H7745091   4.891   1.173   3.975  1.4849 -1.1276  0.5130
  318MOL    H7845092   4.882   1.011   3.886 -0.7352 -0.0378  2.7296
  318MOL    C7945093   4.689   1.171   3.821 -0.0748 -0.2114  0.6696
  318MOL    C8045094   4.600   1.227   3.712 -0.3750 -0.8749  0.4369
  318MOL    O8145095   4.477   1.268   3.769  0.2195  0.2618 -0.0407
  318MOL    H8245096   4.653   1.070   3.843 -1.7960  0.5918  1.6728
  318MOL    H8345097   4.680   1.220   3.918  3.0965  0.1351  0.8462
  318MOL    H8445098   4.602   1.151   3.633 -0.1423 -0.2654 -0.1453
  318MOL    H8545099   4.646   1.309   3.658  0.4699 -0.5354  1.6511
  318MOL    C8645100   4.367   1.293   3.681  0.1089 -0.1381  0.4592
  318MOL    C8745101   4.292   1.162   3.647  0.0201 -0.1474 -0.0416
  318MOL    O8845102   4.375   1.052   3.593 -0.3651  0.2158  0.6626
  318MOL    H8945103   4.301   1.342   3.752  0.1930  0.2063  0.2980
  318MOL    H9045104   4.391   1.364   3.602  0.5789  0.7270  1.3640
  318MOL    H9145105   4.208   1.181   3.580 -1.6095  0.8948  2.2476
  318MOL    H9245106   4.232   1.127   3.731  0.1625  1.4883  0.7605
  318MOL    C9345107   4.308   0.934   3.581  0.7988  0.4135  0.2093
  318MOL    C9445108   4.386   0.816   3.522  0.0721 -0.2118 -0.8062
  318MOL    O9545109   4.491   0.768   3.612 -0.2252 -0.6468 -0.2932
  318MOL    H9645110   4.274   0.902   3.680  0.3799  1.6419  0.4746
  318MOL    H9745111   4.217   0.931   3.521  1.7968 -0.8294 -1.2636
  318MOL    H9845112   4.428   0.848   3.427  1.2063 -0.6124 -0.4468
  318MOL    H9945113   4.316   0.736   3.496 -1.4140  0.4062  1.2002
  318MOL   C10045114   4.607   0.858   3.631  0.5551 -0.7278  0.8459
  318MOL   C10145115   4.732   0.793   3.689  0.6575 -0.3319  0.6474
  318MOL   O10245116   4.791   0.719   3.588  0.1083  0.2846 -0.0929
  318MOL   H10345117   4.634   0.899   3.534 -0.3551  0.1643  0.9580
  318MOL   H10445118   4.579   0.941   3.696 -1.9599  0.3258 -1.4901
  318MOL   H10545119   4.696   0.734   3.773 -0.4412  1.0795  1.1849
  318MOL   H10645120   4.807   0.861   3.729 -0.0381 -0.7625  2.7191
  318MOL   C10745121   4.881   0.622   3.636  0.2267 -0.5917  0.7608
  318MOL   C10845122   4.928   0.525   3.522  0.0936 -0.8414  0.1632
  318MOL   O10945123   5.011   0.598   3.430 -0.3729  0.4192  0.0055
  318MOL   H11045124   4.964   0.660   3.697  0.7321 -0.2827 -0.1051
  318MOL   H11145125   4.823   0.575   3.715 -2.0146  0.0563 -0.4373
  318MOL   H11245126   4.836   0.496   3.471 -1.6838  4.0122  0.3481
  318MOL   H11345127   4.976   0.436   3.563  1.9425  0.2357  0.3497
  318MOL   C11445128   5.050   0.535   3.307  0.4099  0.1843 -0.6686
  318MOL   C11545129   5.155   0.625   3.242 -0.5433  1.0211  0.2535
  318MOL   O11645130   5.276   0.602   3.306  0.3605 -1.1891  0.7367
  318MOL   H11745131   5.080   0.433   3.329 -0.3414  0.2824  0.8992
  318MOL   H11845132   4.959   0.529   3.249  0.3442  0.9698 -0.6630
  318MOL   H11945133   5.127   0.730   3.253  0.8530  1.5360 -0.8480
  318MOL   H12045134   5.159   0.604   3.135 -0.0059 -3.8440  1.1332
  318MOL   C12145135   5.360   0.491   3.258 -0.1283  0.0764 -0.1039
  318MOL   C12245136   5.458   0.538   3.152  0.1491  0.1617 -0.1158
  318MOL   O12345137   5.541   0.430   3.135 -0.1137 -0.6388 -0.1996
  318MOL   H12445138   5.405   0.446   3.346 -0.2744 -1.7065 -0.9206
  318MOL   H12545139   5.290   0.418   3.217  0.0187 -0.7812  1.1655
  318MOL   H12645140   5.512   0.630   3.176 -1.2318  1.2727 -1.1874
  318MOL   H12745141   5.412   0.554   3.055 -1.7161  1.1196  0.8933
  318MOL   C12845142   5.633   0.459   3.029 -0.8551 -0.2398  0.6095
  318MOL   C12945143   5.748   0.360   3.009 -0.2112 -0.5450  0.0891
  318MOL   O13045144   5.820   0.356   3.132  0.5222  0.6168 -0.3971
  318MOL   H13145145   5.591   0.474   2.929 -1.5642  1.4499  1.1288
  318MOL   H13245146   5.674   0.558   3.052 -0.3834  0.0938 -1.5316
  318MOL   H13345147   5.805   0.380   2.918  0.2037 -0.5457  0.3507
  318MOL   H13445148   5.698   0.263   2.997 -0.1417 -0.7645  1.5583
  318MOL   C13545149   5.934   0.268   3.122  1.1716  0.4563  0.0205
  318MOL   C13645150   6.015   0.269   3.245 -0.7952 -0.3996 -0.5321
  318MOL   O13745151   6.080   0.392   3.232  0.5647 -0.6504  0.1795
  318MOL   H13845152   5.897   0.166   3.120  0.4304  0.6245  2.5127
  318MOL   H13945153   5.990   0.289   3.031  1.1109  1.1709  0.1442
  318MOL   H14045154   6.092   0.192   3.245 -2.5411 -2.1872 -1.7296
  318MOL   H14145155   5.955   0.258   3.335 -0.8323 -1.6865 -0.7051
  318MOL   H14245156   6.021   0.453   3.192  0.6545  0.1322  1.2241
  319MOL     C145157   4.509   1.637   0.518 -0.4695  0.0972  0.8493
  319MOL     C245158   4.419   1.747   0.466 -0.4970 -0.1710  0.3605
  319MOL     O345159   4.292   1.689   0.449  0.5964  0.0812 -0.0824
  319MOL     H445160   4.470   1.593   0.610  0.2806 -2.9035 -0.1860
  319MOL     H545161   4.609   1.675   0.538 -0.4100  0.1116  0.5191
  319MOL     H645162   4.455   1.805   0.382  0.8589  1.9461  2.3440
  319MOL     H745163   4.409   1.816   0.550  1.3286 -0.1672  0.5875
  319MOL     H845164   4.514   1.554   0.447  0.4759  0.8242  0.0587
  319MOL     C945165   4.203   1.794   0.400 -0.0639 -0.6120  0.1788
  319MOL    C1045166   4.145   1.873   0.514 -0.0128 -0.1707  0.9690
  319MOL    O1145167   4.187   2.010   0.500  0.9414  0.1273 -0.3648
  319MOL    H1245168   4.256   1.863   0.334  1.8105 -0.9982  1.2504
  319MOL    H1345169   4.123   1.760   0.335  0.0522  1.0758 -0.8868
  319MOL    H1445170   4.191   1.824   0.600 -2.5706  1.3360  3.2717
  319MOL    H1545171   4.037   1.856   0.518 -0.3301  1.3608 -0.4895
  319MOL    C1645172   4.104   2.096   0.576 -0.2662  0.3006 -0.0252
  319MOL    C1745173   4.165   2.238   0.582 -0.0478  0.2328 -0.1005
  319MOL    O1845174   4.242   2.245   0.701 -0.1419  0.3582  0.0516
  319MOL    H1945175   4.011   2.103   0.519  0.0011  1.3407 -0.3370
  319MOL    H2045176   4.090   2.055   0.677  0.4491 -2.7939 -1.1154
  319MOL    H2145177   4.081   2.306   0.592 -0.5068 -0.3920  0.3519
  319MOL    H2245178   4.222   2.265   0.494 -2.6997  2.0503 -1.3202
  319MOL    C2345179   4.295   2.375   0.714 -0.2614 -0.1134 -0.4895
  319MOL    C2445180   4.390   2.384   0.835 -0.0992  0.4463  0.7207
  319MOL    O2545181   4.321   2.395   0.951  0.3136  0.1449  0.3380
  319MOL    H2645182   4.348   2.394   0.621 -0.0077  1.6612  0.0085
  319MOL    H2745183   4.220   2.454   0.721  1.3931  1.3888  0.6514
  319MOL    H2845184   4.458   2.469   0.823 -0.8833  0.7601 -1.7520
  319MOL    H2945185   4.446   2.291   0.835  0.2580  0.6415 -0.6798
  319MOL    C3045186   4.405   2.392   1.073 -0.0682  0.1143 -0.3596
  319MOL    C3145187   4.311   2.340   1.185  0.0958  0.0144 -0.2820
  319MOL    O3245188   4.283   2.200   1.162  0.4574 -0.3463  0.1904
  319MOL    H3345189   4.485   2.320   1.060  0.2453  0.6918 -1.7742
  319MOL    H3445190   4.458   2.487   1.083  0.3915  0.1443 -2.6720
  319MOL    H3545191   4.223   2.405   1.188 -0.9727 -1.3986 -0.5251
  319MOL    H3645192   4.367   2.354   1.278 -0.6781 -0.8081  0.3136
  319MOL    C3745193   4.221   2.137   1.270 -0.0479 -0.3568  0.5916
  319MOL    C3845194   4.214   1.990   1.248  0.7531  0.4607 -0.3910
  319MOL    O3945195   4.083   1.936   1.222 -0.1935 -0.0086  0.1290
  319MOL    H4045196   4.281   2.160   1.359  1.7659  0.1519 -0.7387
  319MOL    H4145197   4.123   2.176   1.296  0.3667  1.0763  0.0783
  319MOL    H4245198   4.236   1.941   1.343  1.3992 -2.6363 -2.0778
  319MOL    H4345199   4.292   1.961   1.178  1.4502 -0.4103  0.7283
  319MOL    C4445200   4.053   1.958   1.078 -0.2724 -0.2606 -0.4365
  319MOL    C4545201   3.942   1.862   1.022 -0.2410  0.2540 -0.0327
  319MOL    O4645202   3.819   1.922   1.048  0.7708 -0.9698  0.2891
  319MOL    H4745203   4.024   2.063   1.070  2.0736  0.2750 -2.4410
  319MOL    H4845204   4.146   1.955   1.022  0.7574  3.7973  0.8571
  319MOL    H4945205   3.956   1.761   1.060  1.1604  0.7995  0.9724
  319MOL    H5045206   3.951   1.854   0.914  0.8379 -1.7480  0.1704
  319MOL    C5145207   3.702   1.842   1.020 -0.2672 -0.1507 -0.1804
  319MOL    C5245208   3.585   1.941   1.018 -0.1952 -0.0457  0.5027
  319MOL    O5345209   3.475   1.855   0.982 -0.3168 -0.2145 -1.2090
  319MOL    H5445210   3.703   1.774   0.935 -2.4232 -0.1295 -0.2397
  319MOL    H5545211   3.688   1.777   1.107 -1.0050  0.7667  0.3994
  319MOL    H5645212   3.584   2.011   0.934 -0.2921 -0.5435  0.0902
  319MOL    H5745213   3.577   1.992   1.114  0.0478  0.1974  0.3953
  319MOL    C5845214   3.362   1.851   1.065 -0.5089  0.0312  0.2351
  319MOL    C5945215   3.298   1.992   1.073 -0.5217 -0.6619 -0.6953
  319MOL    O6045216   3.368   2.069   1.177  0.3633  0.0502  0.3276
  319MOL    H6145217   3.287   1.783   1.024  1.4497 -1.5535 -0.8076
  319MOL    H6245218   3.376   1.806   1.163  1.4104 -1.0648 -0.5005
  319MOL    H6345219   3.192   1.984   1.098 -0.1887 -2.8768  0.1269
  319MOL    H6445220   3.309   2.046   0.979 -0.7529  0.5108 -0.0605
  319MOL    C6545221   3.326   2.209   1.176  0.3532 -0.0186  0.0363
  319MOL    C6645222   3.185   2.238   1.216 -0.3612  0.6231  0.4275
  319MOL    O6745223   3.092   2.204   1.117 -0.2914 -0.0088  0.2856
  319MOL    H6845224   3.383   2.270   1.247  1.7655 -1.1043 -0.1185
  319MOL    H6945225   3.352   2.250   1.078  0.5790 -0.0569  0.0798
  319MOL    H7045226   3.178   2.340   1.255  1.5484  1.1388 -0.5254
  319MOL    H7145227   3.167   2.163   1.293  0.0899 -0.8445 -0.8803
  319MOL    C7245228   2.967   2.260   1.148  0.0295  0.7074 -0.0120
  319MOL    C7345229   2.886   2.262   1.029 -0.2787 -0.3615 -0.0147
  319MOL    O7445230   2.754   2.281   1.061  0.3735  0.6332 -0.4643
  319MOL    H7545231   2.925   2.205   1.232 -1.1872  2.0315  0.2501
  319MOL    H7645232   2.965   2.362   1.185 -0.7224  0.3517  0.9245
  319MOL    H7745233   2.891   2.170   0.971 -1.6900 -0.3779 -0.1147
  319MOL    H7845234   2.900   2.342   0.956  0.3028 -0.6868 -0.2655
  319MOL    C7945235   2.666   2.240   0.957 -0.8414  0.0536 -0.3952
  319MOL    C8045236   2.553   2.343   0.955  0.5288 -0.1947  0.2405
  319MOL    O8145237   2.607   2.473   0.916  0.0684  0.1410  0.0293
  319MOL    H8245238   2.714   2.225   0.861  1.3502 -1.5552  0.8950
  319MOL    H8345239   2.630   2.138   0.974  0.3911 -0.8483 -2.8979
  319MOL    H8445240   2.510   2.349   1.055 -0.4301 -0.7311 -0.1339
  319MOL    H8545241   2.468   2.319   0.891  0.4544  0.3918  0.1117
  319MOL    C8645242   2.644   2.559   1.024  0.1926  0.1549  0.4476
  319MOL    C8745243   2.679   2.695   0.967 -0.2506  0.2583  0.3727
  319MOL    O8845244   2.673   2.784   1.079  0.0956  0.4906  0.0614
  319MOL    H8945245   2.559   2.576   1.090  0.4437 -1.6176  1.2733
  319MOL    H9045246   2.726   2.516   1.082  0.6411 -0.1968 -0.4495
  319MOL    H9145247   2.600   2.727   0.899 -1.2822 -0.3505  1.2719
  319MOL    H9245248   2.775   2.698   0.916  0.1453  0.1893  1.0937
  319MOL    C9345249   2.720   2.908   1.043 -0.3764 -0.4745 -0.3754
  319MOL    C9445250   2.702   2.997   1.166  0.1073 -0.1082 -0.7314
  319MOL    O9545251   2.575   3.069   1.180 -0.0863  0.0821 -0.2718
  319MOL    H9645252   2.829   2.906   1.035 -0.1716  1.2971  1.3218
  319MOL    H9745253   2.670   2.950   0.956  0.3504  2.1173  0.4147
  319MOL    H9845254   2.784   3.068   1.169 -0.2035  0.2666 -1.0010
  319MOL    H9945255   2.724   2.943   1.258  0.0254 -0.0033 -0.6492
  319MOL   C10045256   2.474   2.984   1.229  0.2175  0.3724 -0.1069
  319MOL   C10145257   2.346   3.081   1.247 -0.8594  0.0831  0.1730
  319MOL   O10245258   2.366   3.171   1.360  0.5680 -0.3605 -0.6845
  319MOL   H10345259   2.441   2.905   1.161  0.6591 -1.1777  1.4456
  319MOL   H10445260   2.502   2.934   1.321  1.1904  2.5825  0.8145
  319MOL   H10545261   2.254   3.023   1.258 -0.8762  0.4062  1.8957
  319MOL   H10645262   2.333   3.148   1.162  0.5301 -1.5850 -1.3700
  319MOL   C10745263   2.252   3.252   1.374 -0.1310 -1.1488  0.1049
  319MOL   C10845264   2.265   3.326   1.508 -0.0004  0.5818  0.3119
  319MOL   O10945265   2.249   3.227   1.616 -0.1541  0.3680 -0.4807
  319MOL   H11045266   2.247   3.323   1.291  0.0261  0.9458  1.8282
  319MOL   H11145267   2.159   3.196   1.377 -0.1673 -1.0751  0.3838
  319MOL   H11245268   2.189   3.403   1.523  1.0075  1.5597  0.4360
  319MOL   H11345269   2.366   3.362   1.526  1.4276 -3.3352  0.6756
  319MOL   C11445270   2.281   3.277   1.745  0.0959  0.1524  0.6371
  319MOL   C11545271   2.254   3.158   1.832 -0.2096  0.0684 -0.0263
  319MOL   O11645272   2.367   3.072   1.830  0.2461  0.0420  0.0617
  319MOL   H11745273   2.382   3.318   1.750  1.4751 -2.8315 -1.2217
  319MOL   H11845274   2.217   3.361   1.771 -0.8125  0.0193 -1.1123
  319MOL   H11945275   2.169   3.098   1.799  0.4084 -1.1686  0.5793
  319MOL   H12045276   2.246   3.175   1.939  0.2336  1.5802 -0.2267
  319MOL   C12145277   2.336   2.945   1.880  0.3762  0.1718 -0.1949
  319MOL   C12245278   2.466   2.860   1.892  0.3618 -0.7004  0.4195
  319MOL   O12345279   2.499   2.789   1.768 -0.3618  0.2418 -0.1938
  319MOL   H12445280   2.288   2.952   1.978  0.4520 -0.5742 -0.1079
  319MOL   H12545281   2.258   2.891   1.828 -0.5190  1.3245 -0.0586
  319MOL   H12645282   2.450   2.782   1.967  1.9217 -0.9098  0.5488
  319MOL   H12745283   2.555   2.915   1.923 -1.5428  1.9138  1.4639
  319MOL   C12845284   2.508   2.869   1.655 -0.2461  0.3599  0.1171
  319MOL   C12945285   2.649   2.841   1.596  0.5400  0.5911  0.2233
  319MOL   O13045286   2.656   2.710   1.549 -0.7537 -0.5067 -0.1665
  319MOL   H13145287   2.424   2.846   1.590 -0.1406  0.3759 -0.0257
  319MOL   H13245288   2.515   2.976   1.670 -1.6698  0.6760 -1.3719
  319MOL   H13345289   2.727   2.863   1.669  1.2190 -0.6663 -0.1018
  319MOL   H13445290   2.657   2.906   1.509 -1.4784 -0.0834 -0.5003
  319MOL   C13545291   2.735   2.673   1.437  0.2446 -0.0921 -0.3268
  319MOL   C13645292   2.744   2.522   1.430 -0.3012  0.6927  0.1086
  319MOL   O13745293   2.843   2.487   1.347  0.4306 -0.1829  0.7934
  319MOL   H13845294   2.689   2.720   1.350 -0.3713 -2.5378 -1.3707
  319MOL   H13945295   2.833   2.715   1.459 -0.0843  0.1010  0.8114
  319MOL   H14045296   2.653   2.490   1.379 -0.9676 -0.3213  1.8731
  319MOL   H14145297   2.745   2.483   1.532  0.4883  0.2646 -0.0587
  319MOL   H14245298   2.861   2.395   1.356  0.2652 -0.1148  1.8515
  320MOL     C145299   6.735   7.569   5.697 -0.6480 -0.8201 -0.1379
  320MOL     C245300   6.803   7.493   5.589 -0.3925  0.7092 -0.0686
  320MOL     O345301   6.712   7.420   5.508 -0.1630 -0.3128 -0.0216
  320MOL     H445302   6.797   7.648   5.738 -2.3779 -0.0514  1.0559
  320MOL     H545303   6.700   7.502   5.776  0.0690 -2.3270 -1.0650
  320MOL     H645304   6.875   7.421   5.627  1.3694  2.2916 -0.3795
  320MOL     H745305   6.851   7.559   5.517  1.9135 -1.3349 -0.4906
  320MOL     H845306   6.645   7.623   5.665 -0.7978 -0.0661  1.5387
  320MOL     C945307   6.762   7.346   5.402 -0.6591 -0.9094 -0.0463
  320MOL    C1045308   6.670   7.355   5.283 -0.4338  0.2122  0.3906
  320MOL    O1145309   6.698   7.465   5.198 -0.2275  0.4381 -0.0021
  320MOL    H1245310   6.860   7.373   5.362 -1.7527  0.5934 -1.7964
  320MOL    H1345311   6.782   7.247   5.444  1.1242 -0.8066 -0.6335
  320MOL    H1445312   6.567   7.354   5.319 -0.3977  2.0931  0.5810
  320MOL    H1545313   6.671   7.268   5.218  2.8332  0.9826 -0.6876
  320MOL    C1645314   6.683   7.592   5.254 -0.1795  0.0684 -0.7611
  320MOL    C1745315   6.708   7.703   5.158 -0.6008  0.7351 -0.2626
  320MOL    O1845316   6.841   7.729   5.126  0.0177  0.1143 -0.5121
  320MOL    H1945317   6.579   7.608   5.285 -0.5652 -0.4292 -1.7636
  320MOL    H2045318   6.746   7.608   5.341 -0.9353 -2.1505  0.2452
  320MOL    H2145319   6.679   0.017   5.220 -1.7946 -1.8650  2.8647
  320MOL    H2245320   6.643   7.687   5.072  0.1789  0.8854 -0.8906
  320MOL    C2345321   6.899   7.638   5.037  1.0373 -0.0357 -0.4648
  320MOL    C2445322   7.049   7.663   5.000  0.2191 -0.1451 -0.7818
  320MOL    O2545323   7.058   7.735   4.877 -0.2832  0.0581  0.2623
  320MOL    H2645324   6.883   7.533   5.059 -1.4545  0.8328  2.1165
  320MOL    H2745325   6.843   7.660   4.946 -0.5690  1.5002  0.8492
  320MOL    H2845326   7.111   7.577   4.972  0.3226  0.0127 -1.0329
  320MOL    H2945327   7.105   7.703   5.084 -0.3921 -0.0225 -0.4253
  320MOL    C3045328   7.034   0.108   4.879  0.2143  0.4959  0.4620
  320MOL    C3145329   7.070   0.172   4.738  0.5701  0.3689  0.4187
  320MOL    O3245330   7.213   0.195   4.733  0.5502 -0.1680 -0.2966
  320MOL    H3345331   6.927   0.123   4.891  0.2092  0.9109 -0.1144
  320MOL    H3445332   7.088   0.162   4.957 -0.8873  1.0449  0.8536
  320MOL    H3545333   7.023   0.270   4.736  2.6375  1.3642 -0.7375
  320MOL    H3645334   7.032   0.120   4.650  1.1387  0.1737  0.2859
  320MOL    C3745335   7.255   0.244   4.608 -0.1342 -0.0890 -0.5108
  320MOL    C3845336   7.407   0.265   4.613 -0.3496  1.0134 -0.2238
  320MOL    O3945337   7.438   0.396   4.649  0.0297 -0.9729  0.9341
  320MOL    H4045338   7.234   0.165   4.536  2.6919 -0.4509 -1.0027
  320MOL    H4145339   7.200   0.336   4.590  0.1644  0.1646 -0.1366
  320MOL    H4245340   7.439   0.253   4.509 -0.4684 -0.6459 -0.0758
  320MOL    H4345341   7.445   0.196   4.688 -2.0662  1.5518  1.1900
  320MOL    C4445342   7.572   0.424   4.666 -0.5768 -0.1485 -0.7050
  320MOL    C4545343   7.589   0.575   4.710 -0.1199 -0.2612  0.2008
  320MOL    O4645344   7.604   0.667   4.601 -0.0015  0.3277 -0.4879
  320MOL    H4745345   7.605   0.356   4.744 -2.9432 -2.7265 -1.8564
  320MOL    H4845346   7.620   0.401   4.570  2.3680  1.0606  0.4165
  320MOL    H4945347   7.676   0.584   4.776 -1.1269  1.0666  1.3724
  320MOL    H5045348   7.502   0.605   4.768 -0.3295 -2.2576  0.9701
  320MOL    C5145349   7.606   0.808   4.641 -0.5540  0.3151  0.6987
  320MOL    C5245350   7.654   0.887   4.519  0.0471 -0.0043  0.3180
  320MOL    O5345351   7.548   0.883   4.416 -0.7356  0.2321 -0.5746
  320MOL    H5445352   7.513   0.858   4.667 -0.3641 -0.3268  2.7561
  320MOL    H5545353   7.668   0.825   4.729  0.5374  3.3389 -0.6050
  320MOL    H5645354   7.751   0.848   4.488  0.0039  0.5035 -0.4802
  320MOL    H5745355   7.665   0.988   4.559 -0.3452 -0.3594  1.3428
  320MOL    C5845356   7.580   0.960   4.305  0.4043  0.0313  0.2453
  320MOL    C5945357   7.465   0.935   4.205  0.2636 -0.0390 -0.1507
  320MOL    O6045358   7.354   1.018   4.253 -0.3431  0.5929 -0.0948
  320MOL    H6145359   7.596   1.067   4.321  0.2817  0.3245 -1.4563
  320MOL    H6245360   7.672   0.913   4.271  0.5167  0.1308  0.4096
  320MOL    H6345361   7.437   0.830   4.206  1.8387 -0.4874  1.9488
  320MOL    H6445362   7.499   0.977   4.111 -0.9710  0.3643 -0.4255
  320MOL    C6545363   7.236   0.962   4.197  0.2563  0.0756 -0.1726
  320MOL    C6645364   7.115   1.056   4.211 -0.5571 -0.4866  0.7061
  320MOL    O6745365   7.065   1.042   4.340 -0.2405  0.4936 -0.3490
  320MOL    H6845366   7.246   0.944   4.090 -2.1485  0.6026 -0.5253
  320MOL    H6945367   7.217   0.870   4.252  0.5117 -0.2329 -0.5955
  320MOL    H7045368   7.039   1.032   4.137  0.3959  0.8304 -0.7413
  320MOL    H7145369   7.141   1.161   4.197 -2.5272 -0.1463 -0.6518
  320MOL    C7245370   6.929   1.088   4.363 -0.5326 -0.6217  0.3406
  320MOL    C7345371   6.886   1.065   4.504  0.4681  0.4794  1.6545
  320MOL    O7445372   6.839   0.926   4.506 -0.1070  0.1189  0.9181
  320MOL    H7545373   6.929   1.194   4.337  0.2009 -0.3185  1.5474
  320MOL    H7645374   6.853   1.048   4.295 -0.6811  2.0723 -1.1762
  320MOL    H7745375   6.813   1.137   4.540  0.0205  0.1232  1.4725
  320MOL    H7845376   6.972   1.074   4.570  0.9309 -1.3245  1.3277
  320MOL    C7945377   6.797   0.903   4.642 -0.3472  0.3481  0.5900
  320MOL    C8045378   6.778   0.755   4.655 -0.3201 -0.0624  0.0995
  320MOL    O8145379   6.672   0.729   4.751 -0.7034 -0.0727 -0.6070
  320MOL    H8245380   6.861   0.938   4.722 -1.4022  1.0402  1.1463
  320MOL    H8345381   6.703   0.955   4.662 -0.5876 -0.2800  1.1124
  320MOL    H8445382   6.872   0.702   4.674 -0.2084  0.2287  0.3682
  320MOL    H8545383   6.751   0.721   4.555 -0.6207  1.8203 -0.4667
  320MOL    C8645384   6.634   0.593   4.732 -0.2942 -0.3827  0.3296
  320MOL    C8745385   6.495   0.581   4.802  0.5787 -0.5593 -0.0704
  320MOL    O8845386   6.512   0.551   4.944 -0.0133  0.0502  0.2265
  320MOL    H8945387   6.623   0.557   4.630  3.8587 -1.1118  0.0284
  320MOL    H9045388   6.701   0.524   4.784 -0.0193  0.6576  1.3715
  320MOL    H9145389   6.441   0.495   4.763 -0.7598 -0.6016  1.7893
  320MOL    H9245390   6.447   0.674   4.775 -2.1297 -1.9683 -0.2571
  320MOL    C9345391   6.400   0.575   5.026 -0.0281 -0.1665 -0.1449
  320MOL    C9445392   6.391   0.500   5.157 -0.2101  1.1102  0.1191
  320MOL    O9545393   6.457   0.581   5.252  0.5190  0.5016 -0.1351
  320MOL    H9645394   6.392   0.682   5.047 -0.1558 -0.4290  1.1894
  320MOL    H9745395   6.316   0.535   4.970 -0.9869  1.0303  0.4105
  320MOL    H9845396   6.435   0.401   5.152  0.1112  1.1843  1.2900
  320MOL    H9945397   6.286   0.477   5.174 -0.4484  1.4831 -0.8192
  320MOL   C10045398   6.439   0.539   5.386 -0.0521  0.4926  1.1362
  320MOL   C10145399   6.507   0.640   5.477  0.5101 -0.6274  0.1711
  320MOL   O10245400   6.405   0.739   5.491  0.3037 -0.1535  0.0340
  320MOL   H10345401   6.332   0.542   5.408 -0.2224 -1.0663  0.5138
  320MOL   H10445402   6.463   0.433   5.394  0.3901  0.4298 -0.7942
  320MOL   H10545403   6.599   0.686   5.442  0.7415 -1.2190  0.0035
  320MOL   H10645404   6.542   0.605   5.574 -0.1181  1.4499  1.1815
  320MOL   C10745405   6.450   0.853   5.566  0.4998  0.2767  0.5010
  320MOL   C10845406   6.339   0.960   5.574  0.1052 -0.5881  0.3748
  320MOL   O10945407   6.367   1.058   5.468 -0.2936 -0.5260 -0.8209
  320MOL   H11045408   6.449   0.800   5.662  0.3988 -0.3106  0.1755
  320MOL   H11145409   6.546   0.894   5.534  1.1158 -0.8234  0.8724
  320MOL   H11245410   6.354   1.008   5.671 -0.1954 -1.3592  0.8105
  320MOL   H11345411   6.241   0.912   5.568  0.5083 -1.7895  2.8046
  320MOL   C11445412   6.293   1.178   5.466 -0.4464  0.0365  0.7217
  320MOL   C11545413   6.350   1.268   5.573 -0.0648 -0.5356  0.2698
  320MOL   O11645414   6.325   1.228   5.702  0.0235 -0.0323 -0.6591
  320MOL   H11745415   6.303   1.229   5.370 -0.0161  2.1414  1.8380
  320MOL   H11845416   6.186   1.162   5.480 -0.8474  1.5487 -0.4692
  320MOL   H11945417   6.291   1.357   5.551 -0.2304 -0.5414  0.6725
  320MOL   H12045418   6.453   1.293   5.551  0.0738 -0.8308  0.5874
  320MOL   C12145419   6.351   1.335   5.791 -0.3116 -1.1412 -0.4197
  320MOL   C12245420   6.336   1.292   5.937  0.6516  0.3826  0.2922
  320MOL   O12345421   6.192   1.274   5.965  0.2672 -0.2044 -0.5995
  320MOL   H12445422   6.450   1.381   5.779 -0.4473 -0.1672  1.9338
  320MOL   H12545423   6.284   1.420   5.784  2.0699  0.8292 -0.1959
  320MOL   H12645424   6.371   1.370   6.004  1.1646 -0.3304  0.8674
  320MOL   H12745425   6.388   1.198   5.954 -1.9277 -1.4918 -1.7597
  320MOL   C12845426   6.163   1.225   6.095  0.0965 -0.1741 -0.2867
  320MOL   C12945427   6.015   1.252   6.107 -0.3241  0.9637 -0.5876
  320MOL   O13045428   5.957   1.140   6.044 -0.1883 -0.1150  0.5668
  320MOL   H13145429   6.189   1.121   6.115  0.3245 -0.0034  0.3042
  320MOL   H13245430   6.220   1.286   6.165  0.6116  0.1393 -0.9683
  320MOL   H13345431   5.988   1.346   6.060 -0.7888  0.6173 -1.0151
  320MOL   H13445432   5.979   1.261   6.210 -1.9360 -1.1412 -0.9213
  320MOL   C13545433   5.821   1.123   6.073  0.6867  0.3652  0.3175
  320MOL   C13645434   5.771   1.022   5.962  0.1795 -0.0595 -0.4828
  320MOL   O13745435   5.708   0.906   6.011  0.4184 -0.1343  0.2445
  320MOL   H13845436   5.806   1.073   6.168 -0.3091  0.0829  0.0203
  320MOL   H13945437   5.749   1.204   6.072  0.0286 -0.2159 -0.8249
  320MOL   H14045438   5.855   0.993   5.899 -0.1741  0.7631 -1.3505
  320MOL   H14145439   5.696   1.076   5.904 -2.8930 -0.8211  2.6087
  320MOL   H14245440   5.772   0.865   6.067  0.7853  0.6737  0.4205
  321MOL     C145441   7.375   7.342   6.098 -0.2542 -0.0701 -0.5858
  321MOL     C245442   7.384   7.374   6.246 -0.4093  0.2115 -0.2531
  321MOL     O345443   7.494   7.316   6.296  0.1141 -0.1249  0.3815
  321MOL     H445444   7.384   7.234   6.082  1.0966 -0.0811  0.2157
  321MOL     H545445   7.443   7.394   6.032  1.5823  1.1680  2.2020
  321MOL     H645446   7.300   7.332   6.302 -0.0894  1.3008  1.0653
  321MOL     H745447   7.384   7.483   6.251  0.2600  0.2057 -0.1504
  321MOL     H845448   7.272   7.368   6.071 -0.7411  0.1244  1.3717
  321MOL     C945449   7.509   7.326   6.436 -0.0008 -0.2581  0.0519
  321MOL    C1045450   7.612   7.240   6.494  0.4317  0.0224  0.8670
  321MOL    O1145451   7.578   7.105   6.519  0.6853 -0.0264  0.3050
  321MOL    H1245452   7.540   7.427   6.462  1.7223 -1.0132  1.0636
  321MOL    H1345453   7.418   7.307   6.493  0.5331 -1.4662  0.5170
  321MOL    H1445454   7.644   7.283   6.589  1.0434  1.3836  0.0642
  321MOL    H1545455   7.694   7.257   6.423 -0.4516 -0.2061 -0.2193
  321MOL    C1645456   7.577   7.020   6.402  0.3661  0.7731  0.2881
  321MOL    C1745457   7.521   6.882   6.457  0.1180  0.4329 -0.5318
  321MOL    O1845458   7.619   6.821   6.545  0.9647  0.0122 -0.3990
  321MOL    H1945459   7.506   7.061   6.331 -0.0190  0.2549  0.3741
  321MOL    H2045460   7.674   7.003   6.356 -0.5266 -2.0814 -0.6249
  321MOL    H2145461   7.500   6.818   6.372 -0.0730  0.8524 -0.7964
  321MOL    H2245462   7.429   6.909   6.510 -1.1409  2.6344 -3.7110
  321MOL    C2345463   7.575   6.706   6.604 -0.2304 -0.4451  0.1113
  321MOL    C2445464   7.682   6.644   6.709  0.2034 -0.5138 -0.4431
  321MOL    O2545465   7.613   6.562   6.804  0.3321  0.2721 -0.0722
  321MOL    H2645466   7.485   6.729   6.661  0.5848 -1.3298  1.7969
  321MOL    H2745467   7.550   6.639   6.522 -1.4103  1.8754 -1.4777
  321MOL    H2845468   7.729   6.732   6.752 -0.0293  1.1668 -3.5234
  321MOL    H2945469   7.763   6.599   6.652  0.1347  0.8638 -1.6540
  321MOL    C3045470   7.630   6.422   6.779  0.1195 -0.3572 -0.1046
  321MOL    C3145471   7.554   6.345   6.882 -0.1695 -0.7595  0.1786
  321MOL    O3245472   7.640   6.325   6.995  0.1951  0.2407  0.5647
  321MOL    H3345473   7.615   6.400   6.673  1.0505 -0.2376 -0.2697
  321MOL    H3445474   7.739   6.412   6.788 -0.2791 -3.6540  1.5586
  321MOL    H3545475   7.526   6.247   6.845  0.8021 -2.0962  2.8730
  321MOL    H3645476   7.467   6.395   6.924 -0.2185 -1.9575  1.5260
  321MOL    C3745477   7.582   6.230   7.087 -0.0015 -0.0099  1.1170
  321MOL    C3845478   7.690   6.204   7.195  0.2103 -0.2831 -0.0230
  321MOL    O3945479   7.723   6.315   7.279  0.1830 -0.5513  0.1721
  321MOL    H4045480   7.491   6.272   7.128  0.3688  1.0266  0.8734
  321MOL    H4145481   7.559   6.137   7.035 -0.8107  1.7284 -1.6811
  321MOL    H4245482   7.770   6.158   7.138 -0.1773 -0.6685 -0.2513
  321MOL    H4345483   7.649   6.127   7.261  1.8416 -0.3737  0.9040
  321MOL    C4445484   0.051   6.286   7.378  0.4218 -0.1750 -0.3427
  321MOL    C4545485   7.764   6.217   7.498 -0.0067 -0.0083  0.5544
  321MOL    O4645486   7.753   6.075   7.485  0.5370 -0.8845 -0.4043
  321MOL    H4745487   0.129   6.226   7.331  0.5415  1.0634 -1.8056
  321MOL    H4845488   0.109   6.376   7.402  1.8547 -1.0316 -0.5141
  321MOL    H4945489   7.663   6.258   7.506 -0.2531 -0.8961  2.0557
  321MOL    H5045490   0.041   6.235   7.594  0.2515 -0.6308  0.5425
  321MOL    C5145491   7.653   6.011   7.566 -0.2644  0.0697 -0.1212
  321MOL    C5245492   7.648   6.061   7.710  0.4094 -0.0828 -0.0662
  321MOL    O5345493   0.006   6.030   7.767  0.4425  0.3196  0.2473
  321MOL    H5445494   7.556   6.035   7.523 -0.1441  2.0814  0.6752
  321MOL    H5545495   7.666   5.902   7.564  0.9602  0.1809  0.9453
  321MOL    H5645496   7.564   6.023   7.768  0.0200  0.1502 -0.4657
  321MOL    H5745497   7.643   6.170   7.713  0.0612 -0.1341  1.7925
  321MOL    C5845498   0.028   6.092   0.122 -0.6902  0.0839  0.1880
  321MOL    C5945499   0.177   6.075   0.163  0.3605 -0.9062  0.0709
  321MOL    O6045500   0.245   6.179   0.097  0.2048  0.3860 -0.2124
  321MOL    H6145501   0.001   6.197   0.123 -2.4330 -0.3484  0.2011
  321MOL    H6245502   7.741   6.034   0.194  1.4076 -0.8621  1.1808
  321MOL    H6345503   0.222   5.981   0.131  1.7939 -0.6635  1.3058
  321MOL    H6445504   0.184   6.084   0.272 -1.7427 -0.5897  0.1971
  321MOL    C6545505   0.382   6.180   0.138 -0.0672 -0.3261 -1.0525
  321MOL    C6645506   0.397   6.268   0.264 -0.1231  0.1101 -0.0635
  321MOL    O6745507   0.384   6.405   0.246 -0.0833  0.2491 -0.1776
  321MOL    H6845508   0.423   6.081   0.153 -0.1495 -0.3008 -0.6622
  321MOL    H6945509   0.440   6.218   0.054 -0.2690  1.4691 -0.3999
  321MOL    H7045510   0.503   6.258   0.285  0.5502 -1.8089 -4.0628
  321MOL    H7145511   0.343   6.224   0.349  1.9758  0.0923  1.3048
  321MOL    C7245512   0.255   6.462   0.219 -0.4400 -0.2622  0.0705
  321MOL    C7345513   0.171   6.476   0.336  0.1603 -0.3859 -0.0581
  321MOL    O7445514   0.094   6.349   0.355 -0.4335  0.4878  0.2053
  321MOL    H7545515   0.274   6.564   0.186 -1.7006 -0.3965 -1.1065
  321MOL    H7645516   0.198   6.418   0.138 -1.9146 -1.3024  1.6341
  321MOL    H7745517   0.105   6.561   0.320 -1.1397 -0.9184  2.2315
  321MOL    H7845518   0.233   6.516   0.415  0.5396 -3.0822  1.0808
  321MOL    C7945519   0.036   6.360   0.484  1.0020 -0.6618 -0.0762
  321MOL    C8045520   7.743   6.226   0.517  0.2828 -0.1161  0.0599
  321MOL    O8145521   7.617   6.209   0.455  0.0160  0.0316  0.0987
  321MOL    H8245522   0.101   6.403   0.560 -0.5165 -1.6079  1.7660
  321MOL    H8345523   7.728   6.434   0.471  1.4627 -0.3435 -1.1325
  321MOL    H8445524   7.734   6.220   0.625  0.7398 -2.2653  0.0221
  321MOL    H8545525   0.029   6.135   0.494 -1.7693 -1.5580  0.5023
  321MOL    C8645526   7.560   6.091   0.505 -0.5515 -0.6079  0.0380
  321MOL    C8745527   7.438   6.044   0.432  0.0983  0.1145 -0.0049
  321MOL    O8845528   7.474   5.969   0.320 -0.2569  0.2827  0.9839
  321MOL    H8945529   7.635   6.011   0.500  0.8867  0.7682 -1.0039
  321MOL    H9045530   7.533   6.104   0.609  0.3295  0.4418  0.1432
  321MOL    H9145531   7.370   6.126   0.407  0.2515 -0.1691 -1.4098
  321MOL    H9245532   7.374   5.974   0.486  0.3339 -0.0115  0.1087
  321MOL    C9345533   7.519   5.833   0.356 -0.1100  0.1926  0.3560
  321MOL    C9445534   7.578   5.773   0.229 -0.0354 -0.2602 -1.2978
  321MOL    O9545535   7.486   5.782   0.123 -0.1991 -0.0436  0.2391
  321MOL    H9645536   7.589   5.822   0.439 -0.9407 -1.2211  0.8851
  321MOL    H9745537   7.432   5.772   0.384  0.4150 -1.1546 -0.9030
  321MOL    H9845538   7.601   5.669   0.255 -4.0605 -0.7156  0.7389
  321MOL    H9945539   7.669   5.827   0.202 -0.1162  1.9179  2.5102
  321MOL   C10045540   7.518   5.713   0.000 -0.0541 -0.0499 -0.6149
  321MOL   C10145541   7.436   5.778   7.660  1.1646 -0.3580  1.0447
  321MOL   O10245542   7.314   5.704   7.653 -0.4142  0.0957 -0.3745
  321MOL   H10345543   7.622   5.730   7.745 -0.4980  0.4985 -2.0577
  321MOL   H10445544   7.502   5.606   0.012 -1.3150  0.3058  1.0716
  321MOL   H10545545   7.491   5.770   7.566  0.3099  2.8731  0.2171
  321MOL   H10645546   7.429   5.884   7.681  0.3786 -0.6017  2.0217
  321MOL   C10745547   7.226   5.750   7.547  0.2924 -0.7953 -0.8003
  321MOL   C10845548   7.086   5.686   7.554  0.2179  0.9931  1.0526
  321MOL   O10945549   7.085   5.548   7.513  0.1867 -0.0880  0.0134
  321MOL   H11045550   7.221   5.858   7.554  1.2032 -0.8463  0.9487
  321MOL   H11145551   7.280   5.728   7.455 -0.4502 -1.6545 -1.0471
  321MOL   H11245552   7.023   5.740   7.485  0.6739 -1.7559 -1.6224
  321MOL   H11345553   7.049   5.706   7.655  1.8031  1.9867  1.4715
  321MOL   C11445554   6.954   5.498   7.525  0.3720 -0.0230  0.6098
  321MOL   C11545555   6.945   5.356   7.472 -0.5648 -0.7177 -0.4770
  321MOL   O11645556   6.949   5.268   7.585 -0.2681  0.0033  0.3196
  321MOL   H11745557   6.931   5.498   7.631  0.2993  2.4384  0.6290
  321MOL   H11845558   6.887   5.574   7.484  1.7866  1.1285  0.4088
  321MOL   H11945559   7.033   5.332   7.412 -0.9298  0.4734 -1.5076
  321MOL   H12045560   6.861   5.330   7.407 -0.2342 -1.1416 -0.7362
  321MOL   C12145561   7.006   5.143   7.549 -0.7791 -0.6647 -0.2580
  321MOL   C12245562   6.982   5.051   7.661 -0.3419  0.6563 -0.5771
  321MOL   O12345563   6.847   5.026   7.662  0.2617  0.1785 -0.3369
  321MOL   H12445564   6.968   5.100   7.456  0.9359 -2.0816 -0.3482
  321MOL   H12545565   7.114   5.140   7.535 -0.5848  3.1507 -0.0017
  321MOL   H12645566   7.019   5.080   7.759 -2.9089 -0.4952  0.7611
  321MOL   H12745567   7.040   4.960   7.646 -2.1280 -0.9649  1.9517
  321MOL   C12845568   6.804   4.917   7.745 -0.6520 -0.2120  0.6689
  321MOL   C12945569   6.653   4.899   7.726  0.0914 -0.4066  0.3063
  321MOL   O13045570   6.590   4.995   0.037  0.2456  0.1250  0.3692
  321MOL   H13145571   6.861   4.832   7.709 -1.4959 -0.5874  0.1988
  321MOL   H13245572   6.834   4.931   0.078  3.6788  0.2444 -0.5600
  321MOL   H13345573   6.639   4.796   7.760  1.2896 -0.9269 -0.7154
  321MOL   H13445574   6.610   4.902   7.626 -0.6648  2.3261  0.7056
  321MOL   C13545575   6.464   4.955   0.082 -0.6821 -0.0975 -0.2072
  321MOL   C13645576   6.413   5.067   0.178  0.1107 -0.1117  0.2071
  321MOL   O13745577   6.311   5.023   0.269 -0.1095 -0.0382 -0.4907
  321MOL   H13845578   6.396   4.938   7.770  1.1098 -0.3566 -1.6746
  321MOL   H13945579   6.471   4.857   0.130  0.9070 -0.0114 -0.2285
  321MOL   H14045580   6.372   5.147   0.117  1.1063  0.7603  0.6649
  321MOL   H14145581   6.484   5.115   0.245 -0.3759  1.2015 -0.2094
  321MOL   H14245582   6.277   4.942   0.234  0.9381 -1.9952  2.7884
  322MOL     C145583   2.794   5.964   3.407  0.2977 -0.5827 -0.0743
  322MOL     C245584   2.903   5.986   3.515  0.0872  0.5522 -0.1437
  322MOL     O345585   2.885   5.911   3.637 -0.4284  0.1969 -0.1907
  322MOL     H445586   2.692   5.972   3.444  0.0204 -0.8316 -0.7912
  322MOL     H545587   2.804   5.871   3.351  0.1212 -0.0633 -0.9885
  322MOL     H645588   2.891   6.090   3.545 -1.5401  0.9434 -2.0260
  322MOL     H745589   3.003   5.975   3.472 -0.5483 -2.6409 -0.9342
  322MOL     H845590   2.809   6.049   3.340  0.2828  0.1473  0.8316
  322MOL     C945591   2.905   5.768   3.608  0.2161  0.4823 -0.1644
  322MOL    C1045592   3.023   5.701   3.680  0.1923 -0.1130 -0.0380
  322MOL    O1145593   3.137   5.741   3.600 -0.5451  0.2237 -0.0090
  322MOL    H1245594   2.815   5.708   3.620  1.3658 -1.6103 -1.5697
  322MOL    H1345595   2.921   5.749   3.502 -0.4627  1.3225 -0.4189
  322MOL    H1445596   3.012   5.593   3.681  0.1005 -0.1380 -1.7553
  322MOL    H1545597   3.029   5.723   3.786 -1.0324 -0.7327  0.1623
  322MOL    C1645598   3.256   5.770   3.674  0.1146  0.2855 -0.2692
  322MOL    C1745599   3.339   5.649   3.692 -0.3419  0.0150 -0.0349
  322MOL    O1845600   3.272   5.570   3.778 -0.1757  0.2345 -0.3503
  322MOL    H1945601   3.312   5.841   3.613  1.6466 -1.1152 -0.5185
  322MOL    H2045602   3.233   5.814   3.772  3.8638 -0.7128  1.1330
  322MOL    H2145603   3.442   5.679   3.716 -1.1671  2.4256  0.7157
  322MOL    H2245604   3.339   5.594   3.599 -1.3557  0.8581 -0.5393
  322MOL    C2345605   3.325   5.441   3.801 -0.5793  0.1590  0.2047
  322MOL    C2445606   3.418   5.439   3.927 -0.3422 -0.5468  0.1131
  322MOL    O2545607   3.519   5.541   3.915 -0.0722  0.1357  0.1204
  322MOL    H2645608   3.237   5.379   3.819  0.6170 -1.0705  2.0128
  322MOL    H2745609   3.378   5.410   3.711  1.0530 -0.0558  1.2167
  322MOL    H2845610   3.459   5.338   3.931 -0.0091 -0.3941  0.6053
  322MOL    H2945611   3.361   5.457   4.018 -0.3477  1.2157 -0.2259
  322MOL    C3045612   3.596   5.551   4.037 -0.2795 -0.5524  0.5760
  322MOL    C3145613   3.683   5.678   4.029  0.3843  0.4965  0.3148
  322MOL    O3245614   3.610   5.794   4.067  0.0029  0.2476 -0.3055
  322MOL    H3345615   3.548   5.565   4.134 -1.0645  1.5538 -0.0979
  322MOL    H3445616   3.656   5.460   4.034 -0.9017 -0.9100 -1.6232
  322MOL    H3545617   3.729   5.688   3.931  1.4433  0.8685  0.8386
  322MOL    H3645618   3.769   5.660   4.094 -0.5169 -0.2703  1.3094
  322MOL    C3745619   3.559   5.860   3.956 -0.1688 -0.2882 -0.1146
  322MOL    C3845620   3.472   5.977   3.999  0.0514  0.0907 -0.0433
  322MOL    O3945621   3.530   6.106   3.972  0.0628 -0.3398 -0.2409
  322MOL    H4045622   3.646   5.895   3.900  0.7237  1.6574  2.3795
  322MOL    H4145623   3.500   5.789   3.899  0.9656 -0.5899 -0.9235
  322MOL    H4245624   3.452   5.970   4.106  0.0478  1.6043  0.0558
  322MOL    H4345625   3.372   5.970   3.957  0.8007  0.2883 -1.9273
  322MOL    C4445626   3.442   6.223   3.977 -0.1863  0.1276 -0.2871
  322MOL    C4545627   3.428   6.277   4.121 -0.0109 -0.1933 -0.1065
  322MOL    O4645628   3.551   6.327   4.158  0.2298  0.2066 -0.0705
  322MOL    H4745629   3.489   6.307   3.926  0.5648 -0.4972 -0.6170
  322MOL    H4845630   3.345   6.210   3.929 -0.1691  0.6397 -0.4600
  322MOL    H4945631   3.393   6.196   4.185  0.8479  0.1042  0.7595
  322MOL    H5045632   3.363   6.364   4.118  0.6722  0.3136 -0.4176
  322MOL    C5145633   3.556   6.384   4.291  0.0443  0.7661 -0.1597
  322MOL    C5245634   3.689   6.458   4.329  0.8080  0.5208 -0.4325
  322MOL    O5345635   3.779   6.370   4.391 -0.0162 -0.6543  0.2481
  322MOL    H5445636   3.478   6.459   4.308  2.1935  3.0257 -0.0191
  322MOL    H5545637   3.540   6.296   4.352 -1.3197  1.4099  0.4337
  322MOL    H5645638   3.680   6.534   4.406  0.8607 -0.8532  0.9652
  322MOL    H5745639   3.724   6.511   4.241 -1.0071 -0.4033 -1.7534
  322MOL    C5845640   3.919   6.423   4.392  0.3931 -0.6808  0.2820
  322MOL    C5945641   4.017   6.356   4.494  0.5195 -0.0539 -0.5141
  322MOL    O6045642   3.945   6.366   4.620  0.1945  0.2739 -0.1333
  322MOL    H6145643   3.969   6.398   4.298  1.3688 -1.9184  1.1046
  322MOL    H6245644   3.915   6.531   4.407 -1.0156 -0.7871  0.7926
  322MOL    H6345645   4.111   6.410   4.498  1.3289 -1.3486 -1.7110
  322MOL    H6445646   4.033   6.255   4.457 -0.1188 -0.1559 -0.5163
  322MOL    C6545647   4.029   6.364   4.733  0.2887 -0.6322 -0.5661
  322MOL    C6645648   4.082   6.223   4.750  0.1740  0.7478  0.1468
  322MOL    O6745649   4.196   6.223   4.662  0.0510 -0.2486 -0.0481
  322MOL    H6845650   4.106   6.440   4.717 -1.1531  0.9398 -0.1321
  322MOL    H6945651   3.967   6.388   4.819  0.1018 -0.3857 -0.7681
  322MOL    H7045652   4.002   6.154   4.725  2.6659 -1.3775 -2.1726
  322MOL    H7145653   4.098   6.184   4.851  1.0316  0.5303 -0.0679
  322MOL    C7245654   4.258   6.096   4.662 -0.5087 -0.4006  0.8085
  322MOL    C7345655   4.405   6.115   4.617  0.1078 -0.6361 -0.3212
  322MOL    O7445656   4.487   6.174   4.722  0.2235 -0.6388 -0.0555
  322MOL    H7545657   4.251   6.051   4.761  1.6519 -0.3969  0.9902
  322MOL    H7645658   4.212   6.043   4.579  1.2939 -0.5460 -0.1225
  322MOL    H7745659   4.396   6.167   4.521 -1.3885  0.5841  0.4549
  322MOL    H7845660   4.445   6.016   4.595 -0.4175 -1.1350  0.8914
  322MOL    C7945661   4.620   6.216   4.684 -0.2721 -0.2825  0.0928
  322MOL    C8045662   4.697   6.264   4.802  0.7985 -0.1914  0.9399
  322MOL    O8145663   4.727   6.155   4.883 -0.4598 -0.3265  0.0928
  322MOL    H8245664   4.668   6.126   4.646 -0.0580 -0.8386  1.6203
  322MOL    H8345665   4.618   6.282   4.598  3.9663  0.2898  0.3102
  322MOL    H8445666   4.637   6.344   4.846  0.9320  2.1766 -2.9202
  322MOL    H8545667   4.792   6.308   4.773  0.0162  0.5768 -0.5159
  322MOL    C8645668   4.769   6.184   5.019  0.0753  0.4228 -0.7713
  322MOL    C8745669   4.855   6.072   5.085 -0.2121  0.0305 -0.5926
  322MOL    O8845670   4.995   6.080   5.062 -0.0202 -0.2056  0.5505
  322MOL    H8945671   4.813   6.282   5.039  1.3419 -0.1521 -0.6379
  322MOL    H9045672   4.677   6.193   5.076 -1.1484  1.1060 -2.8137
  322MOL    H9145673   4.818   5.971   5.066 -0.1703 -0.1672  0.3857
  322MOL    H9245674   4.836   6.098   5.189  2.8344 -0.8509  0.2460
  322MOL    C9345675   5.022   6.081   4.924 -0.0311  0.1365 -0.2288
  322MOL    C9445676   5.169   6.040   4.906 -0.3869 -0.2278 -0.9107
  322MOL    O9545677   5.183   5.892   4.909  0.4047  0.3243  0.6129
  322MOL    H9645678   4.947   6.023   4.869 -0.3200  0.4449 -0.1633
  322MOL    H9745679   5.006   6.185   4.898 -1.0976 -0.8016 -3.5059
  322MOL    H9845680   5.229   6.090   4.983  1.7994 -0.5998 -2.3401
  322MOL    H9945681   5.199   6.070   4.805  0.9041 -1.5457 -0.9361
  322MOL   C10045682   5.322   5.857   4.923  0.8037 -0.7255 -0.3959
  322MOL   C10145683   5.360   5.837   5.072  1.6293  0.1989  0.1409
  322MOL   O10245684   5.487   5.768   5.083  0.2618 -0.6709 -0.1477
  322MOL   H10345685   5.329   5.753   4.892  3.3545 -0.6795 -0.0943
  322MOL   H10445686   5.399   5.907   4.864  0.8825  1.4656  1.4898
  322MOL   H10545687   5.278   5.788   5.124 -0.3594  1.8512 -1.3459
  322MOL   H10645688   5.370   5.937   5.116  1.0261  1.3271 -2.1868
  322MOL   C10745689   5.513   5.740   5.221 -0.0836  0.6081  0.1590
  322MOL   C10845690   5.611   5.624   5.222 -0.4454 -0.6984  1.1981
  322MOL   O10945691   5.736   5.667   5.175  0.1021  0.2713  0.0045
  322MOL   H11045692   5.564   5.822   5.271 -2.3556  1.6210  0.9071
  322MOL   H11145693   5.423   5.721   5.279  0.8904  1.9379  2.1670
  322MOL   H11245694   5.566   5.541   5.169 -0.7154  1.4689 -2.1046
  322MOL   H11345695   5.622   5.590   5.325 -0.4432 -2.9215  0.4948
  322MOL   C11445696   5.802   5.555   5.122 -0.5524  0.1043  0.7134
  322MOL   C11545697   5.933   5.593   5.048 -0.2442 -0.1609  0.1559
  322MOL   O11645698   6.047   5.588   5.133  0.0608 -0.3526 -0.0313
  322MOL   H11745699   5.820   5.476   5.194 -1.7787  0.2408  1.1894
  322MOL   H11845700   5.727   5.508   5.058 -0.3332  1.0568 -0.2551
  322MOL   H11945701   5.934   5.678   4.981  0.8939 -0.0805  0.2646
  322MOL   H12045702   5.942   5.510   4.978 -1.0319 -0.6001  0.5604
  322MOL   C12145703   6.173   5.588   5.066 -0.1412  0.3768  0.6290
  322MOL   C12245704   6.229   5.730   5.042  0.2622 -0.0631  0.0214
  322MOL   O12345705   6.186   5.781   4.919  0.0732 -0.1852 -0.5354
  322MOL   H12445706   6.236   5.529   5.132 -0.5427 -2.3299 -1.3402
  322MOL   H12545707   6.164   5.521   4.980  0.5984 -1.2132  1.7611
  322MOL   H12645708   6.338   5.729   5.034  0.2763  1.8788 -0.3457
  322MOL   H12745709   6.197   5.801   5.119  1.1980 -0.2348  0.5865
  322MOL   C12845710   6.243   5.904   4.893  0.2558  0.0972  0.2580
  322MOL   C12945711   6.159   5.964   4.780 -0.2973 -0.5276 -0.0660
  322MOL   O13045712   6.222   5.952   4.652  0.0028  0.0867 -0.1657
  322MOL   H13145713   6.235   5.965   4.983 -2.6279 -2.0102  1.5199
  322MOL   H13245714   6.348   5.893   4.866  0.0209 -0.3207 -0.4918
  322MOL   H13345715   6.152   6.072   4.795  0.1445 -0.2371 -1.8776
  322MOL   H13445716   6.055   5.934   4.782 -0.7189  0.8645 -0.1606
  322MOL   C13545717   6.155   5.864   4.559 -0.1667  0.3543  0.1563
  322MOL   C13645718   6.171   5.719   4.612 -1.2524  0.2781 -0.5200
  322MOL   O13745719   6.157   5.639   4.502 -0.0271 -0.5209  0.0058
  322MOL   H13845720   6.047   5.879   4.551 -0.0182  0.2403 -2.2958
  322MOL   H13945721   6.201   5.886   4.463 -1.3554  1.5753 -0.1633
  322MOL   H14045722   6.097   5.693   4.686 -0.8806  1.0382  0.1313
  322MOL   H14145723   6.272   5.700   4.649 -0.5708  1.8785 -1.4683
  322MOL   H14245724   6.218   5.664   4.434 -0.3685 -0.5512 -0.3163
  323MOL     C145725   2.937   7.621   5.340  0.0397  0.2273 -0.1851
  323MOL     C245726   2.894   7.476   5.336  0.8119 -1.1156 -0.3719
  323MOL     O345727   2.970   7.410   5.435  0.4128  0.2576  0.8340
  323MOL     H445728   2.918   7.663   5.241 -0.3860  0.0832 -0.1614
  323MOL     H545729   3.045   7.623   5.356 -0.0748 -0.3391  0.7006
  323MOL     H645730   2.918   7.440   5.236 -0.1319  0.5692 -1.2340
  323MOL     H745731   2.787   7.467   5.351  1.0118 -2.2607  0.3582
  323MOL     H845732   2.886   7.681   5.416  1.5686 -0.8744  1.7717
  323MOL     C945733   2.926   7.276   5.454 -0.3873  0.5148  0.2560
  323MOL    C1045734   3.012   7.206   5.554  0.4145  0.2713 -0.3851
  323MOL    O1145735   3.056   7.296   5.662 -0.1270 -0.2860 -0.1709
  323MOL    H1245736   2.820   7.286   5.478 -0.2746 -1.1179  1.5064
  323MOL    H1345737   2.927   7.222   5.359 -2.3613 -0.7854  0.9374
  323MOL    H1445738   3.101   7.162   5.509 -0.2529 -1.0192 -0.4640
  323MOL    H1545739   2.952   7.128   5.601 -1.6305  2.2423  0.3555
  323MOL    C1645740   3.133   7.232   5.765  0.8165  0.4708 -0.0612
  323MOL    C1745741   3.190   7.337   5.869  0.4755  0.6664  0.4922
  323MOL    O1845742   3.228   7.294   5.997 -0.4292  0.1967  0.4226
  323MOL    H1945743   3.067   7.158   5.812  2.8890 -1.6593 -0.4304
  323MOL    H2045744   3.210   7.171   5.717  0.4636  1.5987 -2.1157
  323MOL    H2145745   3.109   7.405   5.895  0.5122  0.0634  2.2184
  323MOL    H2245746   3.273   7.385   5.819 -0.0706  1.1391  0.0284
  323MOL    C2345747   3.117   7.239   6.074 -0.4384  0.2701  0.3102
  323MOL    C2445748   3.027   7.340   6.144  0.1904  0.1738 -0.0144
  323MOL    O2545749   3.115   7.419   6.226  0.2991  0.0447 -0.5461
  323MOL    H2645750   3.062   7.166   6.015  1.3201 -1.1229  0.3379
  323MOL    H2745751   3.160   7.185   6.159  1.1044  1.6327  0.4265
  323MOL    H2845752   2.953   7.295   6.210  0.0162  1.2818  0.5758
  323MOL    H2945753   2.985   7.404   6.067  1.0526  1.8361  0.8577
  323MOL    C3045754   3.076   7.555   6.255  0.1991  0.2566  0.8091
  323MOL    C3145755   3.146   7.670   6.174  0.5507  1.0784  0.0972
  323MOL    O3245756   3.065   7.686   6.058  0.0759  0.0742 -0.0423
  323MOL    H3345757   2.967   7.553   6.255  0.1743  0.6502 -0.8570
  323MOL    H3445758   3.098   7.578   6.359  0.4879  0.5522  0.6840
  323MOL    H3545759   3.242   7.622   6.159 -0.5541 -1.0062 -0.4568
  323MOL    H3645760   3.147   7.754   6.243  3.8359 -0.6772  2.3059
  323MOL    C3745761   3.100   0.026   5.976  0.2589 -0.3287 -0.2503
  323MOL    C3845762   3.239   0.026   5.913  0.1099  1.1471 -0.1399
  323MOL    O3945763   3.272   7.676   5.849 -0.3297  1.3184  0.4964
  323MOL    H4045764   3.029   0.036   5.894  0.4475  0.9455 -0.2633
  323MOL    H4145765   3.102   0.118   6.035  1.2042 -0.4410 -0.0964
  323MOL    H4245766   3.310   0.056   5.990 -1.4355  0.5094  1.5662
  323MOL    H4345767   3.267   0.100   5.838  1.6736  0.1132 -0.5879
  323MOL    C4445768   3.191   7.647   5.735 -0.2672 -0.2479 -0.3768
  323MOL    C4545769   3.288   7.610   5.617  0.1186  0.3364  0.3836
  323MOL    O4645770   3.339   7.742   5.581 -1.2387  0.0490 -0.1840
  323MOL    H4745771   3.123   7.565   5.757  0.8052 -1.0737 -0.0688
  323MOL    H4845772   3.126   7.731   5.714 -0.3761 -0.0753  0.6375
  323MOL    H4945773   3.227   7.576   5.533  2.0122  1.2426 -1.4026
  323MOL    H5045774   3.366   7.539   5.646  0.9965  1.3727  0.5768
  323MOL    C5145775   3.431   7.741   5.476  0.2534 -0.2180 -0.1767
  323MOL    C5245776   3.370   7.729   5.332 -0.0205  0.7987 -0.1079
  323MOL    O5345777   3.315   0.079   5.295 -0.8564  0.1898  0.1722
  323MOL    H5445778   3.492   0.060   5.485 -1.0707  0.7026 -0.2752
  323MOL    H5545779   3.503   7.662   5.495 -0.8055 -0.7288  1.8021
  323MOL    H5645780   3.291   7.654   5.336  0.7943 -0.0515  0.2857
  323MOL    H5745781   3.455   7.701   5.269 -0.7600 -0.3552 -0.5887
  323MOL    C5845782   3.397   0.173   5.228 -0.3493 -0.5971  0.1676
  323MOL    C5945783   3.332   0.295   5.157 -0.1247  0.8302  0.2237
  323MOL    O6045784   3.287   0.243   5.030  0.1535 -0.3111 -0.1124
  323MOL    H6145785   3.477   0.208   5.293  0.3502 -0.4790 -0.7411
  323MOL    H6245786   3.460   0.119   5.157 -0.1594 -0.0994 -0.0457
  323MOL    H6345787   3.402   0.376   5.137  0.3195  0.2655 -0.5069
  323MOL    H6445788   3.255   0.347   5.215 -0.8751 -0.4970  0.4363
  323MOL    C6545789   3.163   0.170   5.039  0.5556  0.8320  0.4491
  323MOL    C6645790   3.100   0.172   4.903 -0.0484 -0.3019  0.1475
  323MOL    O6745791   3.151   0.075   4.812 -0.6223  0.0032  0.1341
  323MOL    H6845792   3.172   0.064   5.059  1.5690  1.0742  1.3349
  323MOL    H6945793   3.093   0.221   5.106 -1.5858 -2.6269  0.9632
  323MOL    H7045794   3.121   0.268   4.858  1.1927  0.0935  1.5408
  323MOL    H7145795   2.991   0.171   4.906 -0.0390  1.2524  1.7532
  323MOL    C7245796   3.118   0.095   4.677  1.0451 -0.4085  0.6866
  323MOL    C7345797   3.201   7.764   4.588  0.0645 -0.0784 -0.3064
  323MOL    O7445798   3.158   7.635   4.618  0.1488  0.1735 -0.6684
  323MOL    H7545799   3.010   0.081   4.673  0.9488  0.7362 -1.3579
  323MOL    H7645800   3.142   0.200   4.657 -1.1946 -0.1822 -1.0788
  323MOL    H7745801   3.309   0.003   4.591  0.0933 -0.6921  1.2210
  323MOL    H7845802   3.166   0.017   4.487  0.9564  2.8189  0.0317
  323MOL    C7945803   3.270   7.557   4.658  0.3572 -0.3405  1.3616
  323MOL    C8045804   3.232   7.413   4.700 -0.0130 -0.3979 -0.1009
  323MOL    O8145805   3.203   7.330   4.589 -0.0808 -0.4575  0.3523
  323MOL    H8245806   3.323   7.540   4.564 -1.0682  0.3856  0.4128
  323MOL    H8345807   3.333   7.612   4.728  1.5694  1.1647 -0.8354
  323MOL    H8445808   3.153   7.403   4.774 -0.0160 -1.5152 -0.2430
  323MOL    H8545809   3.323   7.373   4.745  0.6232 -1.2407 -2.0383
  323MOL    C8645810   3.184   7.198   4.606  0.6058 -0.4185 -0.7279
  323MOL    C8745811   3.304   7.129   4.547  0.3543 -0.3888 -0.5488
  323MOL    O8845812   3.416   7.124   4.644  0.8250 -0.0735 -0.2836
  323MOL    H8945813   3.159   7.166   4.707  1.6718  0.8549 -0.0396
  323MOL    H9045814   3.102   7.174   4.539  1.2799  0.3295 -1.8417
  323MOL    H9145815   3.327   7.174   4.450 -1.2139 -0.1531 -0.8292
  323MOL    H9245816   3.270   7.031   4.513 -0.1245 -0.4054 -0.0205
  323MOL    C9345817   3.531   7.203   4.609  0.2419  0.4559  0.3889
  323MOL    C9445818   3.599   7.132   4.495 -0.4392  0.0497 -0.2829
  323MOL    O9545819   3.607   7.218   4.380  0.3163 -0.5637  0.3865
  323MOL    H9645820   3.500   7.306   4.590 -0.7494  0.4620  1.9771
  323MOL    H9745821   3.592   7.219   4.698 -1.0916 -0.2883  1.4378
  323MOL    H9845822   3.545   7.038   4.486  0.0912 -0.2534 -0.2992
  323MOL    H9945823   3.704   7.113   4.516  0.2474  1.7324 -2.0105
  323MOL   C10045824   3.666   7.150   4.270 -0.5291  0.3509  0.4251
  323MOL   C10145825   3.678   7.253   4.153 -0.2546  0.1630  0.3904
  323MOL   O10245826   3.571   7.224   4.066  0.1082 -0.6487 -0.5609
  323MOL   H10345827   3.764   7.108   4.291 -0.5646 -0.0312 -0.1344
  323MOL   H10445828   3.611   7.063   4.232  1.5985 -0.8768  0.0929
  323MOL   H10545829   3.773   7.235   4.103 -0.9162  1.0269 -1.1987
  323MOL   H10645830   3.676   7.358   4.180 -1.2521  0.5924 -1.3445
  323MOL   C10745831   3.564   7.311   3.951 -1.0148 -0.8495  0.3817
  323MOL   C10845832   3.419   7.310   3.884  0.0822  0.3729  0.4556
  323MOL   O10945833   3.391   7.218   3.780  0.0544  0.3493 -0.1103
  323MOL   H11045834   3.588   7.410   3.989 -1.6256 -0.8298  0.7137
  323MOL   H11145835   3.641   7.284   3.878  1.1434  2.1933  1.4199
  323MOL   H11245836   3.399   7.415   3.860  0.6564  0.5340  0.6842
  323MOL   H11345837   3.346   7.290   3.963  0.6859 -2.0691  0.4082
  323MOL   C11445838   3.404   7.084   3.801 -0.0315  0.4494 -0.2630
  323MOL   C11545839   3.404   7.019   3.665  0.0083 -0.2475 -0.5337
  323MOL   O11645840   3.518   7.040   3.587  0.3301 -0.2431  0.0770
  323MOL   H11745841   3.490   7.050   3.858 -0.0627 -0.9204 -0.9944
  323MOL   H11845842   3.316   7.055   3.859 -0.9291  0.3472 -1.6217
  323MOL   H11945843   3.317   7.060   3.613  0.2756  1.7034  0.5422
  323MOL   H12045844   3.386   6.912   3.676  1.5279 -0.5543 -0.8855
  323MOL   C12145845   3.495   7.068   3.445  0.1085 -0.1695 -0.5262
  323MOL   C12245846   3.464   6.941   3.382  0.0851  0.6024  0.0461
  323MOL   O12345847   3.329   6.913   3.410 -0.2442 -0.5253 -0.3213
  323MOL   H12445848   3.420   7.144   3.421 -0.6481 -1.0196 -0.9072
  323MOL   H12545849   3.585   7.103   3.395 -0.8489  0.9344 -1.5151
  323MOL   H12645850   3.539   6.872   3.422 -0.7167 -0.8813 -0.9614
  323MOL   H12745851   3.477   6.953   3.275 -1.4574  0.5238 -0.1604
  323MOL   C12845852   3.277   6.800   3.343 -0.3747 -0.2822  0.3787
  323MOL   C12945853   3.151   6.741   3.397  0.4362 -0.0357 -0.5989
  323MOL   O13045854   3.041   6.817   3.345 -0.4558  0.0588  0.0355
  323MOL   H13145855   3.267   6.815   3.235 -0.2178  1.0651  0.5378
  323MOL   H13245856   3.351   6.720   3.352  0.0786  0.1350  0.4069
  323MOL   H13345857   3.161   6.744   3.506 -0.0794 -0.0555 -0.5530
  323MOL   H13445858   3.136   6.638   3.366 -2.7605 -0.0709  0.8676
  323MOL   C13545859   2.916   6.758   3.371  0.1623  0.0975 -0.8055
  323MOL   C13645860   2.810   6.838   3.296 -0.5831 -0.8036 -0.3835
  323MOL   O13745861   2.801   6.813   3.163 -0.0270 -0.3873  0.2827
  323MOL   H13845862   2.921   6.653   3.342 -0.6833 -0.2181  0.1547
  323MOL   H13945863   2.904   6.764   3.479  1.2489  1.0254 -0.7263
  323MOL   H14045864   2.854   6.938   3.307  1.0026 -1.5893  0.6373
  323MOL   H14145865   2.715   6.851   3.347  1.0572  0.0416  2.6123
  323MOL   H14245866   2.880   6.845   3.122 -0.9696  0.5296 -0.8313
  324MOL     C145867   6.511   0.496   1.067 -0.2953  0.7119  0.6858
  324MOL     C245868   6.552   0.537   0.921  0.0110  0.1887  0.0482
  324MOL     O345869   6.690   0.557   0.912  0.6349  0.1049  0.1896
  324MOL     H445870   6.545   0.570   1.139  4.3730 -0.9157  0.3722
  324MOL     H545871   6.543   0.394   1.090 -0.8216  0.6158  0.9834
  324MOL     H645872   6.488   0.624   0.904  0.7319  0.4630 -1.3392
  324MOL     H745873   6.526   0.460   0.848 -0.9469  1.0121 -0.4878
  324MOL     H845874   6.402   0.495   1.072 -0.3579 -0.4498 -0.4741
  324MOL     C945875   6.737   0.648   0.815  0.3804  0.7315 -0.0773
  324MOL    C1045876   6.890   0.645   0.812 -0.7672  0.1098  0.2503
  324MOL    O1145877   6.953   0.518   0.780  0.4718  0.3116  0.2780
  324MOL    H1245878   6.706   0.606   0.720  0.2894  0.3076  0.1395
  324MOL    H1345879   6.700   0.749   0.829  0.7979  1.0162 -1.0011
  324MOL    H1445880   6.949   0.695   0.888  0.0303 -0.8128  0.2445
  324MOL    H1545881   6.911   0.711   0.728  0.1087 -0.4663  0.0147
  324MOL    C1645882   7.092   0.523   0.778  0.0862 -0.3483 -0.2172
  324MOL    C1745883   7.153   0.605   0.664 -0.3570 -0.3065  0.5501
  324MOL    O1845884   7.154   0.737   0.705 -0.2296 -0.2134 -0.0111
  324MOL    H1945885   7.130   0.560   0.873 -1.8119  2.0006 -0.3426
  324MOL    H2045886   7.136   0.423   0.778  1.4359  0.2242 -1.2291
  324MOL    H2145887   7.096   0.593   0.572 -1.8186 -0.3367  1.4383
  324MOL    H2245888   7.252   0.562   0.651 -0.1810  0.6034 -1.2129
  324MOL    C2345889   7.240   0.829   0.636 -0.0232  0.4791  0.6838
  324MOL    C2445890   7.194   0.849   0.486  0.6615 -0.4233  0.7968
  324MOL    O2545891   7.057   0.896   0.496  0.0544  0.0298 -0.6977
  324MOL    H2645892   7.249   0.923   0.690  1.3429  0.3395  0.7159
  324MOL    H2745893   7.338   0.781   0.644 -0.0621 -0.1765 -2.3609
  324MOL    H2845894   7.201   0.758   0.426  1.5736 -0.2523  0.6421
  324MOL    H2945895   7.264   0.918   0.440  2.1185 -1.4056  1.4905
  324MOL    C3045896   7.019   0.949   0.368 -0.8273  0.3561  0.0839
  324MOL    C3145897   6.881   1.005   0.381  0.1081  0.2646  0.3080
  324MOL    O3245898   6.837   1.066   0.257 -0.0626 -0.5063 -0.3261
  324MOL    H3345899   7.085   1.027   0.328  1.3713 -1.9281 -0.8495
  324MOL    H3445900   7.019   0.875   0.288  0.8407 -0.0797  0.4864
  324MOL    H3545901   6.892   1.084   0.455  1.1420 -0.4390  0.9010
  324MOL    H3645902   6.809   0.930   0.415  0.4241 -0.7210 -1.1273
  324MOL    C3745903   6.722   1.147   0.279 -0.3475 -0.3126  0.0414
  324MOL    C3845904   6.772   1.288   0.317  0.2277 -0.3291 -0.3649
  324MOL    O3945905   6.669   1.386   0.303 -0.5700  0.5543  0.2049
  324MOL    H4045906   6.684   1.152   0.177 -1.4030  0.6751  0.4783
  324MOL    H4145907   6.655   1.100   0.351  0.5194 -0.8357  0.5189
  324MOL    H4245908   6.845   1.316   0.241  0.2846  0.4425 -0.0384
  324MOL    H4345909   6.822   1.297   0.414  0.4294 -0.6166 -0.4440
  324MOL    C4445910   6.678   1.511   0.374 -0.2680  0.2293  0.0356
  324MOL    C4545911   6.792   1.597   0.328 -0.2111  0.2830  0.6415
  324MOL    O4645912   6.772   1.670   0.212 -0.9017  0.2726 -0.1789
  324MOL    H4745913   6.581   1.559   0.362 -1.2265 -1.7512 -0.4245
  324MOL    H4845914   6.684   1.497   0.482 -1.4976  0.6787  0.1617
  324MOL    H4945915   6.885   1.542   0.316 -1.7066 -1.8414 -1.7637
  324MOL    H5045916   6.810   1.671   0.406  1.0011  1.5028 -0.7947
  324MOL    C5145917   6.795   1.584   0.103  0.4349 -0.2316 -0.5795
  324MOL    C5245918   6.836   1.669   7.757  0.7207 -0.0169 -0.6396
  324MOL    O5345919   6.940   1.751   0.030  0.0097  0.0673  0.1955
  324MOL    H5445920   6.874   1.510   0.119  1.7651  1.5463  1.2233
  324MOL    H5545921   6.702   1.531   0.086  0.6837 -1.1036  0.7269
  324MOL    H5645922   6.746   1.719   7.723  0.1348 -1.1503 -0.7939
  324MOL    H5745923   6.863   1.611   7.668  0.0643 -0.6629 -0.4281
  324MOL    C5845924   6.916   1.886   0.030 -0.3264 -0.1226 -0.5274
  324MOL    C5945925   6.937   1.951   7.664  0.4539 -0.0297  0.6954
  324MOL    O6045926   6.829   1.922   7.584 -0.2110 -0.1450  0.2684
  324MOL    H6145927   6.823   1.913   0.080  1.2693  0.5720  2.1433
  324MOL    H6245928   6.994   1.928   0.092 -0.1665  0.3305 -1.0340
  324MOL    H6345929   7.022   1.908   7.612 -0.0344 -0.4020  0.2059
  324MOL    H6445930   6.944   2.059   7.678 -2.5818  0.1754  0.9444
  324MOL    C6545931   6.823   2.005   7.463 -1.1673  0.2892  0.2844
  324MOL    C6645932   6.695   1.954   7.399  0.4272  0.2278  0.1887
  324MOL    O6745933   6.711   1.838   7.317  0.0538  0.4527 -0.2410
  324MOL    H6845934   6.821   2.112   7.486 -0.0870  0.2601  0.5667
  324MOL    H6945935   6.906   1.998   7.392 -0.7575  0.3723  0.7521
  324MOL    H7045936   6.671   2.027   7.322 -0.1824 -2.2190 -2.0370
  324MOL    H7145937   6.612   1.953   7.470 -0.0098  2.2706 -0.2704
  324MOL    C7245938   6.772   1.732   7.393  0.6460  0.8990  1.0030
  324MOL    C7345939   6.758   1.606   7.306  0.1339  0.1204 -0.3213
  324MOL    O7445940   6.622   1.551   7.300  0.3291  0.3367  0.0847
  324MOL    H7545941   6.877   1.753   7.416  1.0273 -0.9566  1.0525
  324MOL    H7645942   6.729   1.705   7.489  1.9296 -0.3626  1.2469
  324MOL    H7745943   6.819   1.526   7.348 -1.8101 -0.3780  1.7180
  324MOL    H7845944   6.787   1.626   7.203 -0.3939 -1.4678 -0.7980
  324MOL    C7945945   6.528   1.632   7.226  0.0215  0.0446 -0.2257
  324MOL    C8045946   6.413   1.548   7.156  0.1766  0.9741 -0.4093
  324MOL    O8145947   6.463   1.436   7.083  0.5382 -0.2504 -0.3732
  324MOL    H8245948   6.496   1.712   7.293 -0.1139  0.0368 -0.2806
  324MOL    H8345949   6.578   1.686   7.145 -2.0581  0.0172 -1.5455
  324MOL    H8445950   6.365   1.622   7.091 -0.4107 -0.0551 -1.1606
  324MOL    H8545951   6.326   1.526   7.217  0.4693  0.8727 -0.0309
  324MOL    C8645952   6.462   1.316   7.157 -0.0590 -0.2498  0.3957
  324MOL    C8745953   6.491   1.195   7.063  0.0464  0.5791  0.8132
  324MOL    O8845954   6.373   1.146   7.011  0.2052 -0.3878  0.8235
  324MOL    H8945955   6.536   1.328   7.237  0.8874 -0.2227 -0.4768
  324MOL    H9045956   6.366   1.289   7.201 -0.3908  1.4582  0.7714
  324MOL    H9145957   6.545   1.117   7.117  0.3746  2.7721  3.7584
  324MOL    H9245958   6.550   1.226   6.977  3.6266 -0.5379  2.7460
  324MOL    C9345959   6.402   1.029   6.932  0.0977 -0.8855 -0.1410
  324MOL    C9445960   6.262   0.975   6.893  0.2391 -0.1306 -0.4558
  324MOL    O9545961   6.267   0.851   6.838  0.0294 -0.1519 -0.4823
  324MOL    H9645962   6.467   1.048   6.847  1.8824  1.4426  1.6671
  324MOL    H9745963   6.451   0.953   6.994 -0.1225 -0.4381  0.5931
  324MOL    H9845964   6.238   1.051   6.819 -0.6902 -0.9327 -0.9949
  324MOL    H9945965   6.191   0.982   6.976  1.9434  1.4865  0.8941
  324MOL   C10045966   6.135   0.803   6.808 -0.3258  0.0429 -0.3530
  324MOL   C10145967   6.153   0.654   6.763  0.5146 -0.6574  0.4991
  324MOL   O10245968   6.214   0.660   6.636  0.4179 -0.0828  0.0872
  324MOL   H10345969   6.071   0.802   6.897  3.3792 -0.7986  2.4378
  324MOL   H10445970   6.087   0.865   6.732 -0.8301  0.9661  0.6945
  324MOL   H10545971   6.054   0.607   6.764  0.0197  0.3751  2.3386
  324MOL   H10645972   6.212   0.596   6.834  1.5265  0.0068  0.2107
  324MOL   C10745973   6.209   0.539   6.576 -0.4509  0.4470 -0.3268
  324MOL   C10845974   6.289   0.550   6.450  0.2163  0.4662  0.0063
  324MOL   O10945975   6.204   0.631   6.365  0.1298 -0.4071  0.6270
  324MOL   H11045976   6.245   0.460   6.642  0.0509  1.0583  0.1323
  324MOL   H11145977   6.104   0.511   6.566 -0.7463 -0.0706  3.3910
  324MOL   H11245978   6.298   0.450   6.406  1.2624 -0.3203  1.9270
  324MOL   H11345979   6.388   0.588   6.473  0.8491 -2.1235  1.8342
  324MOL   C11445980   6.250   0.626   6.232  0.5163 -0.4421 -0.5753
  324MOL   C11545981   6.169   0.732   6.164  0.1254  0.4926  0.2456
  324MOL   O11645982   6.210   0.737   6.033 -0.1266 -0.4262  0.0842
  324MOL   H11745983   6.355   0.653   6.235 -0.3041  2.8125  3.2699
  324MOL   H11845984   6.244   0.528   6.184  2.4264 -1.4088  1.0997
  324MOL   H11945985   6.178   0.831   6.208 -1.6759  0.5395  0.5502
  324MOL   H12045986   6.065   0.706   6.183  0.1986 -0.1857 -0.2626
  324MOL   C12145987   6.127   0.822   5.961  0.0633 -0.0037  0.1282
  324MOL   C12245988   6.157   0.789   5.816 -0.0120 -0.1229  0.1813
  324MOL   O12345989   6.083   0.667   5.796 -0.0898 -0.2907  0.0088
  324MOL   H12445990   6.022   0.802   5.983  0.7790 -3.5997  0.5232
  324MOL   H12545991   6.161   0.923   5.987  3.0308 -0.1505 -2.7922
  324MOL   H12645992   6.264   0.767   5.811  0.2709  1.3095 -0.2862
  324MOL   H12745993   6.144   0.877   5.753 -1.0029  0.3155  0.9826
  324MOL   C12845994   6.063   0.636   5.662  0.3715 -0.1884  0.5814
  324MOL   C12945995   5.967   0.720   5.581 -0.8877 -0.2795 -0.2085
  324MOL   O13045996   5.941   0.669   5.450 -0.1888 -0.6431 -0.0736
  324MOL   H13145997   6.159   0.642   5.611  0.1615 -1.2086  0.0585
  324MOL   H13245998   6.027   0.533   5.664 -0.9116  0.2495  0.7190
  324MOL   H13345999   5.991   0.826   5.575 -2.4690  0.1090  0.2903
  324MOL   H13446000   5.869   0.724   5.628 -0.1699 -1.2033  1.4242
  324MOL   C13546001   6.055   0.667   5.368  0.3152 -0.1540 -0.1002
  324MOL   C13646002   6.010   0.588   5.242 -0.4062  0.0235 -0.4039
  324MOL   O13746003   6.042   0.456   5.268 -0.2945 -0.2959  0.0997
  324MOL   H13846004   6.078   0.770   5.342  2.3468  0.0423  2.2151
  324MOL   H13946005   6.146   0.624   5.411  2.0124  2.2016 -1.2307
  324MOL   H14046006   6.060   0.613   5.149 -0.2140  3.2769  0.5045
  324MOL   H14146007   5.901   0.593   5.235 -0.7852 -2.1234  2.4961
  324MOL   H14246008   6.000   0.424   5.346 -1.2524 -0.9266 -0.6721
  325MOL     C146009   3.463   3.951   6.725  0.2959  0.1740  0.6678
  325MOL     C246010   3.566   3.843   6.755  0.2608 -0.0135 -0.0568
  325MOL     O346011   3.688   3.908   6.768  0.2029  0.3937  0.1314
  325MOL     H446012   3.366   3.906   6.707  0.1488  0.2738  1.1945
  325MOL     H546013   3.488   4.022   6.646  0.7445  0.8563  1.4032
  325MOL     H646014   3.570   3.782   6.664 -0.4013 -1.0517  0.5938
  325MOL     H746015   3.545   3.778   6.840  1.8356  0.4311  0.6930
  325MOL     H846016   3.447   4.009   6.816  1.3167  1.5924 -0.0279
  325MOL     C946017   3.789   3.830   6.833 -0.4108 -0.0196 -0.4100
  325MOL    C1046018   3.930   3.892   6.841  0.0646  0.1393 -0.9087
  325MOL    O1146019   3.989   3.905   6.715 -0.4087 -0.6120 -0.7023
  325MOL    H1246020   3.743   3.823   6.931  1.2687 -1.7871  0.2761
  325MOL    H1346021   3.804   3.728   6.797  0.5409  0.2158 -0.6816
  325MOL    H1446022   3.999   3.834   6.901  1.7614 -0.0353 -2.9692
  325MOL    H1546023   3.910   3.984   6.896 -0.4174 -0.5401  0.0641
  325MOL    C1646024   4.122   3.951   6.726 -0.2202  0.8003 -0.3782
  325MOL    C1746025   4.194   3.961   6.585 -0.0410  0.7066 -0.7091
  325MOL    O1846026   4.250   3.837   6.544 -0.2656  0.2557  0.0744
  325MOL    H1946027   4.137   4.040   6.788 -2.8377  1.8460 -1.1607
  325MOL    H2046028   4.178   3.876   6.781  0.1496  1.6658  0.4552
  325MOL    H2146029   4.274   4.032   6.606 -0.7569  0.7693  2.0340
  325MOL    H2246030   4.124   4.005   6.513 -2.2967  0.4794  1.2725
  325MOL    C2346031   4.156   3.740   6.492 -0.6628 -0.0447 -0.1575
  325MOL    C2446032   4.231   3.644   6.407  0.6905 -0.0326  0.4564
  325MOL    O2546033   4.278   3.534   6.485 -0.0696  0.7182 -0.3621
  325MOL    H2646034   4.096   3.685   6.564 -0.2537 -0.1054  0.1380
  325MOL    H2746035   4.089   3.795   6.427  0.5005 -0.1683 -1.4951
  325MOL    H2846036   4.311   3.693   6.350  0.3178 -0.6541 -0.6167
  325MOL    H2946037   4.159   3.588   6.347  0.3878 -0.6069  1.3336
  325MOL    C3046038   4.391   3.564   6.582  0.0866  0.3171  0.4777
  325MOL    C3146039   4.428   3.437   6.659  0.1359  0.2681 -0.4308
  325MOL    O3246040   4.526   3.360   6.589  0.2508  0.2220 -0.0969
  325MOL    H3346041   4.482   3.609   6.543  2.0685 -2.4698  1.7381
  325MOL    H3446042   4.347   3.638   6.649 -2.2519 -0.8492  0.2676
  325MOL    H3546043   4.347   3.370   6.690  0.5787  0.0792  0.3245
  325MOL    H3646044   4.484   3.452   6.751  1.3196  1.1757 -1.2871
  325MOL    C3746045   4.482   3.300   6.468 -0.3180  0.1028  0.9028
  325MOL    C3846046   4.595   3.213   6.430 -0.2593 -0.2324  0.0876
  325MOL    O3946047   4.546   3.123   6.327 -0.2534 -0.3228 -0.0059
  325MOL    H4046048   4.390   3.242   6.482  0.9379 -2.0583  0.4953
  325MOL    H4146049   4.462   3.372   6.390 -0.4195  1.1070  1.8440
  325MOL    H4246050   4.641   3.162   6.515  0.8266 -2.8873 -2.0105
  325MOL    H4346051   4.677   3.263   6.379  2.1061  0.1127  3.9733
  325MOL    C4446052   4.616   3.004   6.316 -1.2504  0.3908 -0.2201
  325MOL    C4546053   4.524   2.904   6.255  0.1639  0.4270 -0.4035
  325MOL    O4646054   4.521   2.906   6.111 -0.3348  0.3101 -0.0488
  325MOL    H4746055   4.701   3.013   6.248 -0.0925  0.0820  1.1568
  325MOL    H4846056   4.649   2.973   6.415  1.3568  3.2016 -0.1281
  325MOL    H4946057   4.432   2.917   6.312  0.7334  0.1730  0.5773
  325MOL    H5046058   4.557   2.805   6.285 -0.3795  0.2121 -0.5096
  325MOL    C5146059   4.457   2.791   6.063 -0.0299  0.5376  0.0909
  325MOL    C5246060   4.566   2.690   6.020  0.3620 -0.3664 -0.5192
  325MOL    O5346061   4.599   2.609   6.132 -0.0549  0.1478  0.0291
  325MOL    H5446062   4.381   2.750   6.130 -1.2528  4.0621  1.0091
  325MOL    H5546063   4.412   2.817   5.967  0.2229 -1.8773 -0.7152
  325MOL    H5646064   4.651   2.748   5.987  0.4251 -0.0095  0.2625
  325MOL    H5746065   4.528   2.628   5.939  2.2388 -0.8385 -1.0509
  325MOL    C5846066   4.709   2.532   6.111  0.4465  0.7561 -0.6115
  325MOL    C5946067   4.755   2.482   6.249 -0.8437 -0.9620 -0.3142
  325MOL    O6046068   4.686   2.364   6.288  0.0841  0.7522 -0.1386
  325MOL    H6146069   4.705   2.449   6.040  0.4341 -0.4326  0.7482
  325MOL    H6246070   4.787   2.599   6.075  1.0677  0.0474 -0.5924
  325MOL    H6346071   4.733   2.565   6.316  2.5859  1.2664 -1.8515
  325MOL    H6446072   4.857   2.449   6.269 -0.5257 -0.3865 -0.9658
  325MOL    C6546073   4.699   2.331   6.426  0.7034 -0.1598 -0.7740
  325MOL    C6646074   4.626   2.430   6.520  0.0841 -0.3180  0.6630
  325MOL    O6746075   4.550   2.362   6.614 -0.7956  0.5567  0.4821
  325MOL    H6846076   4.666   2.229   6.448  0.1734 -0.0663 -1.1213
  325MOL    H6946077   4.803   2.327   6.456 -0.1990 -2.5546  2.2573
  325MOL    H7046078   4.551   2.483   6.462 -2.1759 -2.8160  1.1724
  325MOL    H7146079   4.699   2.498   6.563  0.7858 -1.3382  1.1000
  325MOL    C7246080   4.572   2.412   6.753 -0.4811  0.0295  0.2317
  325MOL    C7346081   4.491   2.537   6.787 -0.7823 -0.5330 -0.3774
  325MOL    O7446082   4.460   2.548   6.926 -0.2814  0.3396  0.7768
  325MOL    H7546083   4.548   2.330   6.820 -0.1899  0.2948  0.6638
  325MOL    H7646084   4.676   2.435   6.777 -0.8515  2.2209 -0.1426
  325MOL    H7746085   4.392   2.529   6.742 -1.6740 -2.1485  1.7494
  325MOL    H7846086   4.531   2.623   6.735 -0.9454  0.9080  1.8173
  325MOL    C7946087   4.436   2.682   6.965 -0.1264  0.9994  0.8010
  325MOL    C8046088   4.411   2.705   7.113 -0.2497  0.4184  0.4972
  325MOL    O8146089   4.524   2.695   7.197 -0.7211 -0.3177  0.3178
  325MOL    H8246090   4.523   2.740   6.935  3.5514 -3.5937  1.8967
  325MOL    H8346091   4.354   2.719   6.904 -1.9130 -2.2262  1.1051
  325MOL    H8446092   4.338   2.631   7.146 -0.0142  0.0612  0.2177
  325MOL    H8546093   4.371   2.804   7.134 -1.7041  0.3155 -1.6469
  325MOL    C8646094   4.603   2.808   7.211 -0.7596 -0.0554  0.5079
  325MOL    C8746095   4.716   2.788   7.309 -0.0425 -0.1169  0.1365
  325MOL    O8846096   4.813   2.720   7.237  0.3787  0.3719 -0.2759
  325MOL    H8946097   4.660   2.838   7.123 -0.3446 -0.2215  0.7133
  325MOL    H9046098   4.546   2.896   7.241 -0.6344  0.3571 -0.4448
  325MOL    H9146099   4.683   2.739   7.401 -0.3670 -1.1038 -0.4923
  325MOL    H9246100   4.752   2.883   7.347 -0.2308  0.3914 -0.9357
  325MOL    C9346101   4.936   2.724   7.299 -0.9715  0.1203  0.4922
  325MOL    C9446102   5.044   2.664   7.209 -0.3117  0.1762 -0.4717
  325MOL    O9546103   5.051   2.732   7.089 -0.6576 -0.1080 -0.5121
  325MOL    H9646104   4.974   2.823   7.325  2.6010 -1.0661  0.0930
  325MOL    H9746105   4.932   2.665   7.391 -1.8329 -1.6984 -0.6925
  325MOL    H9846106   5.016   2.560   7.189  2.5396 -0.5105 -1.1936
  325MOL    H9946107   5.138   2.667   7.265  0.6454  0.9641 -2.0851
  325MOL   C10046108   5.121   2.680   6.980  0.3629 -0.1284 -0.8874
  325MOL   C10146109   5.028   2.602   6.890  0.1207  0.1156  0.1888
  325MOL   O10246110   4.957   2.685   6.807  0.6951 -0.2939 -0.4943
  325MOL   H10346111   5.156   2.762   6.917  0.5140 -0.2169 -0.9181
  325MOL   H10446112   5.208   2.623   7.013 -0.2141 -0.0506  0.8322
  325MOL   H10546113   4.968   2.528   6.944  2.3027  0.1000  2.6924
  325MOL   H10646114   5.085   2.535   6.825 -1.3905 -0.0976 -0.9685
  325MOL   C10746115   4.847   2.751   6.872  0.2966  0.4010  0.2114
  325MOL   C10846116   4.764   2.809   6.745  0.3424 -0.4306 -0.7537
  325MOL   O10946117   4.669   2.889   6.804  0.4586  0.1658 -0.1213
  325MOL   H11046118   4.784   2.690   6.937 -0.1002 -0.2849 -0.7936
  325MOL   H11146119   4.888   2.833   6.932 -0.8848 -0.4897  2.2755
  325MOL   H11246120   4.711   2.733   6.689 -1.5171  0.2487  0.0462
  325MOL   H11346121   4.824   2.873   6.679 -0.6347  0.7198 -0.5477
  325MOL   C11446122   4.586   2.956   6.718  0.1403  0.6606  0.0840
  325MOL   C11546123   4.510   3.066   6.796  0.3046  0.0378 -0.3214
  325MOL   O11646124   4.415   2.996   6.875 -0.5705 -0.8179 -0.5570
  325MOL   H11746125   4.646   3.002   6.640  1.3986 -1.0598  0.0174
  325MOL   H11846126   4.525   2.887   6.659  0.2290  1.4303 -0.9258
  325MOL   H11946127   4.448   3.122   6.725 -0.3472 -1.6911 -1.1274
  325MOL   H12046128   4.588   3.119   6.851  0.2701 -0.6439  0.3811
  325MOL   C12146129   4.322   3.083   6.939 -0.4190  0.0965 -0.2734
  325MOL   C12246130   4.381   3.168   7.048  0.7761 -0.0320 -0.3864
  325MOL   O12346131   4.445   3.277   6.978  1.0081 -0.3743  0.0033
  325MOL   H12446132   4.271   3.148   6.869  2.3385  2.4158 -0.2199
  325MOL   H12546133   4.245   3.017   6.980 -0.3120 -1.6664 -2.7813
  325MOL   H12646134   4.463   3.117   7.100  1.5885  2.0116  0.3782
  325MOL   H12746135   4.315   3.211   7.123  1.8035  0.1052  0.4489
  325MOL   C12846136   4.517   3.361   7.068  0.8352 -0.6772  0.0066
  325MOL   C12946137   4.625   3.455   6.999  0.1066  0.1992 -0.0701
  325MOL   O13046138   4.731   3.384   6.935 -0.0222  0.3553 -0.1035
  325MOL   H13146139   4.442   3.420   7.120  1.0282 -1.1113  0.7840
  325MOL   H13246140   4.569   3.301   7.143  0.8119  0.8880  1.3177
  325MOL   H13346141   4.676   3.507   7.081 -1.7216 -1.0520  1.9295
  325MOL   H13446142   4.570   3.531   6.944 -0.7513  1.5023  2.5037
  325MOL   C13546143   4.796   3.465   6.840  0.5072 -0.1902 -0.9428
  325MOL   C13646144   4.885   3.364   6.771  0.6572 -0.3597 -1.0746
  325MOL   O13746145   4.809   3.276   6.702 -0.0862  0.2748 -0.8208
  325MOL   H13846146   4.721   3.511   6.775 -1.2609 -0.5897  0.7593
  325MOL   H13946147   4.839   3.552   6.890 -1.5165  1.2235 -1.5890
  325MOL   H14046148   4.953   3.320   6.844 -1.4793 -1.1414  0.5076
  325MOL   H14146149   4.947   3.413   6.696 -0.2330  1.2984 -0.7653
  325MOL   H14246150   4.744   3.240   6.761 -0.7959  0.6172 -1.3835
  326MOL     C146151   5.711   4.511   1.921  0.2320 -0.6323 -0.0136
  326MOL     C246152   5.698   4.435   2.052 -0.1382 -0.6193 -0.1253
  326MOL     O346153   5.591   4.487   2.136  0.1282  0.1819  0.0601
  326MOL     H446154   5.801   4.497   1.861 -0.1097 -0.3243 -0.6093
  326MOL     H546155   5.708   4.617   1.947  0.9835 -0.4213 -0.7400
  326MOL     H646156   5.792   4.435   2.108  0.1117  0.7260 -0.5210
  326MOL     H746157   5.671   4.333   2.028  0.3020 -0.7902  0.1121
  326MOL     H846158   5.615   4.502   1.872  0.8453 -1.4852 -1.0776
  326MOL     C946159   5.581   4.406   2.252  0.4431  0.0332 -0.1467
  326MOL    C1046160   5.467   4.459   2.336  0.0022  0.2195  0.6374
  326MOL    O1146161   5.491   4.601   2.354  0.0625 -0.0980  0.6650
  326MOL    H1246162   5.574   4.299   2.236  1.7013  0.1155 -1.3729
  326MOL    H1346163   5.680   4.425   2.295 -0.1563  1.3481  0.6736
  326MOL    H1446164   5.468   4.411   2.434  1.6912 -0.0913  0.4834
  326MOL    H1546165   5.369   4.445   2.290  0.3812  1.5353 -0.6384
  326MOL    C1646166   5.403   4.675   2.443 -0.3772  0.2712 -0.1750
  326MOL    C1746167   5.446   4.822   2.454  0.5539 -0.5153 -0.0674
  326MOL    O1846168   5.397   4.900   2.558  0.3292  0.6423  0.4226
  326MOL    H1946169   5.302   4.665   2.404  0.0867  0.1400 -1.3609
  326MOL    H2046170   5.412   4.633   2.543  0.6426  2.3121  0.6067
  326MOL    H2146171   5.440   4.871   2.357  2.3192 -0.6162 -0.2501
  326MOL    H2246172   5.553   4.812   2.473  0.5870 -0.7607 -0.3802
  326MOL    C2346173   5.264   4.935   2.542  0.8894  0.6610 -0.4289
  326MOL    C2446174   5.213   5.005   2.671  0.4796  0.2219 -0.1342
  326MOL    O2546175   5.173   4.910   2.760  0.3328 -0.2633  0.0372
  326MOL    H2646176   5.255   5.007   2.461  0.4316  0.1753 -0.8126
  326MOL    H2746177   5.204   4.845   2.532 -0.9576  1.5398  2.1262
  326MOL    H2846178   5.130   5.073   2.655  0.7713  0.8902  1.1691
  326MOL    H2946179   5.288   5.077   2.705 -0.0143  0.2073  0.9752
  326MOL    C3046180   5.278   4.886   2.851 -0.1455  0.6763 -0.2923
  326MOL    C3146181   5.262   4.776   2.952 -0.1199 -0.1990 -0.6746
  326MOL    O3246182   5.326   4.657   2.910 -0.1462  0.2707  0.3625
  326MOL    H3346183   5.374   4.895   2.802 -0.3161  0.8926 -0.5869
  326MOL    H3446184   5.275   4.978   2.911 -0.3224  0.3521  0.2012
  326MOL    H3546185   5.157   4.762   2.976 -0.3085  1.0215 -0.7390
  326MOL    H3646186   5.299   4.811   3.049 -0.1188 -1.4590 -0.2138
  326MOL    C3746187   5.351   4.556   3.011  0.7059  0.1263 -0.0200
  326MOL    C3846188   5.359   4.425   2.924  0.7806  0.0092  0.0342
  326MOL    O3946189   5.488   4.411   2.874 -0.5504  0.2830  0.2095
  326MOL    H4046190   5.446   4.570   3.064  1.0840  2.0471 -1.1356
  326MOL    H4146191   5.263   4.545   3.074  0.6247  2.0546  0.2493
  326MOL    H4246192   5.276   4.442   2.855 -0.3429  1.5638  1.7380
  326MOL    H4346193   5.347   4.342   2.993 -0.3014  0.5430  0.5082
  326MOL    C4446194   5.499   4.449   2.737 -0.4021  0.6904  0.8626
  326MOL    C4546195   5.640   4.409   2.685 -0.0067  0.5727  0.2145
  326MOL    O4646196   5.659   4.273   2.676 -0.3277  0.0749 -0.1391
  326MOL    H4746197   5.423   4.390   2.685 -0.4537  0.0625  1.6362
  326MOL    H4846198   5.484   4.556   2.734  2.8328  1.1983  0.6018
  326MOL    H4946199   5.715   4.459   2.746 -1.4390  3.1072 -0.0192
  326MOL    H5046200   5.642   4.443   2.581 -1.2420  2.2918  0.7260
  326MOL    C5146201   5.783   4.252   2.602 -0.6384 -0.3465 -0.6608
  326MOL    C5246202   5.809   4.102   2.593 -1.1458  0.1672  0.1173
  326MOL    O5346203   5.735   4.042   2.487 -0.4783 -0.5589 -0.3366
  326MOL    H5446204   5.789   4.309   2.510 -0.9011  1.6530  0.5224
  326MOL    H5546205   5.863   4.308   2.652 -1.0892  0.3548 -0.7182
  326MOL    H5646206   5.790   4.045   2.684  3.2506 -0.2677  0.8612
  326MOL    H5746207   5.913   4.078   2.572 -0.5649  1.7443  1.0594
  326MOL    C5846208   5.601   4.008   2.528 -0.4326 -0.2359  0.0931
  326MOL    C5946209   5.548   3.951   2.397  0.2961  0.4431  0.4667
  326MOL    O6046210   5.477   4.058   2.335  0.1461 -0.4785 -0.0184
  326MOL    H6146211   5.588   3.925   2.597 -2.2730  0.9904  1.2440
  326MOL    H6246212   5.549   4.098   2.560 -0.2508 -0.5595  1.3326
  326MOL    H6346213   5.474   3.877   2.429  0.1921  0.5160  0.3946
  326MOL    H6446214   5.624   3.903   2.336  0.0292 -1.1288  1.3363
  326MOL    C6546215   5.404   4.021   2.223 -0.3076  0.3775  0.3096
  326MOL    C6646216   5.332   4.133   2.150 -0.0625  0.7794 -0.0342
  326MOL    O6746217   5.214   4.177   2.216  0.8630 -0.2627 -0.3029
  326MOL    H6846218   5.472   3.970   2.156  0.3882  1.3149  0.2967
  326MOL    H6946219   5.333   3.944   2.253  0.4532 -0.3393  0.2796
  326MOL    H7046220   5.305   4.097   2.051  1.1989 -2.1511  0.6305
  326MOL    H7146221   5.400   4.213   2.122  2.0266 -0.7545  0.5450
  326MOL    C7246222   5.161   4.292   2.151 -0.1099  0.4104  0.5928
  326MOL    C7346223   5.035   4.345   2.225  0.3300 -0.2703 -0.6082
  326MOL    O7446224   5.083   4.416   2.344 -0.1041 -0.9080  0.1869
  326MOL    H7546225   5.235   4.373   2.145  1.1332 -0.7724 -0.3189
  326MOL    H7646226   5.134   4.264   2.049  0.0526  0.5357  0.5138
  326MOL    H7746227   4.971   4.262   2.254  0.6705 -0.0543  0.8417
  326MOL    H7846228   4.980   4.416   2.163 -1.7050  1.3445  2.8610
  326MOL    C7946229   4.979   4.458   2.431  0.3898 -0.0110 -0.4531
  326MOL    C8046230   5.020   4.543   2.552 -0.1354  0.0331 -1.2787
  326MOL    O8146231   4.895   4.572   2.625  0.1393 -0.4608 -0.0848
  326MOL    H8246232   4.910   4.524   2.379 -0.0599 -1.5388 -1.8721
  326MOL    H8346233   4.929   4.372   2.477  0.8873  0.3149  0.7168
  326MOL    H8446234   5.055   4.640   2.517  1.6376 -0.8853 -2.0886
  326MOL    H8546235   5.101   4.508   2.616  0.2609  1.1702 -1.1456
  326MOL    C8646236   4.892   4.663   2.734 -0.4656  0.5122  0.2699
  326MOL    C8746237   4.865   4.802   2.677  0.4367 -0.4244 -0.3007
  326MOL    O8846238   4.728   4.811   2.642  0.2572  1.1333  0.1158
  326MOL    H8946239   4.809   4.638   2.800 -3.5673  2.6502 -2.6170
  326MOL    H9046240   4.991   4.653   2.778 -0.3909  1.3357  0.3063
  326MOL    H9146241   4.939   4.832   2.604  0.5502  0.2229  0.0751
  326MOL    H9246242   4.892   4.860   2.766 -0.4841 -1.7086  0.8436
  326MOL    C9346243   4.673   4.939   2.598  0.6470  0.5770 -0.1227
  326MOL    C9446244   4.519   4.950   2.617  0.3820  0.1009  0.6670
  326MOL    O9546245   4.485   4.967   2.758  0.2721  0.0976  0.2419
  326MOL    H9646246   4.721   5.018   2.656 -2.6781 -0.1041  3.8062
  326MOL    H9746247   4.689   4.954   2.491  0.8886  2.1111  0.1212
  326MOL    H9846248   4.464   4.868   2.571  1.1042  1.2088 -2.2696
  326MOL    H9946249   4.480   5.034   2.560  1.5604 -1.3240 -2.3195
  326MOL   C10046250   4.500   4.856   2.845 -0.2687 -0.0551  0.7072
  326MOL   C10146251   4.457   4.714   2.793  0.4475 -0.5969  0.2323
  326MOL   O10246252   4.321   4.733   2.770  0.1325  0.1192 -0.0412
  326MOL   H10346253   4.604   4.857   2.877  0.3007 -3.1448 -0.8575
  326MOL   H10446254   4.435   4.869   2.932 -0.4169  1.1376  0.4202
  326MOL   H10546255   4.478   4.636   2.867  2.9153  0.8876  1.1879
  326MOL   H10646256   4.508   4.693   2.699 -1.1922  1.3844 -1.1602
  326MOL   C10746257   4.261   4.614   2.728 -0.1094  0.3699  0.7346
  326MOL   C10846258   4.121   4.646   2.677 -0.6219 -0.3878 -0.1580
  326MOL   O10946259   4.133   4.687   2.538  0.2672  0.5341  0.0954
  326MOL   H11046260   4.322   4.556   2.658 -1.8326  1.2002 -1.5234
  326MOL   H11146261   4.242   4.544   2.810  0.3261 -1.8583 -1.0071
  326MOL   H11246262   4.077   4.722   2.741  0.4889 -1.4255  1.9037
  326MOL   H11346263   4.058   4.557   2.685 -0.5534 -0.2702  2.0063
  326MOL   C11446264   4.183   4.818   2.511 -0.1849  0.0383 -0.0535
  326MOL   C11546265   4.100   4.901   2.406 -0.5614 -0.1098 -0.1618
  326MOL   O11646266   3.998   4.969   2.472  0.5208 -0.4340  0.6038
  326MOL   H11746267   4.200   4.875   2.602  2.8483  0.1640 -0.6414
  326MOL   H11846268   4.279   4.797   2.464 -1.0645 -1.8495 -1.0366
  326MOL   H11946269   4.068   4.844   2.318 -1.7711 -0.0995  0.2711
  326MOL   H12046270   4.156   4.985   2.364 -0.7083 -0.2457 -0.6375
  326MOL   C12146271   3.924   5.057   2.387  0.1337  0.1330  0.2651
  326MOL   C12246272   3.989   5.185   2.335 -0.0631 -0.4745 -0.3546
  326MOL   O12346273   4.064   5.160   2.210 -0.2072  0.1342 -0.1458
  326MOL   H12446274   3.873   5.006   2.306 -0.3490  0.5688  0.2876
  326MOL   H12546275   3.840   5.086   2.451 -2.0431 -0.0524 -2.4100
  326MOL   H12646276   4.048   5.232   2.415 -0.7139 -0.2525 -0.0006
  326MOL   H12746277   3.911   5.258   2.317  1.9881  1.4196 -1.8680
  326MOL   C12846278   4.090   5.272   2.126 -0.0320 -0.1482 -0.5316
  326MOL   C12946279   3.961   5.291   2.035 -0.2013 -0.0531 -0.2748
  326MOL   O13046280   3.916   5.170   1.976 -0.2222 -0.1666  0.5071
  326MOL   H13146281   4.107   5.363   2.184 -0.4573  0.0840 -0.7738
  326MOL   H13246282   4.178   5.249   2.065 -0.4522 -1.9174 -0.4997
  326MOL   H13346283   3.983   5.365   1.957  0.4284  1.8399  1.6544
  326MOL   H13446284   3.893   5.335   2.107 -0.6472 -0.7917 -0.2440
  326MOL   C13546285   4.000   5.106   1.883 -0.4642 -0.3568  0.2286
  326MOL   C13646286   4.043   4.967   1.939  0.0327  0.0991  0.1845
  326MOL   O13746287   4.140   4.971   2.043  0.0032  0.0588 -0.1884
  326MOL   H13846288   3.925   5.087   1.806 -0.9913  2.5832 -0.0308
  326MOL   H13946289   4.081   5.161   1.835 -2.3730  0.3568 -2.3230
  326MOL   H14046290   4.077   4.901   1.860 -1.8599  0.0523 -0.6302
  326MOL   H14146291   3.952   4.921   1.978  0.9269 -2.2792 -0.4548
  326MOL   H14246292   4.111   5.032   2.108 -0.1894 -1.9367  1.6628
  327MOL     C146293   7.115   4.748   3.539 -0.0028  0.0266  0.2279
  327MOL     C246294   7.140   4.600   3.512 -0.3334 -0.1589 -0.4574
  327MOL     O346295   7.066   4.533   3.619  0.4648  0.5460  0.0101
  327MOL     H446296   7.158   4.805   3.457 -2.9376  1.4557 -0.3746
  327MOL     H546297   7.157   4.774   3.636 -1.2403 -3.7252  1.8816
  327MOL     H646298   7.245   4.576   3.526  0.3864  2.0271 -1.8209
  327MOL     H746299   7.116   4.572   3.410 -0.9101  0.2866 -0.4425
  327MOL     H846300   7.008   4.767   3.537 -0.2239 -1.1566 -2.4402
  327MOL     C946301   7.060   4.395   3.600 -0.7017 -0.4575  0.4060
  327MOL    C1046302   6.991   4.322   3.714 -0.2353 -0.3206  0.4000
  327MOL    O1146303   7.033   4.185   3.704  0.4910 -0.2950  0.8086
  327MOL    H1246304   7.005   4.370   3.509 -0.9618  2.7102 -0.3697
  327MOL    H1346305   7.158   4.349   3.611  0.3078  0.8055 -2.6557
  327MOL    H1446306   6.882   4.330   3.709 -0.2856 -0.9081  0.5121
  327MOL    H1546307   7.026   4.363   3.808 -0.6457 -1.6974  1.1677
  327MOL    C1646308   6.997   4.103   3.809  0.3134  0.4485 -0.6359
  327MOL    C1746309   6.849   4.068   3.798  0.3064  0.1618  0.2472
  327MOL    O1846310   6.768   4.176   3.830  0.2838  0.0941 -0.2756
  327MOL    H1946311   7.057   4.011   3.811  0.0984  0.3315  0.9741
  327MOL    H2046312   7.028   4.149   3.902  1.2814 -2.0335  0.3295
  327MOL    H2146313   6.831   3.984   3.867 -3.5849 -0.9709 -1.9932
  327MOL    H2246314   6.817   4.036   3.699 -4.6264  1.6047  1.2073
  327MOL    C2346315   6.630   4.131   3.827 -0.3244 -0.3101  0.2233
  327MOL    C2446316   6.540   4.250   3.861  0.5675 -0.5048 -0.4339
  327MOL    O2546317   6.428   4.220   3.941  0.9570 -0.0083 -0.2054
  327MOL    H2646318   6.607   4.091   3.728 -0.0190  1.7633 -0.7327
  327MOL    H2746319   6.625   4.050   3.899  0.7660 -0.1142  0.5332
  327MOL    H2846320   6.504   4.304   3.774  1.9880  1.5975  0.2467
  327MOL    H2946321   6.597   4.327   3.913  0.8295 -1.5374  0.8278
  327MOL    C3046322   6.364   4.334   4.006  0.5538  0.3044 -0.0634
  327MOL    C3146323   6.216   4.289   4.039  0.3570 -0.2060  0.5607
  327MOL    O3246324   6.135   4.283   3.924  0.4093 -0.4489 -0.7162
  327MOL    H3346325   6.412   4.366   4.099 -1.4640 -0.4337  1.2799
  327MOL    H3446326   6.367   4.419   3.939 -0.4040  0.6135  0.2833
  327MOL    H3546327   6.186   4.345   4.128  0.6201 -0.8700  1.0674
  327MOL    H3646328   6.211   4.188   4.079 -1.3376 -0.5304 -0.4001
  327MOL    C3746329   5.998   4.299   3.953 -0.7545 -0.1121  0.2518
  327MOL    C3846330   5.915   4.357   3.839 -0.2668  0.6436  0.7042
  327MOL    O3946331   5.914   4.257   3.736  0.1750  0.5209 -0.4668
  327MOL    H4046332   5.938   4.213   3.984  1.7053 -2.3797 -0.9997
  327MOL    H4146333   5.996   4.361   4.042  0.2081  1.7277 -0.9872
  327MOL    H4246334   5.963   4.442   3.791  1.2696 -0.7035 -0.2225
  327MOL    H4346335   5.813   4.389   3.858  0.6198  3.5068  0.8765
  327MOL    C4446336   5.906   4.306   3.604 -0.7640 -0.1823  0.5425
  327MOL    C4546337   5.889   4.186   3.510  0.2063  0.4769  0.3411
  327MOL    O4646338   5.807   4.226   3.397 -0.1901  0.1465 -0.0452
  327MOL    H4746339   5.818   4.371   3.608  0.8984  2.1943 -0.5163
  327MOL    H4846340   5.984   4.376   3.575 -1.5608  0.3410 -0.3814
  327MOL    H4946341   5.839   4.104   3.562 -0.2911  0.1629 -0.6016
  327MOL    H5046342   5.990   4.151   3.485  0.5242  1.3540  0.3951
  327MOL    C5146343   5.888   4.304   3.308  0.3065  0.2420 -0.6154
  327MOL    C5246344   5.818   4.325   3.173  0.5341  0.8743  0.0102
  327MOL    O5346345   5.771   4.200   3.124  0.5705 -0.3121 -0.1134
  327MOL    H5446346   5.928   4.395   3.354  0.1299 -0.9693  2.0095
  327MOL    H5546347   5.976   4.242   3.294 -0.0121 -1.1715  3.1570
  327MOL    H5646348   5.887   4.374   3.104 -0.9400  0.0636 -2.1290
  327MOL    H5746349   5.739   4.399   3.180 -0.2316  0.4180 -3.0227
  327MOL    C5846350   5.686   4.216   3.010  0.4515 -0.3895 -0.0899
  327MOL    C5946351   5.655   4.080   2.940 -0.7821  0.4208  0.2817
  327MOL    O6046352   5.768   4.000   2.913 -0.3656  0.1347  0.2233
  327MOL    H6146353   5.595   4.267   3.040  1.2088  0.1256  1.3576
  327MOL    H6246354   5.745   4.271   2.936 -2.4390  0.2644 -1.9836
  327MOL    H6346355   5.610   4.108   2.845 -0.1677  1.7732  0.3839
  327MOL    H6446356   5.577   4.032   2.999 -1.5052  0.8851 -0.2802
  327MOL    C6546357   5.708   3.866   2.888  0.0460  0.0907  0.1953
  327MOL    C6646358   5.820   3.771   2.860 -0.1329 -0.5854 -0.1615
  327MOL    O6746359   5.910   3.818   2.758  0.4876  0.2039  0.1128
  327MOL    H6846360   5.651   3.833   2.975 -1.2150 -2.6378 -1.5970
  327MOL    H6946361   5.644   3.866   2.800 -0.3801  3.1096  0.4281
  327MOL    H7046362   5.771   3.675   2.843 -3.5659  0.6264  2.4028
  327MOL    H7146363   5.877   3.761   2.952  1.9250  0.1019 -1.3144
  327MOL    C7246364   6.014   3.728   2.729  0.3579  0.4083  0.4680
  327MOL    C7346365   6.084   3.764   2.597 -0.2996 -0.0717 -0.0994
  327MOL    O7446366   6.176   3.661   2.568 -0.1041  0.4243  0.0792
  327MOL    H7546367   6.082   3.731   2.815  0.4000 -1.4286  0.5238
  327MOL    H7646368   5.978   3.625   2.729  0.7624  0.2515  2.0708
  327MOL    H7746369   6.128   3.863   2.613  0.7251 -0.8080  1.8197
  327MOL    H7846370   6.000   3.763   2.528 -1.4525  0.0236  1.2774
  327MOL    C7946371   6.307   3.681   2.619  0.3264  0.3946 -0.4460
  327MOL    C8046372   6.381   3.786   2.527  0.0489  0.4457  0.0055
  327MOL    O8146373   6.358   3.922   2.566  0.6657  0.1882 -0.0295
  327MOL    H8246374   6.318   3.696   2.726  0.0951  1.3642 -0.5496
  327MOL    H8346375   6.362   3.591   2.593  1.2618  1.4747 -2.3871
  327MOL    H8446376   6.351   3.774   2.423 -0.5443 -0.1484  0.2432
  327MOL    H8546377   6.486   3.760   2.542  0.1699  1.3019  0.6913
  327MOL    C8646378   6.429   3.959   2.686  0.2008 -0.6187  0.2060
  327MOL    C8746379   6.364   4.077   2.746 -0.6743 -0.1446 -0.0205
  327MOL    O8846380   6.282   4.036   2.856  0.0176  0.0029 -0.1023
  327MOL    H8946381   6.412   3.879   2.759 -0.5349  0.4841  1.2591
  327MOL    H9046382   6.536   3.974   2.669  0.3225  0.6196  1.9316
  327MOL    H9146383   6.308   4.137   2.674 -0.9546  0.2700  0.5325
  327MOL    H9246384   6.442   4.131   2.800 -0.5011 -0.3537 -0.0642
  327MOL    C9346385   6.218   4.147   2.918  0.4718  0.0043 -0.1577
  327MOL    C9446386   6.094   4.093   2.994 -0.6752 -0.0646 -0.4760
  327MOL    O9546387   6.138   4.022   3.105 -0.6107 -0.3126 -0.1263
  327MOL    H9646388   6.285   4.214   2.971  1.9686 -1.6698  0.1230
  327MOL    H9746389   6.180   4.222   2.848 -0.0323  1.7149  1.9109
  327MOL    H9846390   6.031   4.030   2.931 -0.2897 -0.9672  0.0330
  327MOL    H9946391   6.033   4.174   3.034  0.7510  1.2518 -0.9158
  327MOL   C10046392   6.032   3.960   3.176  0.0516  0.1922 -0.5256
  327MOL   C10146393   6.092   3.875   3.287 -0.1916 -0.3176  0.6381
  327MOL   O10246394   6.195   3.784   3.247  0.0889 -0.2992 -0.5750
  327MOL   H10346395   5.963   4.035   3.215  0.5908 -0.4720  1.7619
  327MOL   H10446396   5.969   3.909   3.103  1.3446  2.9267 -3.7044
  327MOL   H10546397   6.011   3.819   3.333  0.8496 -1.3831  1.1970
  327MOL   H10646398   6.126   3.941   3.366 -0.4372  1.4586 -0.7084
  327MOL   C10746399   6.171   3.697   3.140 -0.3295  0.7966  0.5761
  327MOL   C10846400   6.300   3.695   3.050  0.6137  0.1841 -0.4142
  327MOL   O10946401   6.391   3.594   3.092  0.3718 -0.0511 -0.3070
  327MOL   H11046402   6.128   3.600   3.164 -0.8352  1.0183  0.5610
  327MOL   H11146403   6.094   3.738   3.075 -1.3578 -0.2850  1.0919
  327MOL   H11246404   6.337   3.796   3.030  0.9543 -0.2619 -2.1088
  327MOL   H11346405   6.265   3.663   2.952  0.9269  1.3597 -0.9163
  327MOL   C11446406   6.510   3.589   3.014 -0.4474  0.2309  0.5176
  327MOL   C11546407   6.521   3.445   2.956  0.2319 -0.4189 -0.6582
  327MOL   O11646408   6.428   3.431   2.847 -0.1230  0.0774 -0.5047
  327MOL   H11746409   6.495   3.662   2.934  2.9532 -0.8136 -1.1817
  327MOL   H11846410   6.588   3.598   3.089 -2.0937 -1.5430  2.5033
  327MOL   H11946411   6.508   3.366   3.030 -1.1596 -0.9143 -1.4057
  327MOL   H12046412   6.620   3.426   2.914  0.8938  0.4009  0.5263
  327MOL   C12146413   6.404   3.297   2.819 -0.1697  0.1004  0.3355
  327MOL   C12246414   6.286   3.289   2.725 -0.4488  0.5877  0.3993
  327MOL   O12346415   6.160   3.306   2.783 -0.5496  0.2683 -0.0306
  327MOL   H12446416   6.491   3.262   2.763 -2.1301 -0.3396 -2.5929
  327MOL   H12546417   6.374   3.231   2.901  0.1339  0.0006  0.3665
  327MOL   H12646418   6.285   3.190   2.678 -1.9633  1.0910 -0.6747
  327MOL   H12746419   6.301   3.369   2.653  0.7713  0.7352  0.8088
  327MOL   C12846420   6.059   3.278   2.692 -0.2383  0.2890  0.0026
  327MOL   C12946421   5.924   3.314   2.758 -0.6818 -1.1656 -0.0803
  327MOL   O13046422   5.872   3.198   2.825 -0.5266 -0.4348  1.0664
  327MOL   H13146423   6.064   3.344   2.605 -0.9810 -0.3358 -0.5292
  327MOL   H13246424   6.058   3.173   2.664 -0.1267 -0.7478  3.6628
  327MOL   H13346425   5.864   3.343   2.671 -0.6845 -1.9215 -0.3427
  327MOL   H13446426   5.931   3.397   2.828 -0.0735 -1.6052  0.3883
  327MOL   C13546427   5.740   3.229   2.873  0.5733 -0.3602 -0.6125
  327MOL   C13646428   5.701   3.117   2.971  0.2637 -0.7781  0.3857
  327MOL   O13746429   5.676   3.001   2.903 -0.0831  0.1596  0.2478
  327MOL   H13846430   5.729   3.323   2.926 -0.5238  0.2415 -1.8596
  327MOL   H13946431   5.663   3.245   2.797 -0.6075 -2.1058  0.1570
  327MOL   H14046432   5.608   3.152   3.017 -0.6004 -1.0145 -1.1366
  327MOL   H14146433   5.775   3.104   3.050  1.2546  0.8814 -0.2526
  327MOL   H14246434   5.763   2.965   2.890 -1.1342 -2.4853  0.1136
  328MOL     C146435   7.402   2.807   6.650 -0.3855  0.5188 -0.0934
  328MOL     C246436   7.393   2.933   6.573 -0.0042  0.0678  0.0979
  328MOL     O346437   7.450   2.910   6.439 -0.0820 -0.0452  0.2209
  328MOL     H446438   7.374   2.820   6.755  0.3430  0.1385  0.1535
  328MOL     H546439   7.506   2.775   6.659 -1.7284 -3.2678  4.2530
  328MOL     H646440   7.458   3.009   6.617  0.3250  1.2296 -2.2783
  328MOL     H746441   7.295   2.980   6.565  1.4948  3.2971  0.2443
  328MOL     H846442   7.343   2.723   6.613 -0.9647  1.3655 -1.1026
  328MOL     C946443   7.487   3.033   6.375  0.6227  0.2944  0.6050
  328MOL    C1046444   7.510   3.017   6.228 -0.6064 -0.2411 -0.5345
  328MOL    O1146445   7.593   3.114   6.165  0.4177  0.4498 -0.4907
  328MOL    H1246446   7.401   3.100   6.382 -0.4716 -1.1562  1.2300
  328MOL    H1346447   7.577   3.076   6.419  0.9096  0.7379 -0.3878
  328MOL    H1446448   7.414   3.019   6.177 -0.6468  1.2444 -0.4250
  328MOL    H1546449   7.558   2.921   6.208 -1.5513 -1.0267  0.8570
  328MOL    C1646450   7.572   3.115   6.022  0.5995 -0.0711  0.2182
  328MOL    C1746451   7.658   3.218   5.956  0.1585 -0.5287 -0.0300
  328MOL    O1846452   7.587   3.339   5.940  0.3864 -0.3827 -0.2758
  328MOL    H1946453   7.610   3.020   5.986  0.0330 -1.1060  2.2569
  328MOL    H2046454   7.466   3.135   6.005  0.5616 -0.9277 -0.5111
  328MOL    H2146455   7.694   3.184   5.859 -2.1203 -1.1213 -0.6944
  328MOL    H2246456   7.743   3.227   6.024 -2.8268 -0.2535  3.8127
  328MOL    C2346457   7.680   3.440   5.899  0.8130  0.4960  0.6037
  328MOL    C2446458   7.603   3.570   5.873 -0.2404 -0.8746  0.1389
  328MOL    O2546459   7.518   3.570   5.762  0.0548 -0.2948 -0.4772
  328MOL    H2646460   7.760   3.459   5.972 -0.5783  1.4663  1.9111
  328MOL    H2746461   7.729   3.421   5.803 -0.9921 -1.3907  0.0309
  328MOL    H2846462   7.686   3.639   5.864 -0.7292 -0.4330 -1.1994
  328MOL    H2946463   7.555   3.606   5.964  1.5211  0.0967  0.6825
  328MOL    C3046464   7.441   3.689   5.727 -0.0789  1.2653 -0.2632
  328MOL    C3146465   7.514   3.797   5.641 -0.0809 -0.5863 -0.1282
  328MOL    O3246466   7.472   3.786   5.508  0.3445  0.7513 -0.0272
  328MOL    H3346467   7.354   3.647   5.676  0.7762 -0.0235 -0.6868
  328MOL    H3446468   7.399   3.737   5.815  2.3263  4.2969 -0.6664
  328MOL    H3546469   7.620   3.789   5.666  0.2577 -0.1010 -1.3607
  328MOL    H3646470   7.487   3.899   5.670  0.3489 -0.5645  0.1928
  328MOL    C3746471   7.526   3.889   5.425 -0.0775 -0.1523  0.1289
  328MOL    C3846472   7.468   3.892   5.283 -0.5589 -0.3561 -0.2152
  328MOL    O3946473   7.565   3.843   5.186  0.4259  0.2435 -0.6859
  328MOL    H4046474   7.504   3.988   5.465 -3.1629 -0.7165 -0.0490
  328MOL    H4146475   7.635   3.883   5.427 -0.1514 -1.2013  1.6950
  328MOL    H4246476   7.458   3.996   5.251  1.5163  0.1072  0.5454
  328MOL    H4346477   7.364   3.859   5.285 -0.9179  0.7787  0.4800
  328MOL    C4446478   7.585   3.703   5.191  0.7070 -0.7763 -0.4992
  328MOL    C4546479   7.688   3.664   5.082 -0.3542 -0.5382 -0.0753
  328MOL    O4646480   7.704   3.524   5.063  0.3613 -0.4752  0.0397
  328MOL    H4746481   7.620   3.678   5.291 -0.9197  1.9980  0.8320
  328MOL    H4846482   7.489   3.654   5.175 -0.9931  1.9146  0.8646
  328MOL    H4946483   0.007   3.724   5.094 -0.5075 -0.4371  0.5661
  328MOL    H5046484   7.650   3.681   4.981  1.3119  2.4164 -0.2666
  328MOL    C5146485   0.054   3.485   5.117  0.2776  0.4006 -0.0628
  328MOL    C5246486   0.038   3.465   5.267 -0.3341  0.3121 -0.0178
  328MOL    O5346487   0.099   3.573   5.342 -0.0261 -0.0828 -0.3744
  328MOL    H5446488   0.070   3.388   5.070  0.3729 -0.3278  1.4538
  328MOL    H5546489   0.147   3.535   5.089  1.3567 -1.4171  0.2130
  328MOL    H5646490   0.079   3.371   5.305 -0.0668  0.7826  0.8649
  328MOL    H5746491   7.706   3.459   5.300 -0.6751  1.0797 -0.9440
  328MOL    C5846492   0.088   3.557   5.482  0.1325 -0.6879 -0.3891
  328MOL    C5946493   0.171   3.645   5.576 -0.1658 -0.1529  0.1344
  328MOL    O6046494   0.136   3.620   5.709  0.1805 -0.0653 -0.0056
  328MOL    H6146495   7.754   3.572   5.505  0.1646 -0.3822 -0.4486
  328MOL    H6246496   0.120   3.455   5.505 -1.6536 -1.2875 -0.5218
  328MOL    H6346497   0.154   3.752   5.563 -1.0113 -0.4717 -1.5606
  328MOL    H6446498   0.276   3.624   5.552 -0.3676  0.0465 -0.9869
  328MOL    C6546499   0.232   3.650   5.808  0.1534 -0.3182 -0.5856
  328MOL    C6646500   0.326   3.534   5.841 -0.1023  0.1719 -0.3309
  328MOL    O6746501   0.239   3.422   5.885  0.4897  0.1856  0.1089
  328MOL    H6846502   0.308   3.720   5.773 -0.4025  2.1324  2.8773
  328MOL    H6946503   0.193   3.682   5.904  0.5627  0.1405 -0.5690
  328MOL    H7046504   0.391   3.551   5.927  0.2300  1.1856 -0.7712
  328MOL    H7146505   0.394   3.511   5.759  0.6427 -0.6345  0.5093
  328MOL    C7246506   0.311   3.313   5.927  0.2855 -0.7499 -0.7023
  328MOL    C7346507   0.360   3.234   5.806 -0.2446 -0.3328 -0.0435
  328MOL    O7446508   0.260   3.150   5.761 -0.0916  0.3083 -0.3118
  328MOL    H7546509   0.386   3.343   6.000 -1.4532 -1.0623  1.2509
  328MOL    H7646510   0.249   3.245   5.986  1.8860 -1.3934  0.2970
  328MOL    H7746511   0.439   3.165   5.837 -0.4447  0.1504  1.5888
  328MOL    H7846512   0.402   3.292   5.724 -0.7484 -0.9246 -0.7202
  328MOL    C7946513   0.174   3.212   5.656  0.3689 -0.6621  0.2306
  328MOL    C8046514   0.230   3.186   5.518 -0.2549  0.0105  0.7923
  328MOL    O8146515   0.309   3.289   5.468 -0.3444  0.6465 -0.2639
  328MOL    H8246516   0.078   3.163   5.670 -0.7459  1.0553 -1.2326
  328MOL    H8346517   0.151   3.316   5.681  0.1411 -0.2625 -1.5929
  328MOL    H8446518   0.147   3.180   5.448 -0.0084 -0.8686  0.5703
  328MOL    H8546519   0.282   3.090   5.523  2.4502  1.1970 -2.9999
  328MOL    C8646520   0.371   3.255   5.348  0.3906  0.9058  0.2910
  328MOL    C8746521   0.426   3.385   5.291  0.4431  0.0936  0.0217
  328MOL    O8846522   0.444   3.367   5.152 -0.4831 -0.4877 -0.1521
  328MOL    H8946523   0.452   3.184   5.364  0.1441  0.8851  1.4450
  328MOL    H9046524   0.298   3.207   5.283 -0.6939  0.4059  1.8558
  328MOL    H9146525   0.514   3.423   5.343 -0.4427  2.4541 -0.1315
  328MOL    H9246526   0.349   3.461   5.304  2.1170  1.3930  2.6820
  328MOL    C9346527   0.450   3.495   5.085 -0.1940 -0.2913 -0.3627
  328MOL    C9446528   0.441   3.468   4.935  1.0852  0.4140  0.1709
  328MOL    O9546529   0.311   3.437   4.908 -0.7691 -0.8746 -0.6174
  328MOL    H9646530   0.380   3.571   5.119 -0.3141 -0.6511  0.2187
  328MOL    H9746531   0.551   3.533   5.100 -1.6151  2.7135  2.1993
  328MOL    H9846532   0.490   3.376   4.904 -1.3121 -1.3604  1.4415
  328MOL    H9946533   0.481   3.545   4.868 -1.1006 -0.2448 -2.0061
  328MOL   C10046534   0.277   3.390   4.776  0.0182 -0.3148  0.2039
  328MOL   C10146535   0.124   3.401   4.757 -0.5206  0.7358 -0.0288
  328MOL   O10246536   0.076   3.333   4.646 -0.1771  0.4882 -0.6122
  328MOL   H10346537   0.329   3.454   4.705  0.8224  0.0083  1.0619
  328MOL   H10446538   0.315   3.288   4.780  0.2218 -0.2394  0.1972
  328MOL   H10546539   0.086   3.503   4.758  0.5438  1.1434 -0.5660
  328MOL   H10646540   0.085   3.356   4.849  0.9283  0.1263  0.2968
  328MOL   C10746541   7.714   3.363   4.618 -0.5723 -0.4954 -0.1353
  328MOL   C10846542   7.673   3.280   4.500 -0.0703  0.1407 -1.0155
  328MOL   O10946543   7.702   3.143   4.540 -0.1672 -0.7220  0.5445
  328MOL   H11046544   7.650   3.332   4.701 -2.1052  0.2886 -1.0118
  328MOL   H11146545   7.694   3.466   4.592 -0.8210 -0.5091 -0.0018
  328MOL   H11246546   7.715   3.310   4.404 -0.1505 -1.4087 -1.5461
  328MOL   H11346547   7.566   3.291   4.478 -0.4329 -0.1599  0.5129
  328MOL   C11446548   7.661   3.052   4.438 -0.6641 -0.2353 -0.5255
  328MOL   C11546549   7.685   2.911   4.481  0.2354 -0.3776 -0.2312
  328MOL   O11646550   7.570   2.870   4.548  0.3089 -0.4560  0.2341
  328MOL   H11746551   7.555   3.065   4.416 -0.6710  1.4344  0.4142
  328MOL   H11846552   7.717   3.074   4.347  1.9694 -1.6205  0.7039
  328MOL   H11946553   0.005   2.900   4.541  0.8502  1.8963 -0.6857
  328MOL   H12046554   7.701   2.856   4.388 -0.0337 -1.5683  0.4169
  328MOL   C12146555   7.569   2.727   4.583 -0.0888 -0.6622 -0.8101
  328MOL   C12246556   7.610   2.621   4.469 -0.2473 -0.0468  0.5109
  328MOL   O12346557   7.746   2.587   4.488 -0.1432 -0.1419  0.1410
  328MOL   H12446558   7.630   2.711   4.672  0.2685  1.8411 -0.5587
  328MOL   H12546559   7.465   2.705   4.605 -0.5217  1.7879 -0.2915
  328MOL   H12646560   7.593   2.669   4.372  1.1616 -0.5553  0.0044
  328MOL   H12746561   7.548   2.531   4.469  0.8790 -0.8425 -0.2474
  328MOL   C12846562   0.026   2.484   4.411  0.2829 -1.0997  0.1017
  328MOL   C12946563   0.185   2.486   4.415  0.6976 -0.1819  0.4725
  328MOL   O13046564   0.248   2.357   4.419  0.2607  0.4271  0.6212
  328MOL   H13146565   0.006   2.385   4.453  0.8734 -0.2692  2.4082
  328MOL   H13246566   7.762   2.483   4.307  0.1608 -0.3598  0.1372
  328MOL   H13346567   0.206   2.526   4.514 -1.7139 -0.3360  1.0869
  328MOL   H13446568   0.230   2.545   4.335 -1.4896 -1.6711 -1.9457
  328MOL   C13546569   0.219   2.282   4.303  0.5368  0.2200 -0.5605
  328MOL   C13646570   0.284   2.149   4.286  0.0145  0.1367 -0.1740
  328MOL   O13746571   0.420   2.155   4.302 -0.1170  0.3124 -0.0485
  328MOL   H13846572   0.112   2.258   4.301 -0.5098  4.1950  1.6140
  328MOL   H13946573   0.227   2.347   4.217  2.6799  0.1613 -0.4227
  328MOL   H14046574   0.273   2.119   4.182  0.1404 -1.5488  0.2931
  328MOL   H14146575   0.240   2.073   4.351 -2.5800  2.6576  1.1558
  328MOL   H14246576   0.439   2.179   4.391  0.6363  0.6297 -0.2869
  329MOL     C146577   5.102   5.112   0.944 -0.0052 -0.4574  0.0118
  329MOL     C246578   4.967   5.184   0.938  0.3317  0.1724  0.5224
  329MOL     O346579   4.915   5.194   0.809 -0.3107  0.0702  0.6870
  329MOL     H446580   5.164   5.143   0.860  0.0404 -1.2666 -0.2586
  329MOL     H546581   5.090   5.005   0.927 -3.1504  0.2181 -2.3960
  329MOL     H646582   4.983   5.286   0.973  0.4718  1.1776 -2.3466
  329MOL     H746583   4.890   5.142   1.004 -2.2321 -0.5407 -2.7848
  329MOL     H846584   5.153   5.118   1.040  2.2035  0.8052 -1.2014
  329MOL     C946585   4.773   5.232   0.812 -0.5597  0.6901  0.6620
  329MOL    C1046586   4.745   5.373   0.862  0.0093  0.0248 -0.8835
  329MOL    O1146587   4.612   5.405   0.862 -0.3001  0.0181 -0.0847
  329MOL    H1246588   4.731   5.222   0.711  0.5293  2.5966  0.0025
  329MOL    H1346589   4.710   5.156   0.858 -1.4176  0.9737 -0.0010
  329MOL    H1446590   4.799   5.443   0.798  1.0800 -0.5298 -0.5988
  329MOL    H1546591   4.773   5.380   0.967 -2.0722 -1.7143 -0.1927
  329MOL    C1646592   4.590   5.523   0.926  0.7243 -0.2866  0.3798
  329MOL    C1746593   4.445   5.558   0.959 -0.5963  0.2980  0.7319
  329MOL    O1846594   4.395   5.503   1.080  0.0823 -0.4393 -0.4606
  329MOL    H1946595   4.641   5.537   1.021 -0.4304 -2.2463  1.3301
  329MOL    H2046596   4.627   5.605   0.865 -0.4182  0.8244  1.1607
  329MOL    H2146597   4.385   5.523   0.874 -1.3597  0.7442  1.0820
  329MOL    H2246598   4.431   5.666   0.958  1.6338  0.6733  3.7540
  329MOL    C2346599   4.438   5.566   1.201 -0.6293  0.1277 -0.7383
  329MOL    C2446600   4.339   5.522   1.304  0.5664 -0.1655  0.0303
  329MOL    O2546601   4.343   5.381   1.328  0.4145 -0.9698 -0.0558
  329MOL    H2646602   4.539   5.534   1.227 -1.2677 -1.2077  0.1459
  329MOL    H2746603   4.425   5.673   1.188  0.6245  0.4496  0.4684
  329MOL    H2846604   4.239   5.549   1.269  0.7829 -0.3417 -0.7258
  329MOL    H2946605   4.353   5.574   1.399 -0.9410  1.2884 -0.5060
  329MOL    C3046606   4.315   5.331   1.466 -0.0793  0.2321  0.9862
  329MOL    C3146607   4.177   5.364   1.524 -0.5642  0.9984 -0.3413
  329MOL    O3246608   4.186   5.500   1.572  0.2442 -0.0516  0.6411
  329MOL    H3346609   4.311   5.223   1.448  2.4307  0.5393 -1.7952
  329MOL    H3446610   4.405   5.350   1.525  1.2944  1.7206 -1.5058
  329MOL    H3546611   4.143   5.301   1.606  0.5912 -0.1937 -0.7585
  329MOL    H3646612   4.113   5.328   1.444  0.1861 -3.4038  0.9016
  329MOL    C3746613   4.241   5.505   1.703  0.1340  0.2085 -0.5750
  329MOL    C3846614   4.281   5.651   1.743 -0.4087 -0.4745 -0.0598
  329MOL    O3946615   4.175   5.726   1.811 -0.2697  0.0488  0.7109
  329MOL    H4046616   4.172   5.466   1.778  0.8336  1.0310  0.5215
  329MOL    H4146617   4.324   5.436   1.716 -1.4852 -1.5361  0.8907
  329MOL    H4246618   4.320   5.716   1.665 -0.5374 -0.5138 -0.1561
  329MOL    H4346619   4.366   5.640   1.811  0.9168 -2.1644 -1.9250
  329MOL    C4446620   4.054   5.745   1.746 -0.5004  1.0295 -0.2215
  329MOL    C4546621   4.070   5.851   1.638  0.4585 -0.9525 -0.4457
  329MOL    O4646622   3.946   5.901   1.599 -0.0725 -0.0719  0.8331
  329MOL    H4746623   4.021   5.654   1.695  2.7760 -1.4211  1.7478
  329MOL    H4846624   3.977   5.764   1.821 -1.0576  1.8706 -1.0108
  329MOL    H4946625   4.132   5.823   1.552  0.7278 -0.1794 -0.5057
  329MOL    H5046626   4.128   5.935   1.674 -0.0249 -0.8436  0.0820
  329MOL    C5146627   3.897   5.832   1.488  0.2264 -0.4050 -0.3836
  329MOL    C5246628   3.787   5.913   1.407 -0.1362  0.4486  0.8075
  329MOL    O5346629   3.662   5.930   1.480 -0.2214  0.1793  0.0526
  329MOL    H5446630   3.970   5.818   1.408  0.8903 -1.0168  0.3312
  329MOL    H5546631   3.856   5.738   1.523 -0.0159  0.0001  0.4499
  329MOL    H5646632   3.776   5.849   1.319 -0.2246  0.9977  0.4179
  329MOL    H5746633   3.822   6.013   1.382  0.8772  0.1709  1.1206
  329MOL    C5846634   3.555   6.008   1.430 -0.0560 -0.0074 -0.4419
  329MOL    C5946635   3.475   5.940   1.317 -0.9738 -0.2935 -0.6913
  329MOL    O6046636   3.560   5.928   1.200 -0.0696  0.0868 -0.7743
  329MOL    H6146637   3.495   6.038   1.516 -0.4367  0.7109 -0.9560
  329MOL    H6246638   3.592   6.105   1.398  1.6641  0.2503  2.1958
  329MOL    H6346639   3.394   6.007   1.286  0.8915  3.0906  1.4655
  329MOL    H6446640   3.437   5.844   1.352  0.7382 -0.4789  0.6941
  329MOL    C6546641   3.501   5.840   1.101  0.3738  0.3900 -0.5627
  329MOL    C6646642   3.588   5.839   0.974 -0.7961 -0.4631 -0.4124
  329MOL    O6746643   3.590   5.972   0.923  0.0202 -0.0624  0.0895
  329MOL    H6846644   3.499   5.743   1.149 -0.4589 -0.5059 -2.3596
  329MOL    H6946645   3.398   5.872   1.088 -0.4490 -1.6864  0.7397
  329MOL    H7046646   3.546   5.775   0.897  0.2621 -0.1671 -1.2514
  329MOL    H7146647   3.686   5.800   1.003 -0.2672  1.2482  0.1948
  329MOL    C7246648   3.687   5.990   0.821  0.1366  0.3965 -0.7677
  329MOL    C7346649   3.725   6.138   0.804  0.1961  0.1245 -0.3416
  329MOL    O7446650   3.827   6.190   0.889 -0.0836  0.3104 -0.0359
  329MOL    H7546651   3.787   5.947   0.829 -0.2444 -0.3644  0.0661
  329MOL    H7646652   3.655   5.950   0.725 -0.8507 -1.0435  0.1381
  329MOL    H7746653   3.644   6.210   0.815  1.2178  1.5622 -1.9465
  329MOL    H7846654   3.763   6.155   0.703  0.0783  1.2106 -0.2061
  329MOL    C7946655   3.795   6.170   1.028  0.1390 -0.2112 -0.6554
  329MOL    C8046656   3.924   6.185   1.113 -0.4261  0.2826 -0.6623
  329MOL    O8146657   4.015   6.083   1.070  0.3143 -0.7713 -0.5073
  329MOL    H8246658   3.718   6.243   1.050 -0.2645 -1.1597  1.2752
  329MOL    H8346659   3.746   6.075   1.049  1.0736 -0.6795 -0.5574
  329MOL    H8446660   3.894   6.163   1.215  2.1778  0.0088  0.0777
  329MOL    H8546661   3.958   6.288   1.115 -0.1894  0.1881  0.7207
  329MOL    C8646662   4.137   6.083   1.141 -0.0331  0.1453 -0.6345
  329MOL    C8746663   4.227   5.962   1.108 -0.5490  0.2147 -0.2867
  329MOL    O8846664   4.177   5.830   1.158 -0.6120 -0.3320  0.5397
  329MOL    H8946665   4.195   6.174   1.126 -0.9471  0.8604  0.0611
  329MOL    H9046666   4.114   6.090   1.248 -1.9179 -2.1329 -0.8401
  329MOL    H9146667   4.315   5.985   1.168 -0.4879  1.9805 -1.0188
  329MOL    H9246668   4.254   5.960   1.003 -0.3569 -2.3944 -0.2305
  329MOL    C9346669   4.047   5.797   1.107  0.2095  0.0429  0.3873
  329MOL    C9446670   4.026   5.647   1.107 -0.1721  0.0300 -0.0266
  329MOL    O9546671   3.892   5.628   1.074 -0.6798 -0.1951 -0.8562
  329MOL    H9646672   3.971   5.837   1.173  1.9645 -1.0243  3.1243
  329MOL    H9746673   4.038   5.833   1.004  3.2309  0.3850  0.1768
  329MOL    H9846674   4.055   5.590   1.194  1.3467 -0.0306 -0.5598
  329MOL    H9946675   4.097   5.616   1.030 -0.6916 -0.6108 -0.2523
  329MOL   C10046676   3.852   5.492   1.050  0.5971 -0.7340  0.0508
  329MOL   C10146677   3.842   5.404   1.178 -0.1293  0.2037 -1.0916
  329MOL   O10246678   3.727   5.428   1.252  0.0374 -0.3155 -0.0254
  329MOL   H10346679   3.751   5.495   1.010  0.4312  1.7899  0.5921
  329MOL   H10446680   3.923   5.461   0.974 -0.7120  1.6303 -2.2188
  329MOL   H10546681   3.925   5.398   1.248 -1.6519  1.6136  0.8777
  329MOL   H10646682   3.834   5.302   1.141 -2.2072  0.9569 -2.8766
  329MOL   C10746683   3.701   5.554   1.307 -0.7064  0.6552  0.0761
  329MOL   C10846684   3.568   5.557   1.383 -0.3081  0.0780  1.2688
  329MOL   O10946685   3.559   5.447   1.471  0.6574 -0.1766  0.1135
  329MOL   H11046686   3.780   5.570   1.380 -1.5222  0.6318  0.9709
  329MOL   H11146687   3.706   5.634   1.233 -0.6207  3.0253  2.5571
  329MOL   H11246688   3.491   5.544   1.308 -0.5911 -1.3981  1.8080
  329MOL   H11346689   3.556   5.656   1.428  1.5419 -0.0366  2.0629
  329MOL   C11446690   3.442   5.449   1.558 -0.5203 -0.2233  0.1698
  329MOL   C11546691   3.312   5.426   1.484  0.1876 -0.4406 -0.1624
  329MOL   O11646692   3.241   5.549   1.448  0.2560  0.1554 -0.2601
  329MOL   H11746693   3.443   5.357   1.616 -4.9020 -1.5179 -1.6272
  329MOL   H11846694   3.440   5.528   1.633 -0.1634 -2.2133  2.3425
  329MOL   H11946695   3.259   5.358   1.550  1.9504 -1.0212  0.6620
  329MOL   H12046696   3.324   5.358   1.399 -1.9001  1.1195 -1.7743
  329MOL   C12146697   3.124   5.512   1.380  0.0357  0.0585 -0.2161
  329MOL   C12246698   3.042   5.631   1.330  0.2441 -0.2272  0.0280
  329MOL   O12346699   2.927   5.581   1.272 -0.2493 -0.1469 -0.1039
  329MOL   H12446700   3.153   5.462   1.287  0.2711 -0.9330  0.3861
  329MOL   H12546701   3.063   5.450   1.445 -0.4533 -0.7730 -1.4431
  329MOL   H12646702   3.090   5.698   1.258 -1.6735  1.1557 -0.0106
  329MOL   H12746703   3.024   5.700   1.412 -3.8067 -0.0928 -0.8685
  329MOL   C12846704   2.846   5.678   1.206 -0.4417 -0.3364  0.5098
  329MOL   C12946705   2.747   5.617   1.106 -0.4132  0.1357  0.5160
  329MOL   O13046706   2.640   5.546   1.166  0.4377  0.1027 -0.3723
  329MOL   H13146707   2.785   5.729   1.281  1.4738  4.1965 -0.8522
  329MOL   H13246708   2.894   5.771   1.175 -2.6784  1.4243  2.1350
  329MOL   H13346709   2.789   5.569   1.018 -0.4703  0.9911  0.0169
  329MOL   H13446710   2.705   5.709   1.064  0.5748  0.4124  0.1237
  329MOL   C13546711   2.550   5.472   1.075  0.3447 -0.1375  0.2343
  329MOL   C13646712   2.418   5.436   1.143 -0.2075  0.6793  0.1513
  329MOL   O13746713   2.332   5.539   1.155 -0.1651  0.0912 -0.5454
  329MOL   H13846714   2.516   5.526   0.987  0.6549  1.0411  0.8319
  329MOL   H13946715   2.596   5.381   1.038  1.5836  1.0825 -1.2898
  329MOL   H14046716   2.444   5.393   1.239  0.0182  0.3709 -0.0469
  329MOL   H14146717   2.365   5.361   1.085 -0.9627  0.9698  0.4701
  329MOL   H14246718   2.384   5.618   1.160 -1.0292  0.5462  1.8570
  330MOL     C146719   6.383   6.323   7.532  0.5524 -0.0992  0.2597
  330MOL     C246720   6.501   6.263   7.607 -0.2802  0.5668  0.5515
  330MOL     O346721   6.567   6.341   7.700 -0.1477 -0.1626 -0.2272
  330MOL     H446722   6.313   6.247   7.498 -0.8372  2.3530 -2.6668
  330MOL     H546723   6.405   6.379   7.442 -0.7166 -1.2672 -0.7873
  330MOL     H646724   6.581   6.218   7.548 -1.7436 -1.4334  0.0419
  330MOL     H746725   6.458   6.177   7.659  1.0526 -0.6635 -0.3399
  330MOL     H846726   6.331   6.394   7.597  1.5482 -0.4625  1.4808
  330MOL     C946727   6.603   6.275   0.045  0.0285  0.3941 -0.1577
  330MOL    C1046728   6.672   6.378   0.141 -0.0933  0.4711  0.3254
  330MOL    O1146729   6.806   6.408   0.103 -0.4722  0.9091  0.2967
  330MOL    H1246730   6.517   6.227   0.091  1.2385 -3.9832 -2.2317
  330MOL    H1346731   6.680   6.200   0.023 -0.2650  0.2489 -0.6968
  330MOL    H1446732   6.668   6.360   0.249 -0.7754  0.2461  0.2620
  330MOL    H1546733   6.621   6.473   0.130 -0.1575  0.6577  2.0556
  330MOL    C1646734   6.856   6.516   0.182 -0.1676 -0.2015  0.5486
  330MOL    C1746735   7.000   6.533   0.134  0.0393 -0.2855  0.0618
  330MOL    O1846736   7.027   6.609   0.022  0.1449 -0.1457 -0.7041
  330MOL    H1946737   6.800   6.607   0.162  0.2403  0.0851  0.7294
  330MOL    H2046738   6.846   6.501   0.289 -1.9861  1.2804  0.6107
  330MOL    H2146739   7.047   6.435   0.121  0.7230 -0.0138  0.4301
  330MOL    H2246740   7.055   6.591   0.208 -2.1193  3.8277 -1.4573
  330MOL    C2346741   6.985   6.552   7.671  0.1766 -0.0431  0.3447
  330MOL    C2446742   7.028   6.636   7.549  0.5520  0.5134 -0.9220
  330MOL    O2546743   6.996   6.561   7.435 -0.4076  0.5919  0.3601
  330MOL    H2646744   7.031   6.453   7.657  0.9573  0.1110  1.7111
  330MOL    H2746745   6.877   6.541   7.670  0.1054  0.6699  0.0379
  330MOL    H2846746   7.130   6.673   7.551  1.5861 -2.2505  0.3314
  330MOL    H2946747   6.980   6.734   7.545 -2.2623 -0.8070 -0.9938
  330MOL    C3046748   7.035   6.612   7.317 -0.6563 -0.1000  0.3235
  330MOL    C3146749   7.020   6.500   7.212 -0.1003 -0.2611  0.5830
  330MOL    O3246750   6.893   6.454   7.189 -0.3993  0.1801 -0.2387
  330MOL    H3346751   6.990   6.709   7.296  0.4422  0.4612  0.5082
  330MOL    H3446752   7.138   6.648   7.319 -0.8057  0.4367 -1.0657
  330MOL    H3546753   7.094   6.425   7.241 -0.9460 -0.6372  1.8208
  330MOL    H3646754   7.063   6.541   7.120  0.9888 -1.3916  0.5651
  330MOL    C3746755   6.869   6.327   7.255 -0.1273 -0.3190 -0.4062
  330MOL    C3846756   6.720   6.294   7.252  0.2563  0.2853  0.4447
  330MOL    O3946757   6.660   6.280   7.121 -0.2720 -0.3858 -0.1518
  330MOL    H4046758   6.914   6.254   7.188  3.0493  3.3075 -2.4916
  330MOL    H4146759   6.908   6.317   7.356 -0.8413 -2.6049 -0.3371
  330MOL    H4246760   6.680   6.372   7.318 -2.7384 -1.5639  0.9125
  330MOL    H4346761   6.723   6.201   7.308  0.3000  0.9329  1.5418
  330MOL    C4446762   6.593   6.397   7.070 -0.6213  0.2648  0.3757
  330MOL    C4546763   6.482   6.354   6.973  0.4459 -0.3043  0.4545
  330MOL    O4646764   6.374   6.315   7.052 -0.4762  0.2216  0.3077
  330MOL    H4746765   6.556   6.461   7.151  1.8837 -0.0215  1.7805
  330MOL    H4846766   6.675   6.456   7.029 -0.2596 -0.1453  0.5074
  330MOL    H4946767   6.504   6.272   6.904  1.1634 -0.7779  1.2277
  330MOL    H5046768   6.456   6.426   6.895 -1.6292 -1.1391  0.3403
  330MOL    C5146769   6.268   6.250   6.978  0.2218 -0.3159 -0.2603
  330MOL    C5246770   6.159   6.338   6.922  0.9635 -0.3437 -0.5974
  330MOL    O5346771   6.069   6.396   7.022 -0.3584  0.5634  0.2516
  330MOL    H5446772   6.307   6.188   6.898  1.6800 -0.1114  0.2846
  330MOL    H5546773   6.211   6.176   7.035  0.6400 -0.2972  0.1837
  330MOL    H5646774   6.095   6.274   6.862  0.8896 -0.0127 -0.8732
  330MOL    H5746775   6.205   6.412   6.857  1.3689  0.2952  0.3975
  330MOL    C5846776   6.135   6.475   7.114 -0.3691  0.2252  0.2613
  330MOL    C5946777   6.039   6.552   7.198 -0.1724 -1.1539  0.2466
  330MOL    O6046778   6.015   6.498   7.329 -0.0942 -0.5223  0.7949
  330MOL    H6146779   6.210   6.426   7.178 -0.3313  0.4283  0.3715
  330MOL    H6246780   6.206   6.537   7.060 -1.2498 -0.0756 -1.2622
  330MOL    H6346781   5.941   6.549   7.150  0.1903  0.4503 -0.6555
  330MOL    H6446782   6.074   6.655   7.205 -0.1453 -1.1020 -0.6868
  330MOL    C6546783   5.998   6.359   7.338 -0.0415 -0.0587  0.6412
  330MOL    C6646784   5.875   6.307   7.274 -0.2310 -0.2262  0.3242
  330MOL    O6746785   5.841   6.182   7.333 -0.0469  0.4480  0.2461
  330MOL    H6846786   6.092   6.308   7.316  0.8500  2.3150 -1.2228
  330MOL    H6946787   5.988   6.344   7.446 -1.9101  0.4646  0.5537
  330MOL    H7046788   5.885   6.287   7.168 -0.8486 -0.8099  0.3718
  330MOL    H7146789   5.797   6.382   7.288  1.0039  1.4258 -1.3569
  330MOL    C7246790   5.714   6.129   7.278 -0.5607  0.0526  0.3024
  330MOL    C7346791   5.727   5.979   7.287  0.3288  0.5222  0.2014
  330MOL    O7446792   5.746   5.930   7.418 -0.2475  0.0128  0.0332
  330MOL    H7546793   5.622   6.156   7.329 -0.2296  2.4131 -0.2730
  330MOL    H7646794   5.706   6.161   7.174 -1.7976  1.3707  0.7807
  330MOL    H7746795   5.813   5.951   7.226 -0.7533 -0.7913 -0.7623
  330MOL    H7846796   5.646   5.916   7.251  1.6741 -1.3812  0.4228
  330MOL    C7946797   5.739   5.788   7.449 -0.6556 -1.3587 -0.8305
  330MOL    C8046798   5.597   5.751   7.476 -0.1879  0.4688  0.6130
  330MOL    O8146799   5.541   5.695   7.360 -0.1737  0.1908 -0.0526
  330MOL    H8246800   5.784   5.732   7.367  2.9436  1.7548 -1.0747
  330MOL    H8346801   5.796   5.784   7.542 -2.6335 -1.2975  0.4170
  330MOL    H8446802   5.545   5.845   7.495  0.0495  0.5818  0.6939
  330MOL    H8546803   5.586   5.683   7.561 -0.7408  0.9642  0.9435
  330MOL    C8646804   5.414   5.635   7.379 -0.0080 -0.0010  0.0232
  330MOL    C8746805   5.384   5.577   7.238  1.0015 -0.2862  0.8810
  330MOL    O8846806   5.460   5.454   7.218 -0.0858 -0.6218 -0.1433
  330MOL    H8946807   5.406   5.554   7.451  0.7318  2.4201  2.9084
  330MOL    H9046808   5.353   5.717   7.416  0.7051 -0.2666  1.8316
  330MOL    H9146809   5.398   5.656   7.165 -0.7224 -1.2153 -0.4652
  330MOL    H9246810   5.278   5.553   7.240  0.7247  0.9987  1.6760
  330MOL    C9346811   5.498   5.420   7.086  0.2534  0.0862  0.5148
  330MOL    C9446812   5.574   5.286   7.091  0.6167  0.0358 -0.8140
  330MOL    O9546813   5.486   5.180   7.110  0.2840 -0.5762 -0.1355
  330MOL    H9646814   5.408   5.406   7.025 -0.2648  0.0726  1.2741
  330MOL    H9746815   5.558   5.497   7.037  1.3764  0.9181  3.1363
  330MOL    H9846816   5.628   5.295   7.186 -0.6858  0.3435 -0.0906
  330MOL    H9946817   5.644   5.275   7.009 -2.0794  1.0838 -3.3415
  330MOL   C10046818   5.545   5.052   7.082  0.1515  0.6355  0.4242
  330MOL   C10146819   5.428   4.960   7.047  0.1281 -0.1635 -0.4041
  330MOL   O10246820   5.381   4.891   7.165  0.4051 -0.0431  0.0085
  330MOL   H10346821   5.610   5.062   6.995 -0.6180 -1.2581 -0.3951
  330MOL   H10446822   5.613   5.018   7.161  1.9013 -0.6250 -1.5541
  330MOL   H10546823   5.463   4.885   6.977  2.3436  0.4204  0.0417
  330MOL   H10646824   5.351   5.019   6.996  0.7057  1.7152  0.8397
  330MOL   C10746825   5.254   4.932   7.202  0.0084  0.1270  0.7176
  330MOL   C10846826   5.185   4.837   7.301 -0.3068  0.0378 -0.4088
  330MOL   O10946827   5.080   4.766   7.236 -0.0134 -0.2293 -0.0000
  330MOL   H11046828   5.264   5.023   7.261 -2.0785  2.3852 -2.2487
  330MOL   H11146829   5.186   4.942   7.117  0.3834  0.4752  0.4506
  330MOL   H11246830   5.144   4.889   7.387 -0.3950 -0.2911 -0.2533
  330MOL   H11346831   5.258   4.764   7.336 -0.1044  0.9998  1.1954
  330MOL   C11446832   5.017   4.670   7.314  0.0036 -0.5970 -0.3269
  330MOL   C11546833   4.883   4.632   7.235  0.6341  0.0350 -0.0378
  330MOL   O11646834   4.914   4.525   7.140  0.1026  0.2034 -0.0130
  330MOL   H11746835   5.084   4.586   7.333 -0.1457 -0.6295  0.0620
  330MOL   H11846836   5.001   4.715   7.412 -3.2138  0.2269 -1.1708
  330MOL   H11946837   4.845   4.726   7.195 -1.4817  0.8276  3.6643
  330MOL   H12046838   4.814   4.586   7.306  2.8993  0.2715  2.4101
  330MOL   C12146839   4.964   4.568   7.018  0.1987 -1.5355 -0.5455
  330MOL   C12246840   4.969   4.451   6.914  0.2231  0.0725 -0.4442
  330MOL   O12346841   5.032   4.487   6.793 -0.3213 -0.0420 -0.4594
  330MOL   H12446842   4.905   4.648   6.973  0.1413 -1.9048 -1.1259
  330MOL   H12546843   5.065   4.604   7.035 -0.7587  1.4729 -0.9042
  330MOL   H12646844   4.869   4.413   6.891  0.5123 -1.1017  0.1690
  330MOL   H12746845   5.017   4.358   6.947 -1.7820 -0.7624  0.2491
  330MOL   C12846846   4.954   4.491   6.677  0.5783 -0.4798 -0.0122
  330MOL   C12946847   4.888   4.360   6.634  0.6454  0.6071 -0.6194
  330MOL   O13046848   4.748   4.382   6.649  0.3119 -0.1817 -0.4508
  330MOL   H13146849   4.890   4.579   6.668  0.4244 -0.4440  1.4567
  330MOL   H13246850   5.022   4.512   6.594 -0.6529  0.7512 -0.7500
  330MOL   H13346851   4.909   4.266   6.685  1.5681  0.4765 -1.2171
  330MOL   H13446852   4.917   4.322   6.536  1.4083 -1.2213  0.2978
  330MOL   C13546853   4.673   4.284   6.589 -0.2431 -0.1513 -0.0922
  330MOL   C13646854   4.528   4.317   6.607  0.1467  0.1146  0.2209
  330MOL   O13746855   4.437   4.217   6.593  0.0970 -0.4235  0.2786
  330MOL   H13846856   4.703   4.281   6.485 -1.9327  0.5555 -0.6120
  330MOL   H13946857   4.688   4.186   6.636  0.1858 -0.0305  0.0300
  330MOL   H14046858   4.497   4.383   6.526 -0.0855  1.7471  1.6131
  330MOL   H14146859   4.503   4.367   6.701  0.6231  0.8195 -0.0255
  330MOL   H14246860   4.446   4.181   6.506 -2.2771 -0.7147  0.1260
  331MOL     C146861   0.633   4.788   1.491 -1.1485 -0.7294 -0.3794
  331MOL     C246862   0.677   4.647   1.474  0.2219  0.6409 -0.3982
  331MOL     O346863   0.731   4.587   1.593  0.2556 -0.4541  0.4501
  331MOL     H446864   0.720   4.852   1.508  0.2171 -2.3524 -1.0512
  331MOL     H546865   0.564   4.792   1.575  0.1217  0.8653  0.6160
  331MOL     H646866   0.740   4.646   1.385  0.9694  1.0159  0.1190
  331MOL     H746867   0.599   4.584   1.431  1.8885 -1.9823  0.2975
  331MOL     H846868   0.592   4.825   1.397 -0.1269  1.1529 -0.1229
  331MOL     C946869   0.868   4.619   1.602  0.2530 -0.0651 -1.0651
  331MOL    C1046870   0.926   4.553   1.716 -0.0762  0.7224 -0.3398
  331MOL    O1146871   0.888   4.623   1.839  0.2171  0.1545  0.1762
  331MOL    H1246872   0.899   4.562   1.513  0.4194  0.1923 -1.1728
  331MOL    H1346873   0.883   4.725   1.584  0.2792 -0.1329 -1.4548
  331MOL    H1446874   1.034   4.562   1.702  0.1892 -1.0976  0.3771
  331MOL    H1546875   0.909   4.446   1.723 -0.9302  0.8819  0.1748
  331MOL    C1646876   0.942   4.557   1.953  0.2275 -0.4809 -0.5042
  331MOL    C1746877   0.832   4.469   2.018 -0.6380  0.2762  1.1584
  331MOL    O1846878   0.729   4.537   2.085  0.4391  0.0168  0.0706
  331MOL    H1946879   1.027   4.497   1.921 -2.2268 -4.0585 -0.5572
  331MOL    H2046880   0.974   4.628   2.029 -0.6295 -1.9121  1.2069
  331MOL    H2146881   0.876   4.388   2.074 -1.4007 -0.2488  1.0072
  331MOL    H2246882   0.775   4.412   1.945 -1.3805  0.7157  1.3791
  331MOL    C2346883   0.758   4.558   2.225  0.5312 -0.4048  0.1585
  331MOL    C2446884   0.657   4.654   2.283 -0.0538 -0.0911  0.3715
  331MOL    O2546885   0.692   4.792   2.257 -0.0093 -1.2649  0.0808
  331MOL    H2646886   0.753   4.464   2.280 -1.9188  0.2238  1.0557
  331MOL    H2746887   0.860   4.593   2.243 -0.2220  0.8031  2.1635
  331MOL    H2846888   0.654   4.643   2.391 -0.7278 -0.2923  0.3354
  331MOL    H2946889   0.558   4.622   2.250  0.2736 -0.5451 -0.1957
  331MOL    C3046890   0.627   4.832   2.134  0.1112 -0.0167 -0.1470
  331MOL    C3146891   0.700   4.943   2.060 -0.0272 -0.0320  0.1136
  331MOL    O3246892   0.688   5.066   2.128 -0.8659 -0.0440  0.1091
  331MOL    H3346893   0.599   4.748   2.070  1.1999 -1.9034  1.7916
  331MOL    H3446894   0.529   4.864   2.171  0.5680 -0.4828  1.5069
  331MOL    H3546895   0.664   4.943   1.957 -0.9016  0.1134  0.4136
  331MOL    H3646896   0.801   4.903   2.050 -0.3599 -0.7662 -0.3375
  331MOL    C3746897   0.757   5.175   2.065 -0.2940 -0.9267  0.6437
  331MOL    C3846898   0.757   5.291   2.158 -0.3685  0.0953  0.7039
  331MOL    O3946899   0.629   5.353   2.137  0.4072  0.4737 -0.1775
  331MOL    H4046900   0.863   5.158   2.049 -0.1442  0.1275  0.5066
  331MOL    H4146901   0.718   5.193   1.965  0.0670  0.6687  0.7730
  331MOL    H4246902   0.837   5.359   2.131 -1.0552 -0.0813 -1.9219
  331MOL    H4346903   0.766   5.260   2.262  0.8377 -1.3763  0.1856
  331MOL    C4446904   0.615   5.472   2.206  0.0377  0.5043 -0.2988
  331MOL    C4546905   0.472   5.512   2.223  0.1119 -0.6623  0.3205
  331MOL    O4646906   0.410   5.576   2.111 -0.3687  0.4884  0.2377
  331MOL    H4746907   0.632   5.446   2.311 -0.6476  1.4260  0.0446
  331MOL    H4846908   0.685   5.547   2.168  2.1155 -0.9349  0.5506
  331MOL    H4946909   0.466   5.592   2.297 -2.9883 -0.3627 -0.1621
  331MOL    H5046910   0.411   5.427   2.256 -0.5459  0.3985  1.9043
  331MOL    C5146911   0.397   5.490   2.002  0.4997  0.5141 -0.5826
  331MOL    C5246912   0.310   5.560   1.894  0.3363 -0.4627 -0.1994
  331MOL    O5346913   0.383   5.659   1.817  0.3579 -0.5678  0.6781
  331MOL    H5446914   0.495   5.460   1.964  0.3913 -0.6055  0.0047
  331MOL    H5546915   0.349   5.395   2.025 -0.1819  0.9075 -0.3428
  331MOL    H5646916   0.222   5.590   1.951  0.7253  0.9918 -0.3519
  331MOL    H5746917   0.271   5.476   1.837  0.6043 -1.6249  1.2848
  331MOL    C5846918   0.293   5.752   1.748 -0.1103  0.3437  0.2601
  331MOL    C5946919   0.217   5.687   1.631  0.5625  0.2510 -0.0602
  331MOL    O6046920   0.309   5.637   1.535  0.0252  0.1128 -0.0831
  331MOL    H6146921   0.223   5.797   1.819 -1.7182  0.5409 -1.4091
  331MOL    H6246922   0.364   5.822   1.706  0.6755 -1.0827 -0.8474
  331MOL    H6346923   0.158   5.764   1.583  0.3812 -0.6980 -1.3919
  331MOL    H6446924   0.152   5.606   1.665 -0.5085  1.7742  1.6518
  331MOL    C6546925   0.240   5.571   1.426  0.5079  0.5912  0.4210
  331MOL    C6646926   0.324   5.579   1.294  0.0888 -0.0615  0.1263
  331MOL    O6746927   0.315   5.712   1.240 -0.4723 -0.3098  0.6794
  331MOL    H6846928   0.235   5.463   1.442  0.5459  0.8946  2.6435
  331MOL    H6946929   0.142   5.616   1.409  1.7011  3.9287  1.9340
  331MOL    H7046930   0.270   5.521   1.218 -1.4038 -0.6592  1.6194
  331MOL    H7146931   0.425   5.543   1.315 -0.0009  1.0901  2.6254
  331MOL    C7246932   0.432   5.801   1.267  0.2432  0.8624  0.6244
  331MOL    C7346933   0.516   5.808   1.141  0.5427 -0.2853 -0.4859
  331MOL    O7446934   0.590   5.687   1.125 -0.5329 -0.2854 -0.7894
  331MOL    H7546935   0.394   5.898   1.299 -1.2852  0.7917 -0.9244
  331MOL    H7646936   0.488   5.752   1.348  0.7030 -1.2051 -0.9021
  331MOL    H7746937   0.577   5.896   1.120 -1.4648  1.5891  1.4338
  331MOL    H7846938   0.442   5.802   1.061 -0.6033 -1.0978  0.6170
  331MOL    C7946939   0.715   5.679   1.182  0.2044  0.3742 -0.0189
  331MOL    C8046940   0.793   5.566   1.113  0.2136  0.2570 -0.0486
  331MOL    O8146941   0.918   5.541   1.175 -0.2931 -0.3456  0.1661
  331MOL    H8246942   0.764   5.776   1.175  1.0121 -0.1461 -1.8177
  331MOL    H8346943   0.700   5.658   1.288 -1.0339 -2.5293 -0.7225
  331MOL    H8446944   0.811   5.599   1.011 -2.0071  0.3268 -0.4272
  331MOL    H8546945   0.732   5.477   1.104  1.0730 -0.3305 -0.0919
  331MOL    C8646946   1.023   5.484   1.100 -0.0027 -0.0506 -0.0412
  331MOL    C8746947   1.141   5.488   1.192 -0.1574 -0.7196 -0.4840
  331MOL    O8846948   1.176   5.623   1.227  0.0324  0.0920 -0.0129
  331MOL    H8946949   0.991   5.382   1.077 -0.9481 -0.4298  2.6928
  331MOL    H9046950   1.034   5.538   1.007  2.5663 -0.1962  0.1359
  331MOL    H9146951   1.223   5.429   1.151  1.6883  1.1342  0.4269
  331MOL    H9246952   1.121   5.446   1.290 -1.1423 -0.6096 -0.6412
  331MOL    C9346953   1.281   5.635   1.315 -0.4590 -0.3248 -0.1143
  331MOL    C9446954   1.365   5.756   1.263  0.1836  0.9866 -0.1284
  331MOL    O9546955   1.490   5.760   1.335 -0.1756  0.3926  0.3718
  331MOL    H9646956   1.257   5.645   1.421  2.8043 -2.0775  0.8931
  331MOL    H9746957   1.342   5.546   1.295 -1.7282 -0.8178 -1.8730
  331MOL    H9846958   1.309   5.849   1.276  1.6167  1.9313 -0.5703
  331MOL    H9946959   1.388   5.745   1.157  1.8562  2.0849  0.1002
  331MOL   C10046960   1.478   5.786   1.474  0.0886  0.5019  0.1550
  331MOL   C10146961   1.513   5.930   1.512 -0.4135 -0.1667  0.4867
  331MOL   O10246962   1.652   5.952   1.510  0.1598 -0.3453  0.0763
  331MOL   H10346963   1.379   5.762   1.512  0.5528 -3.5466 -0.8898
  331MOL   H10446964   1.542   5.717   1.529  0.6165  0.1983 -0.8192
  331MOL   H10546965   1.481   5.959   1.612 -1.0588 -0.0611  0.2516
  331MOL   H10646966   1.453   6.004   1.458  2.8876  1.1159 -1.5835
  331MOL   C10746967   1.689   6.083   1.464  0.2783  0.2330 -0.8553
  331MOL   C10846968   1.835   6.108   1.484  0.5959 -0.3112  0.1122
  331MOL   O10946969   1.835   6.194   1.593 -0.5036 -0.3344  0.7205
  331MOL   H11046970   1.657   6.102   1.361  2.2617 -0.4973 -1.6164
  331MOL   H11146971   1.639   6.157   1.526 -0.4810  0.0484 -1.2376
  331MOL   H11246972   1.878   6.163   1.400 -1.6622  3.8582  1.4886
  331MOL   H11346973   1.879   6.011   1.506  0.7590  0.1814  2.0977
  331MOL   C11446974   1.958   6.252   1.628 -0.3124  0.0575  0.1124
  331MOL   C11546975   1.916   6.385   1.697 -0.4886  0.0791  0.6847
  331MOL   O11646976   1.864   6.470   1.601 -0.6958 -0.2745 -0.4076
  331MOL   H11746977   2.011   6.194   1.703  1.3970 -0.6487 -1.6277
  331MOL   H11846978   2.011   6.254   1.534 -2.7533  0.2115 -1.3063
  331MOL   H11946979   2.002   6.438   1.739 -0.5808  0.0922  0.8617
  331MOL   H12046980   1.849   6.367   1.782  0.0314 -2.2475  0.6370
  331MOL   C12146981   1.808   6.586   1.655  0.1528  0.0935  0.3385
  331MOL   C12246982   1.731   6.654   1.551  0.5146  0.0003  0.2159
  331MOL   O12346983   1.597   6.593   1.529 -0.4717  0.2485  0.4237
  331MOL   H12446984   1.740   6.568   1.738 -0.2173 -0.9674 -0.1841
  331MOL   H12546985   1.891   6.647   1.693 -0.1331 -0.3628  1.7394
  331MOL   H12646986   1.781   6.662   1.454  0.8004 -1.0660  0.2709
  331MOL   H12746987   1.718   6.757   1.585  0.9692 -0.6096  2.2917
  331MOL   C12846988   1.599   6.473   1.458 -0.1794 -0.1888 -0.0180
  331MOL   C12946989   1.459   6.411   1.448 -0.0809 -0.1383 -0.6025
  331MOL   O13046990   1.390   6.489   1.355 -0.0747 -0.0902 -0.0458
  331MOL   H13146991   1.626   6.488   1.353 -0.6025  0.5974 -0.0200
  331MOL   H13246992   1.669   6.406   1.507  0.5935 -1.1168 -2.3380
  331MOL   H13346993   1.412   6.408   1.546  4.3986 -3.1092  1.6733
  331MOL   H13446994   1.455   6.310   1.406 -0.0678  0.8364 -3.0010
  331MOL   C13546995   1.249   6.488   1.373  0.6185  0.2816  0.0390
  331MOL   C13646996   1.209   6.582   1.488 -0.3171  0.1553  0.0392
  331MOL   O13746997   1.184   6.519   1.600 -0.0819  0.1698  0.6068
  331MOL   H13846998   1.209   6.514   1.276  2.0409 -1.6023 -1.0881
  331MOL   H13946999   1.209   6.387   1.384  2.1809 -0.4171 -0.5545
  331MOL   H14047000   1.118   6.633   1.456 -0.6219  0.1502  0.8912
  331MOL   H14147001   1.285   6.658   1.503 -0.1847 -0.2468  1.5380
  331MOL   H14247002   1.163   6.428   1.582 -0.4427  0.1480  1.0976
  332MOL     C147003   5.552   7.481   3.452  0.0584 -0.2464  0.5099
  332MOL     C247004   5.525   7.384   3.343  0.4357  0.3816  0.3741
  332MOL     O347005   5.609   7.272   3.357 -0.3870 -0.2298 -0.3730
  332MOL     H447006   5.521   7.435   3.546  2.6607 -2.2642  0.4163
  332MOL     H547007   5.487   7.566   3.428  0.3973  0.0786  0.7337
  332MOL     H647008   5.545   7.435   3.249 -2.0073  3.0709  1.2554
  332MOL     H747009   5.418   7.361   3.337  0.2103  1.1156  1.4304
  332MOL     H847010   5.656   7.513   3.457  0.0825 -0.4568  1.3930
  332MOL     C947011   5.599   7.187   3.242  0.4103  0.1412 -0.8021
  332MOL    C1047012   5.675   7.060   3.255  0.8756 -0.1361  0.2790
  332MOL    O1147013   5.602   6.955   3.323  0.2775 -0.0130  0.1246
  332MOL    H1247014   5.493   7.165   3.228  0.4021 -0.4958  0.2084
  332MOL    H1347015   5.639   7.238   3.155  1.3014  0.2669 -0.3273
  332MOL    H1447016   5.779   7.075   3.285  1.4189  0.7495 -1.9470
  332MOL    H1547017   5.682   7.017   3.155 -0.7963  0.2376 -0.0116
  332MOL    C1647018   5.614   6.961   3.459 -0.1428 -0.2962 -0.6141
  332MOL    C1747019   5.495   6.887   3.516  0.7000  0.1555 -0.7919
  332MOL    O1847020   5.495   6.846   3.654 -0.2741 -0.2660  0.0100
  332MOL    H1947021   5.710   6.915   3.482  0.3626  0.6654 -0.8147
  332MOL    H2047022   5.642   7.054   3.508  0.2010 -0.1520 -1.0781
  332MOL    H2147023   5.456   6.801   3.460 -0.1655 -0.3976  0.6254
  332MOL    H2247024   5.413   6.958   3.527 -0.0694 -0.2184 -3.5476
  332MOL    C2347025   5.611   6.877   3.734  0.2486  0.3092  0.7628
  332MOL    C2447026   5.578   6.846   3.879 -0.0763  0.1415 -0.5320
  332MOL    O2547027   5.547   6.705   3.885 -0.2361  0.0188 -0.3288
  332MOL    H2647028   5.704   6.830   3.702 -0.9876 -1.9761  0.4226
  332MOL    H2747029   5.636   6.982   3.719  0.3213  0.1069 -0.6437
  332MOL    H2847030   5.501   6.910   3.921  2.2717  3.9444 -1.7480
  332MOL    H2947031   5.664   6.863   3.944 -0.5583 -1.3463  0.5255
  332MOL    C3047032   5.501   6.665   4.018  0.1531  0.3065  0.0446
  332MOL    C3147033   5.593   6.684   4.136 -0.2481 -0.1799 -0.7444
  332MOL    O3247034   5.599   6.821   4.173 -0.5024  0.0447  0.2834
  332MOL    H3347035   5.408   6.718   4.038 -0.0625 -0.3892  0.9346
  332MOL    H3447036   5.480   6.559   4.012 -1.1846  0.5193  0.7518
  332MOL    H3547037   5.692   6.654   4.102  0.0972  2.4892 -2.2388
  332MOL    H3647038   5.564   6.628   4.225 -0.7197 -0.3834 -1.0239
  332MOL    C3747039   5.694   6.862   4.265 -0.3781  0.0549  0.3594
  332MOL    C3847040   5.757   6.996   4.226 -0.2472  0.1502  0.3671
  332MOL    O3947041   5.829   6.980   4.112 -0.2627  0.5935  0.3225
  332MOL    H4047042   5.646   6.864   4.362 -1.0460 -1.0198  0.0627
  332MOL    H4147043   5.768   6.782   4.263 -1.5829 -1.0642 -0.5288
  332MOL    H4247044   5.829   7.024   4.302  0.9290 -0.2414 -0.5901
  332MOL    H4347045   5.682   7.074   4.215 -1.7003 -1.2818 -0.1931
  332MOL    C4447046   5.883   7.099   4.063  0.6202 -0.7372 -0.3900
  332MOL    C4547047   5.788   7.161   3.966  0.1593  0.1280  0.4543
  332MOL    O4647048   5.857   7.236   3.868  0.5309  0.2479 -0.0280
  332MOL    H4747049   5.930   7.171   4.129  0.4549 -2.5496  1.7561
  332MOL    H4847050   5.963   7.068   3.994 -0.1021 -1.1350 -1.0599
  332MOL    H4947051   5.731   7.237   4.019 -1.2103 -0.4734 -0.1260
  332MOL    H5047052   5.731   7.082   3.917  2.1334 -1.7193  1.0385
  332MOL    C5147053   5.770   7.311   3.788 -0.0688  0.1034 -0.4627
  332MOL    C5247054   5.851   7.409   3.708 -0.1653  0.2264 -0.2079
  332MOL    O5347055   5.949   7.342   3.629  0.0813  0.1244 -0.2530
  332MOL    H5447056   5.717   7.238   3.725 -0.9932 -0.3149  0.7769
  332MOL    H5547057   5.691   7.366   3.840  0.1266  0.1808 -0.2514
  332MOL    H5647058   5.921   7.458   3.776 -1.1411  1.3857 -0.0309
  332MOL    H5747059   5.803   7.486   3.648 -0.1361 -0.0703 -0.6158
  332MOL    C5847060   5.903   7.300   3.505  0.3609  0.0971  1.2719
  332MOL    C5947061   6.013   7.259   3.408 -0.0108 -0.0145  0.0065
  332MOL    O6047062   5.959   7.247   3.275  0.3616  0.2885 -0.1877
  332MOL    H6147063   5.830   7.220   3.518  0.6435 -1.0688 -3.2768
  332MOL    H6247064   5.854   7.381   3.452 -1.8761 -0.8573  1.8477
  332MOL    H6347065   6.052   7.163   3.442 -1.2125 -0.2072  0.8472
  332MOL    H6447066   6.090   7.337   3.408  1.6190 -1.5789  0.0123
  332MOL    C6547067   6.066   7.190   3.196  0.5158 -0.1066  0.3654
  332MOL    C6647068   6.018   7.158   3.048  0.2538  0.1479  1.0682
  332MOL    O6747069   6.082   7.239   2.950  0.4767 -0.1679  0.0624
  332MOL    H6847070   6.148   7.262   3.188 -0.3386  1.2189  3.1034
  332MOL    H6947071   6.102   7.097   3.241 -1.7056 -0.3006  1.8182
  332MOL    H7047072   5.911   7.181   3.049  0.7114  2.3912  0.9820
  332MOL    H7147073   6.036   7.053   3.022 -0.6611  0.2055  0.1485
  332MOL    C7247074   6.183   7.181   2.871  0.8837  0.3636 -0.1841
  332MOL    C7347075   6.228   7.277   2.764  0.4714 -0.2849 -0.2014
  332MOL    O7447076   6.344   7.232   2.695 -0.0196 -0.0089 -0.0698
  332MOL    H7547077   6.269   7.162   2.936  0.4390  1.0595  0.6185
  332MOL    H7647078   6.153   7.091   2.818  1.3879 -0.7083  1.3005
  332MOL    H7747079   6.246   7.375   2.806 -0.4050  0.1016 -0.7070
  332MOL    H7847080   6.137   7.272   2.704  0.1089 -3.0539  0.4856
  332MOL    C7947081   6.408   7.340   2.628 -0.5624  0.0262 -0.1578
  332MOL    C8047082   6.336   7.389   2.501  0.0759  0.9317  0.1853
  332MOL    O8147083   6.205   7.437   2.527 -0.8559 -0.3812  0.4917
  332MOL    H8247084   6.428   7.420   2.699 -1.3779  0.8029 -0.8040
  332MOL    H8347085   6.509   7.304   2.606 -1.2599 -2.1303 -0.0364
  332MOL    H8447086   6.330   7.302   2.436 -0.7120  0.3534  1.0237
  332MOL    H8547087   6.397   7.460   2.444  1.5553 -0.6659 -0.2553
  332MOL    C8647088   6.162   7.541   2.440  0.2659  0.7754  0.6667
  332MOL    C8747089   6.019   7.581   2.485  0.3266  0.2510  0.4205
  332MOL    O8847090   6.020   7.659   2.607  0.2056 -0.3354  0.5386
  332MOL    H8947091   6.227   7.628   2.449 -2.1884  2.5737  1.4959
  332MOL    H9047092   6.172   7.510   2.336 -0.8941  0.9664  0.4907
  332MOL    H9147093   5.963   7.494   2.516  0.6360 -0.6420 -1.4949
  332MOL    H9247094   5.966   7.638   2.409 -1.8173 -0.0206  1.6904
  332MOL    C9347095   5.890   7.708   2.640 -0.3150  0.0136  0.5007
  332MOL    C9447096   5.896   0.014   2.772  0.8335  0.3768  0.8888
  332MOL    O9547097   5.906   0.147   2.742  0.2070  0.8561 -0.7674
  332MOL    H9647098   5.838   0.003   2.571 -0.2556 -1.0652 -0.5869
  332MOL    H9747099   5.830   7.619   2.660 -0.1729 -0.1400  0.2352
  332MOL    H9847100   5.977   7.745   2.833  1.1716  2.2002  1.6570
  332MOL    H9947101   5.805   0.000   2.830  0.0213 -0.2700 -0.4953
  332MOL   C10047102   6.043   0.179   2.704 -0.2645  0.9675 -0.3109
  332MOL   C10147103   6.048   0.334   2.675  0.3338 -0.2018 -0.4316
  332MOL   O10247104   6.045   0.405   2.799 -0.3672 -0.1918 -0.2295
  332MOL   H10347105   6.122   0.155   2.775 -1.2723  2.5527  1.3868
  332MOL   H10447106   6.072   0.124   2.615  1.0524 -0.0602  0.7409
  332MOL   H10547107   5.955   0.366   2.627  0.5281  1.5489  0.3261
  332MOL   H10647108   6.133   0.366   2.615 -0.7253  1.2592 -1.1803
  332MOL   C10747109   6.058   0.544   2.779 -0.4173 -0.0079 -0.1774
  332MOL   C10847110   6.093   0.607   2.916 -0.3273  0.2460  0.0036
  332MOL   O10947111   5.980   0.664   2.986 -0.2589 -0.4368  0.3134
  332MOL   H11047112   6.139   0.578   2.715  0.2803 -0.1215  0.6420
  332MOL   H11147113   5.961   0.583   2.748 -1.5810 -2.7900 -0.1482
  332MOL   H11247114   6.166   0.686   2.899  1.4932 -1.0570  1.5298
  332MOL   H11347115   6.157   0.542   2.975  2.6518  0.8549 -2.4475
  332MOL   C11447116   6.022   0.758   3.083  0.6403 -0.5015  0.5154
  332MOL   C11547117   5.904   0.794   3.169 -0.2994 -0.2603 -0.5727
  332MOL   O11647118   5.876   0.675   3.243  0.4258  0.3274  0.0916
  332MOL   H11747119   6.105   0.715   3.139 -1.2010 -3.0305  1.3826
  332MOL   H11847120   6.059   0.850   3.036  1.2236 -0.8897  0.2137
  332MOL   H11947121   5.817   0.817   3.108  0.1252  1.5526 -0.5275
  332MOL   H12047122   5.938   0.879   3.229  1.1303  0.8380 -2.8863
  332MOL   C12147123   5.774   0.698   3.340  0.0192  0.1240  0.1114
  332MOL   C12247124   5.733   0.567   3.409  0.2592 -0.3337  0.1985
  332MOL   O12347125   5.792   0.561   3.537  0.3204  0.0493 -0.3828
  332MOL   H12447126   5.809   0.766   3.418 -0.1914 -0.2442  0.5255
  332MOL   H12547127   5.686   0.739   3.291 -0.4276  0.7955  1.4376
  332MOL   H12647128   5.763   0.482   3.348 -2.2396 -0.7664 -0.4640
  332MOL   H12747129   5.626   0.550   3.408  0.4879 -1.8072 -1.9932
  332MOL   C12847130   5.726   0.630   3.646 -0.0460 -0.0337 -0.7117
  332MOL   C12947131   5.794   0.615   3.781  0.4295  0.1381  0.1038
  332MOL   O13047132   5.915   0.693   3.778 -0.1843 -0.7552  0.2632
  332MOL   H13147133   5.714   0.732   3.609  1.4531  0.1015 -0.8797
  332MOL   H13247134   5.627   0.585   3.653 -0.3738  0.9016  0.8571
  332MOL   H13347135   5.815   0.508   3.788  0.5836  0.2602  1.6287
  332MOL   H13447136   5.721   0.642   3.857  1.5506 -0.7241  1.4876
  332MOL   C13547137   6.011   0.643   3.881  0.0951 -0.4814 -0.1266
  332MOL   C13647138   6.157   0.648   3.833 -0.0544 -0.3815 -0.0996
  332MOL   O13747139   6.249   0.590   3.925  0.1807  0.1994 -0.2956
  332MOL   H13847140   6.003   0.705   3.970 -1.2143  0.1656 -0.6885
  332MOL   H13947141   5.995   0.543   3.923 -0.4735 -0.2769  0.1457
  332MOL   H14047142   6.189   0.751   3.819  1.9266 -1.0476 -0.7057
  332MOL   H14147143   6.166   0.588   3.742 -2.1476  0.7819 -1.1107
  332MOL   H14247144   6.243   0.496   3.917  1.4308 -0.0567  1.5564
  333MOL     C147145   7.205   1.042   3.803 -0.4543  0.4819  0.0890
  333MOL     C247146   7.354   1.008   3.799 -0.1145 -0.2082 -0.2754
  333MOL     O347147   7.374   0.862   3.818 -0.4539  0.4717 -0.3827
  333MOL     H447148   7.202   1.150   3.791 -1.4490  0.8855  3.4795
  333MOL     H547149   7.155   1.012   3.895  2.8115  1.1418  2.1220
  333MOL     H647150   7.400   1.068   3.878 -3.2634  0.7203  0.9338
  333MOL     H747151   7.396   1.037   3.703 -1.3580 -2.3441 -1.5058
  333MOL     H847152   7.158   1.000   3.714  2.2896 -0.8618 -0.7938
  333MOL     C947153   7.512   0.834   3.797  0.5949 -0.3809  0.1193
  333MOL    C1047154   7.535   0.679   3.792  0.3687  0.9563 -0.6208
  333MOL    O1147155   7.543   0.621   3.920 -0.1407 -0.1800  0.2422
  333MOL    H1247156   7.557   0.884   3.711 -1.0252  1.5690  0.3755
  333MOL    H1347157   7.569   0.867   3.883  0.6823  3.9366 -1.4601
  333MOL    H1447158   7.626   0.648   3.741 -1.0228 -0.4790 -2.2994
  333MOL    H1547159   7.454   0.636   3.733 -1.7261  0.5508  2.4946
  333MOL    C1647160   7.421   0.594   3.988  0.0571  0.1743  0.4648
  333MOL    C1747161   7.445   0.539   4.139 -0.0184 -1.5321  0.3505
  333MOL    O1847162   7.336   0.588   4.221 -0.0252  0.2013  0.6722
  333MOL    H1947163   7.371   0.691   3.994 -1.6600 -0.4962 -2.2760
  333MOL    H2047164   7.351   0.530   3.935  1.3609 -1.8580  1.1459
  333MOL    H2147165   7.528   0.595   4.182 -0.9096 -1.1115  1.5492
  333MOL    H2247166   7.468   0.433   4.142  0.9033 -1.3337  0.6078
  333MOL    C2347167   7.339   0.540   4.356 -0.2501  0.4804  0.2205
  333MOL    C2447168   7.213   0.573   4.427 -0.6610 -0.3810  0.7804
  333MOL    O2547169   7.113   0.489   4.388 -0.2091  0.4742  0.7424
  333MOL    H2647170   7.353   0.433   4.348 -0.7921  0.4507 -0.2897
  333MOL    H2747171   7.432   0.579   4.400  0.8438 -1.6079 -0.1892
  333MOL    H2847172   7.175   0.669   4.393  0.1117 -1.1604 -2.5090
  333MOL    H2947173   7.234   0.574   4.534 -2.4475  0.5385  1.1392
  333MOL    C3047174   6.997   0.487   4.473 -0.1894 -0.4870 -0.3069
  333MOL    C3147175   6.898   0.392   4.427 -0.1056  0.2205 -0.4639
  333MOL    O3247176   6.932   0.255   4.458  0.1714  0.6979  0.3292
  333MOL    H3347177   7.030   0.466   4.575 -2.4950 -1.8597  0.1970
  333MOL    H3447178   6.946   0.584   4.470 -0.3097 -0.5795 -1.1724
  333MOL    H3547179   6.870   0.404   4.322  1.6397  2.4193 -0.7391
  333MOL    H3647180   6.805   0.411   4.479 -0.5262  0.3922 -1.2712
  333MOL    C3747181   6.889   0.162   4.363  0.0451  0.2930  0.0688
  333MOL    C3847182   6.932   0.025   4.397 -0.0412 -0.5188 -0.3955
  333MOL    O3947183   6.848   7.727   4.493 -0.7070 -0.0738 -0.2211
  333MOL    H4047184   6.787   0.163   4.325  0.6082  1.5267 -1.4931
  333MOL    H4147185   6.927   0.176   4.261 -1.1959 -1.5172 -0.6670
  333MOL    H4247186   7.037   0.019   4.428  0.6907  3.6236 -1.7584
  333MOL    H4347187   6.924   7.747   4.300 -1.7211  0.5420 -0.8055
  333MOL    C4447188   6.884   7.591   4.510 -0.2723 -0.3557  0.5577
  333MOL    C4547189   6.828   7.522   4.636 -0.0717 -0.7746 -0.6160
  333MOL    O4647190   6.849   7.380   4.625 -0.2339  0.9497  0.0330
  333MOL    H4747191   6.842   7.550   4.418  1.3165  0.1558 -0.4230
  333MOL    H4847192   6.993   7.587   4.504 -0.3425  0.1004 -1.3748
  333MOL    H4947193   6.721   7.543   4.637  0.3246  1.4285  1.1031
  333MOL    H5047194   6.875   7.569   4.723  0.0863 -2.1995  0.0943
  333MOL    C5147195   6.803   7.317   4.742 -0.0215  0.0772 -0.0551
  333MOL    C5247196   6.825   7.169   4.729 -0.1960  0.7009 -1.1142
  333MOL    O5347197   6.958   7.137   4.754  0.1632  0.1929 -0.4540
  333MOL    H5447198   6.866   7.356   4.822  0.4399  1.4637 -1.0511
  333MOL    H5547199   6.699   7.347   4.744 -0.4228 -1.0467 -2.1280
  333MOL    H5647200   6.801   7.139   4.627 -3.5583  0.6127 -0.3420
  333MOL    H5747201   6.765   7.112   4.800 -0.3245 -0.6185 -2.2661
  333MOL    C5847202   6.992   7.003   4.772 -0.5461 -0.2946 -0.3136
  333MOL    C5947203   7.144   6.986   4.817 -0.1011  0.2604  0.0342
  333MOL    O6047204   7.244   7.043   4.731 -0.2433 -0.1519 -0.5347
  333MOL    H6147205   6.929   6.953   4.846 -0.4880  0.6700  0.3976
  333MOL    H6247206   6.979   6.941   4.683 -0.4334 -1.0459  0.1789
  333MOL    H6347207   7.183   6.889   4.846  1.6512  0.4398 -1.6090
  333MOL    H6447208   7.164   7.044   4.907  1.6502 -1.1019  0.5470
  333MOL    C6547209   7.279   6.948   4.631 -0.4750 -0.1023 -0.1780
  333MOL    C6647210   7.419   6.991   4.568  0.2209 -0.3587 -0.3212
  333MOL    O6747211   7.454   6.907   4.461  0.3042  0.4325  0.0702
  333MOL    H6847212   7.282   6.844   4.662 -0.8980 -0.7740 -2.2944
  333MOL    H6947213   7.197   6.941   4.561  0.1944 -0.1572 -0.9646
  333MOL    H7047214   7.492   6.989   4.648 -1.8554 -1.6383  1.5966
  333MOL    H7147215   7.416   7.094   4.531  0.3059 -0.1713  0.1901
  333MOL    C7247216   7.574   6.937   4.392 -0.3030 -0.1976  0.1602
  333MOL    C7347217   7.599   6.833   4.288  0.0918  0.0218  0.3765
  333MOL    O7447218   7.713   6.882   4.217  0.2050 -0.2040  0.1845
  333MOL    H7547219   7.557   7.037   4.352  2.8614  0.7329  0.9749
  333MOL    H7647220   7.654   6.918   4.464 -1.6513 -0.0881  1.7270
  333MOL    H7747221   7.503   6.820   4.238  0.5014 -1.8048  0.0492
  333MOL    H7847222   7.646   6.750   4.339  0.0579  0.1674  0.6480
  333MOL    C7947223   7.739   6.813   4.094  0.4015  0.4481  0.9056
  333MOL    C8047224   0.071   6.896   4.021 -0.3962  0.4529  0.0563
  333MOL    O8147225   0.194   6.870   4.084 -0.0069  0.1814 -0.0195
  333MOL    H8247226   0.009   6.716   4.123 -0.8841 -1.5898 -3.7396
  333MOL    H8347227   7.656   6.799   4.025 -0.5296  2.4005  1.5779
  333MOL    H8447228   0.049   7.001   4.037 -1.6394  0.3130 -0.7205
  333MOL    H8547229   0.063   6.876   3.914 -0.9095  0.4797  0.0887
  333MOL    C8647230   0.291   6.941   4.010  0.0957  0.0101  1.1084
  333MOL    C8747231   0.427   6.908   4.065  0.3014 -0.8024 -0.0493
  333MOL    O8847232   0.470   6.777   4.032  0.7131  0.1136  0.8015
  333MOL    H8947233   0.291   6.934   3.901 -0.9435  1.0771  1.0345
  333MOL    H9047234   0.272   7.047   4.022 -1.4153  0.0027 -0.9764
  333MOL    H9147235   0.418   6.920   4.173  0.2250 -3.2277  0.2293
  333MOL    H9247236   0.495   6.982   4.023 -0.3385 -0.6516 -0.8217
  333MOL    C9347237   0.595   6.743   4.093 -0.8655  0.4070  0.2545
  333MOL    C9447238   0.632   6.597   4.071 -0.2989 -0.5019 -0.4582
  333MOL    O9547239   0.658   6.568   3.929 -0.4007 -0.4546  0.7333
  333MOL    H9647240   0.670   6.810   4.049  2.2949 -2.4386  1.1100
  333MOL    H9747241   0.595   6.766   4.199 -0.3878 -2.1718  0.8253
  333MOL    H9847242   0.559   6.527   4.109  1.4474 -1.4179  1.2820
  333MOL    H9947243   0.723   6.570   4.124 -0.8081  1.0891  1.2748
  333MOL   C10047244   0.549   6.514   3.851 -0.6702 -0.1711 -0.5496
  333MOL   C10147245   0.603   6.439   3.729 -0.5441  0.3221  0.1452
  333MOL   O10247246   0.690   6.500   3.635 -0.8923  0.6615  0.5482
  333MOL   H10347247   0.482   6.447   3.904 -1.4112  1.7852  1.0540
  333MOL   H10447248   0.482   6.595   3.822 -1.4319 -1.1970 -1.6931
  333MOL   H10547249   0.513   6.413   3.674  0.4183 -0.9401 -0.8729
  333MOL   H10647250   0.642   6.340   3.754 -0.4981  0.4487  0.5895
  333MOL   C10747251   0.827   6.509   3.683 -0.7755  0.0501  0.5079
  333MOL   C10847252   0.913   6.473   3.569 -0.7249  0.4262  0.2372
  333MOL   O10947253   0.904   6.333   3.547 -0.3049  0.0707 -0.7176
  333MOL   H11047254   0.857   6.609   3.714  1.1717 -0.5757  0.6714
  333MOL   H11147255   0.842   6.428   3.754 -1.0576 -0.1231  0.3720
  333MOL   H11247256   1.021   6.477   3.586 -0.5780  1.1120 -0.8422
  333MOL   H11347257   0.881   6.522   3.478 -1.6527 -1.3901 -0.4455
  333MOL   C11447258   0.955   6.295   3.419 -0.3861  0.1226  0.5356
  333MOL   C11547259   0.917   6.156   3.384 -0.6525  0.1844 -0.2274
  333MOL   O11647260   1.006   6.069   3.460 -0.7753 -0.1820 -0.0146
  333MOL   H11747261   0.905   6.353   3.342  2.1543 -0.8246 -1.9538
  333MOL   H11847262   1.062   6.315   3.409  0.2100 -2.9469  0.2572
  333MOL   H11947263   0.939   6.155   3.277  2.0304 -0.0081  0.2908
  333MOL   H12047264   0.820   6.136   3.430 -0.5024  1.8967  0.8826
  333MOL   C12147265   0.969   5.931   3.444 -0.4498  0.2226  0.5795
  333MOL   C12247266   1.070   5.840   3.504  0.4439  0.5838 -0.1447
  333MOL   O12347267   1.086   5.730   3.414  0.6313  0.0660 -0.6318
  333MOL   H12447268   0.871   5.925   3.493 -1.8037 -1.8117 -2.2446
  333MOL   H12547269   0.952   5.910   3.339  0.9680  0.8882  0.2084
  333MOL   H12647270   1.046   5.804   3.604  3.1302  1.1558  0.7405
  333MOL   H12747271   1.165   5.886   3.530  0.1550  0.2876  1.5177
  333MOL   C12847272   1.116   5.596   3.460 -0.4004 -0.0745 -0.4163
  333MOL   C12947273   1.265   5.576   3.507 -0.4089 -0.2733  0.4296
  333MOL   O13047274   1.299   5.643   3.630  0.4512 -0.0043 -0.0951
  333MOL   H13147275   1.040   5.558   3.529 -2.2109 -0.5874 -2.6408
  333MOL   H13247276   1.107   5.534   3.371  0.8145 -0.9786  0.0747
  333MOL   H13347277   1.333   5.607   3.427  0.3181 -1.0252  0.7554
  333MOL   H13447278   1.273   5.469   3.526  0.0022  0.0547  2.1159
  333MOL   C13547279   1.414   5.722   3.628 -0.2125 -0.2140 -1.3375
  333MOL   C13647280   1.419   5.837   3.722 -0.0778 -0.1426 -0.1551
  333MOL   O13747281   1.481   5.785   3.833 -0.3753  0.4019 -0.7221
  333MOL   H13847282   1.505   5.662   3.625 -0.5197 -0.7969  0.3771
  333MOL   H13947283   1.421   5.767   3.529 -1.0853  1.8276 -0.4956
  333MOL   H14047284   1.319   5.869   3.750 -0.0156 -0.2278  0.1689
  333MOL   H14147285   1.474   5.921   3.679 -0.7299  0.7015  0.6302
  333MOL   H14247286   1.433   5.710   3.864 -1.2504  1.3775  0.3438
  334MOL     C147287   5.369   5.957   1.666  0.2455 -0.2602 -0.0219
  334MOL     C247288   5.424   5.825   1.723  0.0642  0.6473  0.1615
  334MOL     O347289   5.328   5.774   1.819  0.2151  0.1352  0.3316
  334MOL     H447290   5.266   5.956   1.629 -0.2363  1.5972  1.2011
  334MOL     H547291   5.429   5.985   1.579 -0.6608  1.8588 -0.0018
  334MOL     H647292   5.517   5.848   1.774  1.0168  0.1672 -1.3246
  334MOL     H747293   5.438   5.744   1.651  1.2869  2.0742 -1.2211
  334MOL     H847294   5.364   6.031   1.746  1.2498  0.8836 -1.0026
  334MOL     C947295   5.348   5.648   1.869  0.5805  0.4182  0.0564
  334MOL    C1047296   5.218   5.603   1.923  0.0366  0.2288  0.1553
  334MOL    O1147297   5.173   5.692   2.023 -0.2406  0.4484 -0.6464
  334MOL    H1247298   5.400   5.588   1.794 -1.1619 -3.1520  1.5501
  334MOL    H1347299   5.419   5.645   1.952 -0.1943  1.3091  0.7506
  334MOL    H1447300   5.228   5.500   1.958 -5.2693 -0.2739  0.6410
  334MOL    H1547301   5.148   5.589   1.841  3.7191  0.2832 -3.1369
  334MOL    C1647302   5.040   5.661   2.066 -0.4803  0.2406 -0.3122
  334MOL    C1747303   5.004   5.765   2.173 -0.7554  0.0355 -0.0330
  334MOL    O1847304   5.096   5.753   2.286  0.6009  0.4930 -0.1253
  334MOL    H1947305   4.965   5.665   1.988 -2.4067 -1.4470  1.3858
  334MOL    H2047306   5.056   5.560   2.106  0.0423  0.8781  1.1516
  334MOL    H2147307   4.905   5.737   2.208 -2.2633  1.6770 -2.7888
  334MOL    H2247308   5.005   5.861   2.120 -2.8612 -0.7847 -1.6355
  334MOL    C2347309   5.030   5.815   2.408 -0.2003 -0.2979  1.0656
  334MOL    C2447310   5.119   5.816   2.531 -0.4391 -0.1924 -0.3561
  334MOL    O2547311   5.197   5.938   2.512  0.4092  0.1383 -0.4390
  334MOL    H2647312   5.007   5.918   2.382  3.1538  1.0453  3.1404
  334MOL    H2747313   4.940   5.762   2.440 -1.9399  3.0984  2.0216
  334MOL    H2847314   5.188   5.733   2.544 -1.5906 -0.7270  2.6199
  334MOL    H2947315   5.052   5.828   2.616  0.2699  0.1468  0.1569
  334MOL    C3047316   5.294   5.973   2.614  0.6658  0.6986  0.1358
  334MOL    C3147317   5.383   6.100   2.576  0.4414  0.0477  0.2484
  334MOL    O3247318   5.310   6.214   2.618 -0.6729 -0.7550  0.2941
  334MOL    H3347319   5.251   5.976   2.714  0.3492  1.7525 -0.0342
  334MOL    H3447320   5.373   5.898   2.613 -1.3243 -1.4643 -0.6883
  334MOL    H3547321   5.392   6.098   2.468 -1.5921 -4.1479  0.0636
  334MOL    H3647322   5.482   6.094   2.623  0.9296  0.4756 -0.7167
  334MOL    C3747323   5.354   6.340   2.563  0.6194 -0.6501 -0.1107
  334MOL    C3847324   5.246   6.431   2.605  0.1535 -0.4152  0.0966
  334MOL    O3947325   5.262   6.474   2.738 -0.6510 -0.5859  0.2009
  334MOL    H4047326   5.451   6.380   2.594 -0.3930  1.4743  0.3495
  334MOL    H4147327   5.344   6.329   2.455  1.0450 -1.9649 -0.0316
  334MOL    H4247328   5.148   6.389   2.581  0.0129 -0.4636  0.7555
  334MOL    H4347329   5.256   6.525   2.551 -0.8862  0.2290  0.9931
  334MOL    C4447330   5.146   6.514   2.802 -0.1136 -0.1141  0.2862
  334MOL    C4547331   5.167   6.510   2.957  0.2014 -0.1018 -0.0984
  334MOL    O4647332   5.267   6.606   2.988  0.6604 -0.2649 -0.6468
  334MOL    H4747333   5.125   6.617   2.774  1.5318  0.6876  1.9101
  334MOL    H4847334   5.061   6.452   2.773  0.5406 -0.0394 -1.8537
  334MOL    H4947335   5.199   6.413   2.994 -0.7943 -1.3043 -2.3206
  334MOL    H5047336   5.071   6.522   3.008 -0.2408  1.1186 -1.1798
  334MOL    C5147337   5.294   6.615   3.129 -0.3416 -0.4859 -0.2845
  334MOL    C5247338   5.356   6.746   3.166  0.3454  0.4384  0.0828
  334MOL    O5347339   5.271   6.847   3.137  0.0224  0.2632 -0.6748
  334MOL    H5447340   5.204   6.603   3.189  0.2112  1.4400  0.9507
  334MOL    H5547341   5.358   6.538   3.172 -0.5265 -0.3331  0.2604
  334MOL    H5647342   5.451   6.755   3.113  1.6519 -0.7089  2.1810
  334MOL    H5747343   5.373   6.736   3.273 -0.8781  2.8145  0.5272
  334MOL    C5847344   5.323   6.978   3.171 -0.4291 -0.5176 -0.1189
  334MOL    C5947345   5.213   7.084   3.151 -0.2298  0.2425  0.4371
  334MOL    O6047346   5.273   7.211   3.122  0.3162 -0.5606  0.4991
  334MOL    H6147347   5.348   6.974   3.277  0.9528  1.4107 -0.3538
  334MOL    H6247348   5.419   6.998   3.123 -0.6815 -0.3112 -0.5384
  334MOL    H6347349   5.136   7.071   3.227  0.3216  3.4945  1.6138
  334MOL    H6447350   5.164   7.050   3.060 -0.1596  3.0607 -0.7015
  334MOL    C6547351   5.187   7.313   3.085  0.4914  0.5025  0.1864
  334MOL    C6647352   5.250   7.460   3.096  0.9092  0.7702  0.1113
  334MOL    O6747353   5.233   7.513   3.229  0.9587  0.6712  0.3296
  334MOL    H6847354   5.172   7.293   2.979 -0.7800 -0.6427  0.5675
  334MOL    H6947355   5.094   7.317   3.143  1.4519 -1.4869  1.9448
  334MOL    H7047356   5.199   7.522   3.022  0.7683  1.3795  0.7177
  334MOL    H7147357   5.355   7.476   3.072  0.0245  3.0556 -2.4718
  334MOL    C7247358   5.281   7.642   3.248  0.4446  0.2545 -0.7773
  334MOL    C7347359   5.252   7.698   3.396  0.4983  0.8506  0.1089
  334MOL    O7447360   5.126   7.771   3.397 -0.3973 -0.0287 -0.0422
  334MOL    H7547361   5.385   7.655   3.219  0.8207  0.0627  0.4441
  334MOL    H7647362   5.241   7.712   3.175 -1.1212 -0.0304 -0.2267
  334MOL    H7747363   5.338   7.755   3.430  1.3092  0.5213 -1.3806
  334MOL    H7847364   5.252   7.618   3.471  0.6180 -0.0147 -0.8092
  334MOL    C7947365   5.106   0.066   3.519  0.8323  0.6529  0.7521
  334MOL    C8047366   4.969   0.141   3.514 -0.2322  0.3556 -0.7105
  334MOL    O8147367   4.870   0.042   3.514 -0.1096  0.5270  0.1953
  334MOL    H8247368   5.096   0.000   3.605  4.1502 -0.4777  0.3734
  334MOL    H8347369   5.183   0.141   3.536  0.5490  1.8299 -2.8070
  334MOL    H8447370   4.961   0.206   3.426 -3.6769  0.5021 -0.3899
  334MOL    H8547371   4.957   0.201   3.605 -1.9774  0.7433 -1.1620
  334MOL    C8647372   4.733   0.078   3.527 -0.6000  0.3988  0.0809
  334MOL    C8747373   4.685   0.132   3.661 -0.2410  0.0915  0.1859
  334MOL    O8847374   4.709   0.276   3.664 -0.4931  0.1982 -0.7334
  334MOL    H8947375   4.710   0.157   3.455  1.4403  1.0894  0.1568
  334MOL    H9047376   4.687   7.755   3.496  0.2710 -0.2945  0.8550
  334MOL    H9147377   4.729   0.075   3.742  1.3434  2.0124  0.7407
  334MOL    H9247378   4.582   0.128   3.694 -0.1207 -0.4614  0.4927
  334MOL    C9347379   4.677   0.323   3.798 -0.6913 -0.3392  0.0597
  334MOL    C9447380   4.772   0.271   3.908 -0.1713 -0.2831  0.5261
  334MOL    O9547381   4.906   0.300   3.872  0.4708 -0.2762 -0.0547
  334MOL    H9647382   4.682   0.431   3.786 -0.5316 -0.4237 -0.6617
  334MOL    H9747383   4.575   0.314   3.836 -0.3905  3.8675  2.0164
  334MOL    H9847384   4.773   0.163   3.921  1.1121 -0.4295 -0.5975
  334MOL    H9947385   4.743   0.307   4.006 -1.5409 -1.3465  0.5281
  334MOL   C10047386   5.008   0.264   3.969  0.1583  0.1440 -0.6995
  334MOL   C10147387   5.152   0.253   3.905  0.4933  0.0601 -0.2402
  334MOL   O10247388   5.178   0.374   3.834 -0.2059  0.2660  0.6179
  334MOL   H10347389   5.000   0.347   4.040  0.0203  1.2038 -1.9310
  334MOL   H10447390   4.984   0.169   4.016  0.5707 -0.5117 -1.8031
  334MOL   H10547391   5.155   0.163   3.842 -0.8172 -1.0494  1.2309
  334MOL   H10647392   5.222   0.236   3.986 -1.8507 -2.0478  1.4594
  334MOL   C10747393   5.306   0.370   3.769 -0.3502 -0.0091  0.0926
  334MOL   C10847394   5.305   0.494   3.686  0.1478 -0.6365  0.3742
  334MOL   O10947395   5.354   0.611   3.759 -0.5294 -0.1414  0.3584
  334MOL   H11047396   5.377   0.373   3.851 -0.3496  0.1224  0.0867
  334MOL   H11147397   5.307   0.277   3.711 -0.7243 -0.1783  0.3552
  334MOL   H11247398   5.205   0.513   3.646 -0.1857 -0.9584  1.0505
  334MOL   H11347399   5.361   0.483   3.593 -1.2218  2.8889 -0.9821
  334MOL   C11447400   5.336   0.728   3.690 -0.2014  0.2975  0.3549
  334MOL   C11547401   5.393   0.844   3.767 -0.6294  0.4373  0.2738
  334MOL   O11647402   5.527   0.854   3.745 -0.0946  0.4720 -0.0790
  334MOL   H11747403   5.375   0.732   3.588 -2.5613  1.8366 -0.5347
  334MOL   H11847404   5.228   0.741   3.692  0.1000  3.2123  1.7915
  334MOL   H11947405   5.359   0.840   3.870 -3.3888 -2.5497 -0.6661
  334MOL   H12047406   5.354   0.942   3.738  0.3243  0.6564 -0.2974
  334MOL   C12147407   5.599   0.928   3.838  0.2547  0.5877 -0.5717
  334MOL   C12247408   5.561   1.079   3.848 -0.4763  0.2393  0.5509
  334MOL   O12347409   5.451   1.106   3.933 -0.3073 -0.5013 -0.0917
  334MOL   H12447410   5.591   0.880   3.936  1.5187  0.1304 -0.6740
  334MOL   H12547411   5.706   0.922   3.813  0.3133 -0.3460 -0.1252
  334MOL   H12647412   5.535   1.118   3.750  0.1840 -1.2735 -0.2439
  334MOL   H12747413   5.645   1.136   3.888 -1.3921  1.5969  0.5545
  334MOL   C12847414   5.397   1.247   3.926 -0.5565 -0.5413 -0.0739
  334MOL   C12947415   5.327   1.283   4.058 -0.5012 -0.1545  0.7215
  334MOL   O13047416   5.440   1.302   4.145  0.7125  0.2285  0.0718
  334MOL   H13147417   5.486   1.310   3.925 -1.5951  0.9337 -0.8723
  334MOL   H13247418   5.329   1.246   3.841  0.0130  2.4993 -0.6088
  334MOL   H13347419   5.255   1.205   4.082 -0.9970  0.4506  1.2148
  334MOL   H13447420   5.266   1.372   4.047 -0.7334 -0.5569 -1.6444
  334MOL   C13547421   5.403   1.379   4.263 -0.0956 -0.0121  0.2835
  334MOL   C13647422   5.512   1.430   4.354 -0.7298  0.2547  0.3296
  334MOL   O13747423   5.585   1.525   4.281  0.3548  0.2983 -0.0710
  334MOL   H13847424   5.344   1.462   4.224  0.8231  1.1129  1.2594
  334MOL   H13947425   5.339   1.304   4.310 -1.3356 -0.6760 -2.3775
  334MOL   H14047426   5.568   1.341   4.384 -0.6349  0.2199  0.0576
  334MOL   H14147427   5.467   1.477   4.441  0.8407  2.4445  0.0315
  334MOL   H14247428   5.518   1.579   4.241 -0.1956  1.2991  2.1057
  335MOL     C147429   0.248   4.290   5.674  0.1577  0.7329  0.7390
  335MOL     C247430   0.330   4.204   5.572 -0.0726  0.2528 -0.3916
  335MOL     O347431   0.438   4.279   5.522 -0.0609 -0.4359  0.3051
  335MOL     H447432   0.155   4.238   5.696 -0.4874  1.0956 -1.0496
  335MOL     H547433   0.210   4.383   5.632 -1.7419 -0.6962 -0.7866
  335MOL     H647434   0.261   4.177   5.492  0.7368 -1.5402 -0.5071
  335MOL     H747435   0.357   4.112   5.625  1.1876  1.3019  0.8299
  335MOL     H847436   0.313   4.313   5.759  0.9281  2.8589 -0.4009
  335MOL     C947437   0.507   4.197   5.425 -0.1103 -0.2106  0.1300
  335MOL    C1047438   0.645   4.260   5.383  0.1029 -0.0310  0.2565
  335MOL    O1147439   0.694   4.158   5.290 -0.5891  0.2000 -0.0588
  335MOL    H1247440   0.522   4.101   5.474 -0.9973 -1.1512 -1.3771
  335MOL    H1347441   0.441   4.167   5.343 -0.1125  0.8840 -0.2823
  335MOL    H1447442   0.716   4.268   5.466 -0.4575 -0.7808  0.8152
  335MOL    H1547443   0.639   4.355   5.330  0.8410  0.2443  0.6509
  335MOL    C1647444   0.796   4.202   5.199 -0.0912  0.3805  0.4030
  335MOL    C1747445   0.741   4.277   5.081 -0.4337  0.0709 -0.1979
  335MOL    O1847446   0.674   4.195   4.987 -0.2353 -0.1110 -0.4248
  335MOL    H1947447   0.860   4.272   5.254 -2.0361  1.2335  1.6683
  335MOL    H2047448   0.851   4.114   5.167 -2.1443 -1.5801  2.0614
  335MOL    H2147449   0.831   4.322   5.039 -0.8093 -0.7973 -1.9994
  335MOL    H2247450   0.670   4.355   5.106 -1.1845 -0.7400  0.2232
  335MOL    C2347451   0.635   4.266   4.873  0.6799 -0.5251  0.1105
  335MOL    C2447452   0.569   4.179   4.765 -0.1213 -0.5309  0.5590
  335MOL    O2547453   0.664   4.109   4.687 -0.0173 -0.7059 -0.0083
  335MOL    H2647454   0.564   4.338   4.914  1.4448  0.9700 -1.1283
  335MOL    H2747455   0.710   4.327   4.822 -1.1555 -1.2649 -3.7294
  335MOL    H2847456   0.514   4.250   4.703 -0.2273  1.0371  2.3816
  335MOL    H2947457   0.500   4.108   4.808 -1.0885  0.5732  0.8658
  335MOL    C3047458   0.724   4.179   4.580  0.4381 -0.4325  0.4066
  335MOL    C3147459   0.837   4.107   4.513 -0.0010 -0.7028 -0.5663
  335MOL    O3247460   0.834   4.147   4.379  0.4932 -0.1250  0.2865
  335MOL    H3347461   0.642   4.207   4.514 -1.1999  0.0656  2.5723
  335MOL    H3447462   0.767   4.269   4.623 -0.5810 -0.9002  2.4982
  335MOL    H3547463   0.818   4.000   4.504 -3.4344 -0.2109  0.2192
  335MOL    H3647464   0.929   4.125   4.568 -1.4970  0.8146  1.4878
  335MOL    C3747465   0.899   4.061   4.287  0.4991  0.2377 -0.1393
  335MOL    C3847466   0.925   4.149   4.164 -0.8959  0.0813 -0.3258
  335MOL    O3947467   1.006   4.066   4.079 -0.0279 -0.1260  0.1014
  335MOL    H4047468   0.987   4.008   4.323  1.3577 -0.7210 -3.4349
  335MOL    H4147469   0.832   3.980   4.261 -0.9106  1.5998 -0.8461
  335MOL    H4247470   0.972   4.239   4.201  0.6193 -0.4003 -1.0609
  335MOL    H4347471   0.828   4.178   4.123  0.3447  0.8976 -2.7656
  335MOL    C4447472   1.035   4.139   3.964 -0.5759  0.0815  0.3263
  335MOL    C4547473   1.110   4.041   3.867  0.4542 -0.0468  0.1952
  335MOL    O4647474   1.010   3.949   3.813  0.0398 -0.5502  0.7187
  335MOL    H4747475   0.952   4.185   3.911  0.3922 -1.2047 -2.3884
  335MOL    H4847476   1.111   4.214   3.987  2.0890 -2.0617 -1.1298
  335MOL    H4947477   1.187   3.996   3.930  0.2925  0.0885  0.4937
  335MOL    H5047478   1.152   4.093   3.781  1.4353  1.7827  1.7374
  335MOL    C5147479   1.074   3.848   3.737  0.4807 -0.1654 -0.0029
  335MOL    C5247480   0.970   3.733   3.718  0.2673 -0.5353 -0.1209
  335MOL    O5347481   0.886   3.771   3.613  0.0815  0.5032 -0.4489
  335MOL    H5447482   1.118   3.894   3.648  1.2011  0.4539  0.6722
  335MOL    H5547483   1.156   3.812   3.799 -0.5339 -0.8370  0.9752
  335MOL    H5647484   0.914   3.720   3.810  0.5763 -4.4564 -0.3895
  335MOL    H5747485   1.016   3.636   3.698 -0.7767 -1.1968  0.6125
  335MOL    C5847486   0.809   3.660   3.572 -0.5896 -0.4041 -0.3484
  335MOL    C5947487   0.688   3.714   3.501  0.0714  0.4398 -0.2585
  335MOL    O6047488   0.718   3.763   3.374 -0.0387 -0.1383  0.1243
  335MOL    H6147489   0.863   3.592   3.505  1.7964  0.1113  1.0241
  335MOL    H6247490   0.789   3.605   3.664  1.3277  1.0863  0.9967
  335MOL    H6347491   0.640   3.782   3.571 -1.1732 -1.2172  0.5557
  335MOL    H6447492   0.609   3.639   3.496 -1.4826  2.1446 -1.6794
  335MOL    C6547493   0.628   3.873   3.351  0.3126  0.5550  0.1913
  335MOL    C6647494   0.480   3.826   3.338  0.0226 -0.3625 -1.0969
  335MOL    O6747495   0.473   3.703   3.258 -0.3725  0.3789  0.1477
  335MOL    H6847496   0.634   3.965   3.408  1.0441  0.5047  0.2059
  335MOL    H6947497   0.650   3.906   3.250  1.0220  3.1452  1.1548
  335MOL    H7047498   0.418   3.901   3.290 -1.0464  0.0502  0.8725
  335MOL    H7147499   0.437   3.806   3.436  0.1336  2.6578 -0.3834
  335MOL    C7247500   0.351   3.644   3.215 -0.2132  0.6188 -0.2533
  335MOL    C7347501   0.286   3.553   3.327 -0.0220  0.3096 -0.2468
  335MOL    O7447502   0.253   3.629   3.445  0.1616 -0.6983  0.8992
  335MOL    H7547503   0.275   3.721   3.195  0.3209  1.0578 -0.6108
  335MOL    H7647504   0.368   3.578   3.130  0.0121  0.1739  0.1368
  335MOL    H7747505   0.355   3.472   3.350 -0.8217 -0.7873 -1.6222
  335MOL    H7847506   0.194   3.512   3.286 -0.4478  2.2984 -1.3197
  335MOL    C7947507   0.151   3.570   3.527 -0.4441  0.7312 -0.1795
  335MOL    C8047508   0.198   3.458   3.614  0.4688 -0.4410 -0.4567
  335MOL    O8147509   0.228   3.344   3.537  0.1742 -0.1533 -0.2805
  335MOL    H8247510   0.117   3.654   3.588 -3.0893  0.1469 -0.7778
  335MOL    H8347511   0.063   3.543   3.467 -0.6680 -1.1603  0.9612
  335MOL    H8447512   0.130   3.434   3.696  1.2727 -1.1870 -0.0062
  335MOL    H8547513   0.294   3.489   3.654 -0.1475 -0.3273  0.9542
  335MOL    C8647514   0.218   3.223   3.609 -0.1689  0.4326 -0.5058
  335MOL    C8747515   0.254   3.107   3.517 -0.8596 -0.3007  0.2539
  335MOL    O8847516   0.397   3.088   3.501  0.4330 -0.6472 -0.1150
  335MOL    H8947517   0.281   3.222   3.698 -0.2022  0.1882 -0.4842
  335MOL    H9047518   0.116   3.220   3.646  0.5489 -3.5317  1.4835
  335MOL    H9147519   0.198   3.106   3.423 -2.2702 -0.3840  1.0865
  335MOL    H9247520   0.219   3.026   3.580 -2.3549  1.9875  2.4552
  335MOL    C9347521   0.478   3.189   3.439 -0.8408  0.6460  0.1303
  335MOL    C9447522   0.628   3.143   3.446  0.6409  0.0571  0.0886
  335MOL    O9547523   0.711   3.258   3.461  0.8497  0.7318 -0.4166
  335MOL    H9647524   0.445   3.207   3.337 -1.8010 -0.7624  0.1665
  335MOL    H9747525   0.467   3.274   3.506  2.1489  0.9742  0.2527
  335MOL    H9847526   0.661   3.095   3.354  0.3321  1.1524 -0.6047
  335MOL    H9947527   0.638   3.087   3.539 -1.2341  1.1857  1.0120
  335MOL   C10047528   0.848   3.229   3.466  0.1684 -0.4090 -0.7160
  335MOL   C10147529   0.906   3.157   3.592  0.7283  0.0840  0.3600
  335MOL   O10247530   0.892   3.018   3.565  0.4558 -0.3877  0.0327
  335MOL   H10347531   0.867   3.176   3.373  0.0895 -1.3987 -0.1720
  335MOL   H10447532   0.889   3.330   3.455 -1.2066  0.3685  1.0797
  335MOL   H10547533   0.846   3.187   3.678 -2.8255  1.3700 -2.4259
  335MOL   H10647534   1.008   3.186   3.618  0.2908  0.1241  2.0984
  335MOL   C10747535   0.904   2.927   3.673  0.0976  0.2135  0.2734
  335MOL   C10847536   1.050   2.906   3.708  0.0670 -0.1616  0.2591
  335MOL   O10947537   1.107   3.023   3.769 -0.6334 -0.5697  0.1091
  335MOL   H11047538   0.859   2.971   3.762 -0.9270  3.0125 -1.5614
  335MOL   H11147539   0.846   2.836   3.655  0.3345  0.0252  0.4601
  335MOL   H11247540   1.104   2.890   3.614  0.7741 -0.4687  0.7065
  335MOL   H11347541   1.056   2.818   3.772  1.1517 -1.2218 -1.2432
  335MOL   C11447542   1.100   3.026   3.908  0.7725  0.1029  0.5467
  335MOL   C11547543   1.199   3.126   3.965 -0.0366 -0.2258 -0.1573
  335MOL   O11647544   1.144   3.251   3.953  0.0294 -0.3609 -0.5701
  335MOL   H11747545   0.995   3.038   3.937  0.4824 -1.0984  0.0122
  335MOL   H11847546   1.130   2.924   3.933 -1.1325 -1.4841 -3.1803
  335MOL   H11947547   1.291   3.114   3.908 -1.1121 -1.0006 -1.7909
  335MOL   H12047548   1.199   3.102   4.071  0.1061 -2.6146 -0.6610
  335MOL   C12147549   1.226   3.357   3.997  0.3372 -0.3867  0.1303
  335MOL   C12247550   1.161   3.480   3.942  0.3925 -0.2190 -0.0112
  335MOL   O12347551   1.050   3.545   4.011  0.3175 -0.3296  0.4357
  335MOL   H12447552   1.235   3.355   4.106 -0.9599 -0.6733  0.2328
  335MOL   H12547553   1.325   3.354   3.951  0.0359 -1.5117 -0.4540
  335MOL   H12647554   1.125   3.461   3.840 -1.6988 -2.8032  1.1615
  335MOL   H12747555   1.238   3.556   3.932 -2.4109  2.9617  1.5815
  335MOL   C12847556   0.934   3.461   4.034  0.1692 -0.2168  0.1005
  335MOL   C12947557   0.834   3.540   4.116 -0.8807  0.3410 -0.0796
  335MOL   O13047558   0.886   3.547   4.247 -0.7920 -0.1296 -0.7173
  335MOL   H13147559   0.885   3.428   3.942  0.0846 -1.5534  0.6220
  335MOL   H13247560   0.954   3.371   4.092  0.3270 -0.1686  0.1191
  335MOL   H13347561   0.736   3.492   4.109 -0.3300 -0.7455 -0.3523
  335MOL   H13447562   0.824   3.644   4.085  0.5677  0.3855 -0.4187
  335MOL   C13547563   0.788   3.610   4.331  0.1845  0.3344 -0.1363
  335MOL   C13647564   0.851   3.629   4.466  0.7412  0.6661 -0.1583
  335MOL   O13747565   0.916   3.751   4.461 -0.0825  0.1973  0.0205
  335MOL   H13847566   0.765   3.703   4.279  1.3182  0.7534  0.0969
  335MOL   H13947567   0.707   3.537   4.326  0.4020  0.1152 -0.5238
  335MOL   H14047568   0.919   3.547   4.493 -0.3824 -0.0693  0.4863
  335MOL   H14147569   0.763   3.637   4.529 -0.9971  1.2146 -2.5757
  335MOL   H14247570   0.994   3.727   4.413  0.3882  1.4377  0.1468
  336MOL     C147571   0.515   4.653   5.754  0.1317  0.4320 -0.0013
  336MOL     C247572   0.564   4.783   5.696  0.4500 -0.0945 -0.7021
  336MOL     O347573   0.504   4.798   5.572  0.0949  0.4361 -0.3964
  336MOL     H447574   0.512   4.570   5.683  0.1050 -0.1661  0.6902
  336MOL     H547575   0.413   4.668   5.790 -0.0833  0.3982 -0.6066
  336MOL     H647576   0.672   4.771   5.685  0.2487 -2.2473 -0.5864
  336MOL     H747577   0.534   4.871   5.753  1.9622  0.2199 -0.3707
  336MOL     H847578   0.561   4.615   5.846  0.1295  1.3798  0.3958
  336MOL     C947579   0.547   4.916   5.502 -0.4826 -0.4583  0.0360
  336MOL    C1047580   0.482   4.914   5.365  0.2933 -1.1783 -0.0108
  336MOL    O1147581   0.543   4.821   5.279  0.4129  0.0683  0.1393
  336MOL    H1247582   0.506   4.998   5.562  0.6051  1.3791 -1.6468
  336MOL    H1347583   0.655   4.928   5.493 -0.4235 -2.4468 -2.1079
  336MOL    H1447584   0.496   5.011   5.316 -0.7255 -1.0105  0.0194
  336MOL    H1547585   0.375   4.893   5.367 -0.2968  1.3140 -2.1948
  336MOL    C1647586   0.506   4.681   5.301 -0.4488 -0.2929 -0.4263
  336MOL    C1747587   0.570   4.588   5.195  0.0442 -0.5978  0.0265
  336MOL    O1847588   0.710   4.590   5.195 -0.5800 -0.1474 -0.4886
  336MOL    H1947589   0.544   4.647   5.397 -2.6428  0.2869  0.6761
  336MOL    H2047590   0.398   4.667   5.306 -0.2193 -1.3350  2.3119
  336MOL    H2147591   0.531   4.622   5.100  0.0789  2.0031  0.8951
  336MOL    H2247592   0.537   4.485   5.207 -1.5576  0.0911  1.8542
  336MOL    C2347593   0.765   4.679   5.101  0.4540  0.5273  0.1368
  336MOL    C2447594   0.915   4.645   5.101  0.4417  0.1179  0.3666
  336MOL    O2547595   0.935   4.597   4.967 -0.0549 -0.1457 -0.2664
  336MOL    H2647596   0.721   4.669   5.002 -1.2924 -1.4556  1.0924
  336MOL    H2747597   0.745   4.774   5.151 -0.4078  0.4604 -0.0709
  336MOL    H2847598   0.937   4.558   5.163 -2.8907  0.4426  2.1225
  336MOL    H2947599   0.973   4.737   5.112 -0.0876  0.4110  0.7544
  336MOL    C3047600   1.051   4.518   4.940  0.3248  0.5183  0.4344
  336MOL    C3147601   1.180   4.589   4.963  0.0497  0.0505 -0.2065
  336MOL    O3247602   1.208   4.569   5.099  0.6492  0.0598  0.0699
  336MOL    H3347603   1.040   4.417   4.979  0.7026  0.3613  0.1326
  336MOL    H3447604   1.038   4.503   4.832  0.2283  0.3059  0.4755
  336MOL    H3547605   1.181   4.694   4.932 -0.1035 -0.1368 -0.8472
  336MOL    H3647606   1.262   4.553   4.900  1.0549  0.1828  1.0011
  336MOL    C3747607   1.287   4.670   5.150 -0.2348 -0.2621 -0.3006
  336MOL    C3847608   1.319   4.627   5.296 -0.8180  0.7029  0.0002
  336MOL    O3947609   1.448   4.556   5.303  0.1001 -0.4248 -0.1950
  336MOL    H4047610   1.372   4.691   5.085 -0.3935 -0.6258 -0.6320
  336MOL    H4147611   1.216   4.753   5.144 -0.7134 -0.6579 -0.0792
  336MOL    H4247612   1.230   4.581   5.338  0.0563 -1.4275 -0.4330
  336MOL    H4347613   1.320   4.715   5.360 -1.1892  1.3973 -0.9337
  336MOL    C4447614   1.463   4.500   5.436  0.8216  0.4017 -0.0640
  336MOL    C4547615   1.604   4.445   5.445 -0.1485  0.0584 -0.9690
  336MOL    O4647616   1.710   4.544   5.410 -0.8285 -0.0801 -1.1530
  336MOL    H4747617   1.435   4.566   5.518 -1.0861  2.4487 -2.2670
  336MOL    H4847618   1.392   4.419   5.446 -1.0842  2.0726  0.3524
  336MOL    H4947619   1.606   4.368   5.368  0.4487 -0.7798 -0.1377
  336MOL    H5047620   1.623   4.386   5.535 -1.0828 -1.2995 -1.6357
  336MOL    C5147621   1.740   4.640   5.508  0.0732  0.0219 -0.2866
  336MOL    C5247622   1.895   4.666   5.512  0.1168  0.9338 -0.6329
  336MOL    O5347623   1.922   4.757   5.616  0.2946  0.7492 -0.1376
  336MOL    H5447624   1.691   4.737   5.499 -0.1069 -0.1274 -0.9372
  336MOL    H5547625   1.710   4.608   5.608 -2.5619  0.7358 -0.8139
  336MOL    H5647626   1.924   4.711   5.417  0.4609  0.0175 -0.9678
  336MOL    H5747627   1.953   4.574   5.520 -0.3249  0.5822 -1.3817
  336MOL    C5847628   2.066   4.760   5.646  0.3738 -0.6818  0.8710
  336MOL    C5947629   2.092   4.858   5.762  0.1659  1.3542  0.5165
  336MOL    O6047630   2.101   4.991   5.720 -0.0517  0.3334 -0.0373
  336MOL    H6147631   2.083   4.663   5.693 -1.3457 -0.4478  1.9856
  336MOL    H6247632   2.135   4.775   5.563 -2.5275  0.5393 -1.4060
  336MOL    H6347633   2.178   4.837   5.826 -1.0603  0.1264  1.8151
  336MOL    H6447634   2.011   4.847   5.835 -0.3159  2.4762  0.1615
  336MOL    C6547635   2.128   5.082   5.827  0.4306  0.6221 -0.1196
  336MOL    C6647636   2.001   5.162   5.860  0.1435 -0.2980 -0.0185
  336MOL    O6747637   2.044   5.286   5.916  0.2073  0.2013 -0.3850
  336MOL    H6847638   2.171   5.043   5.920 -3.1115  1.8255  2.1130
  336MOL    H6947639   2.192   5.158   5.783  0.9301  0.7838  0.8530
  336MOL    H7047640   1.933   5.119   5.935 -0.7687 -1.5991 -1.5505
  336MOL    H7147641   1.956   5.187   5.764 -1.4630  0.2727  0.8568
  336MOL    C7247642   2.080   5.288   6.052 -0.0514 -0.2908 -0.3325
  336MOL    C7347643   2.083   5.431   6.099 -0.3331  0.4416  0.1262
  336MOL    O7447644   2.211   5.482   6.057 -0.3616  0.4521  0.1913
  336MOL    H7547645   2.017   5.215   6.104  0.4142  0.8444  1.8773
  336MOL    H7647646   2.174   5.236   6.065  0.3196  0.7262  1.1215
  336MOL    H7747647   2.086   5.446   6.207  0.4865 -0.4637  0.2350
  336MOL    H7847648   2.000   5.487   6.056  0.1546  0.6454 -0.5635
  336MOL    C7947649   2.229   5.620   6.063 -0.5282 -0.4233  0.1673
  336MOL    C8047650   2.366   5.655   6.026 -0.1518  0.1766 -0.0021
  336MOL    O8147651   2.469   5.617   6.114 -0.4005  0.4819  0.6482
  336MOL    H8247652   2.156   5.670   5.999 -0.1630  1.0608  0.8946
  336MOL    H8347653   2.193   5.655   6.160  0.9096 -0.0915  0.5968
  336MOL    H8447654   2.355   5.763   6.021 -0.1020  0.0999 -2.0456
  336MOL    H8547655   2.378   5.624   5.922  0.7455  2.0850 -0.5013
  336MOL    C8647656   2.599   5.649   6.066 -0.5194 -0.7960  0.0037
  336MOL    C8747657   2.697   5.621   6.172  0.7253  0.0889 -0.6783
  336MOL    O8847658   2.724   5.481   6.151  0.2641 -0.6913 -0.4531
  336MOL    H8947659   2.612   5.608   5.966  2.2486  1.7917 -0.7829
  336MOL    H9047660   2.609   5.757   6.052 -2.4361 -0.4865  0.8342
  336MOL    H9147661   2.645   5.645   6.264  1.0754  0.8269 -0.6709
  336MOL    H9247662   2.789   5.679   6.163  1.0540  0.1233  2.4638
  336MOL    C9347663   2.831   5.433   6.232  0.6320  0.0133  0.0412
  336MOL    C9447664   2.852   5.282   6.227  0.1221 -0.4513 -0.6685
  336MOL    O9547665   2.777   5.224   6.327 -0.0493  0.5204  0.0624
  336MOL    H9647666   2.921   5.482   6.195  1.1440 -0.7324  0.3028
  336MOL    H9747667   2.809   5.457   6.336  0.5368 -0.6031  0.1646
  336MOL    H9847668   2.956   5.273   6.255  0.3363  3.4548  0.1398
  336MOL    H9947669   2.842   5.236   6.129  1.0709 -1.2088 -0.4088
  336MOL   C10047670   2.812   5.083   6.326 -0.5087 -0.0870 -0.3252
  336MOL   C10147671   2.712   5.002   6.402 -0.1911  0.2269  0.0811
  336MOL   O10247672   2.730   4.865   6.373 -0.5459  0.5836 -0.0303
  336MOL   H10347673   2.816   5.038   6.227 -1.6983 -1.6426  0.3110
  336MOL   H10447674   2.909   5.071   6.375 -0.2808  0.8207 -0.5459
  336MOL   H10547675   2.614   5.027   6.362 -0.5638  1.5169  1.7576
  336MOL   H10647676   2.725   5.021   6.508  0.0678  0.3928  0.0188
  336MOL   C10747677   2.616   4.783   6.403 -1.0312  0.4418  1.2952
  336MOL   C10847678   2.632   4.645   6.336  0.3274  0.1452 -0.1034
  336MOL   O10947679   2.615   4.663   6.196 -0.1781  0.0307  0.0227
  336MOL   H11047680   2.603   4.781   6.511 -3.6959  0.1761  0.9968
  336MOL   H11147681   2.520   4.824   6.373 -0.3533  1.6214  0.7038
  336MOL   H11247682   2.552   4.584   6.377 -1.4781  2.0929 -0.6418
  336MOL   H11347683   2.729   4.600   6.360 -1.9020 -3.3909  2.6395
  336MOL   C11447684   2.658   4.550   6.121  0.6004  0.2075 -0.1749
  336MOL   C11547685   2.572   4.521   5.993  0.2417 -0.3768 -0.1340
  336MOL   O11647686   2.444   4.472   6.029 -0.1386  0.6949  0.1370
  336MOL   H11747687   2.762   4.560   6.091  0.8552 -2.1578 -0.1558
  336MOL   H11847688   2.662   4.455   6.174 -0.2504 -0.6156 -1.5322
  336MOL   H11947689   2.619   4.445   5.930 -0.9045 -1.2943  0.1164
  336MOL   H12047690   2.575   4.612   5.934  2.5606 -0.7188 -0.6001
  336MOL   C12147691   2.358   4.463   5.913 -1.0553 -0.0154  0.0730
  336MOL   C12247692   2.229   4.393   5.950 -0.2756  0.2031 -0.0352
  336MOL   O12347693   2.256   4.254   5.971 -0.2409 -0.1133  0.2055
  336MOL   H12447694   2.341   4.564   5.876 -0.0345 -0.5995 -2.0932
  336MOL   H12547695   2.402   4.405   5.831 -0.8026 -1.0408  0.9262
  336MOL   H12647696   2.160   4.416   5.869 -1.7313 -0.2968  1.0342
  336MOL   H12747697   2.180   4.444   6.033  0.5125  1.0268 -0.0790
  336MOL   C12847698   2.157   4.171   6.033 -0.3533  0.4639 -0.4059
  336MOL   C12947699   2.190   4.029   6.001 -0.3223 -0.4347 -0.1036
  336MOL   O13047700   2.302   4.001   6.080 -0.5057 -0.0440 -0.1706
  336MOL   H13147701   2.156   4.178   6.142 -1.7918  0.2589 -0.4001
  336MOL   H13247702   2.059   4.195   5.992 -0.1436 -1.1341 -1.8792
  336MOL   H13347703   2.188   4.002   5.896 -3.0121 -2.3803  0.3716
  336MOL   H13447704   2.110   3.971   6.049  1.0674 -0.0194  2.8358
  336MOL   C13547705   2.353   3.872   6.042  0.6503 -0.3552  0.1996
  336MOL   C13647706   2.474   3.847   6.130  0.2548 -0.0114  0.4128
  336MOL   O13747707   2.438   3.875   6.260  0.3375 -0.0384  0.3456
  336MOL   H13847708   2.275   3.796   6.053 -0.8207  0.5173 -3.6002
  336MOL   H13947709   2.386   3.872   5.938  0.5827  0.4430  0.1753
  336MOL   H14047710   2.563   3.907   6.109  0.7110 -0.6001  0.6585
  336MOL   H14147711   2.507   3.744   6.124 -0.1109 -0.1922  1.4674
  336MOL   H14247712   2.369   3.938   6.248  0.9288  0.2952 -1.5728
  337MOL     C147713   7.058   7.711   1.781 -0.1482  0.2327  0.5060
  337MOL     C247714   6.913   7.742   1.734 -0.1245 -0.1806 -0.7853
  337MOL     O347715   6.858   0.061   1.823  0.6610  0.1298  0.2091
  337MOL     H447716   7.107   7.656   1.700 -0.1423  0.7380  0.1676
  337MOL     H547717   7.048   7.652   1.872 -1.9900 -0.1850  0.0512
  337MOL     H647718   6.865   7.644   1.741 -0.2114 -0.1140 -0.3996
  337MOL     H747719   6.927   0.013   1.635 -1.2012  0.7602 -0.5452
  337MOL     H847720   7.099   0.035   1.813  0.0401 -0.0018  0.9782
  337MOL     C947721   6.747   0.128   1.773  0.4167 -0.0366 -0.4488
  337MOL    C1047722   6.673   0.191   1.891 -0.6225 -0.5394  0.9633
  337MOL    O1147723   6.760   0.282   1.957 -0.3348  0.1939  0.3157
  337MOL    H1247724   6.789   0.195   1.699 -1.3819  0.0204 -1.4650
  337MOL    H1347725   6.680   0.070   1.708 -2.7489 -0.2078  2.7826
  337MOL    H1447726   6.625   0.123   1.961 -2.0629 -0.0393  0.4815
  337MOL    H1547727   6.596   0.253   1.844  0.2240  0.6834  1.1383
  337MOL    C1647728   6.698   0.355   2.069  0.5517 -0.0430  0.0919
  337MOL    C1747729   6.585   0.456   2.034  0.1472 -0.3120  0.3992
  337MOL    O1847730   6.460   0.396   1.995 -0.7477 -0.4439  0.2468
  337MOL    H1947731   6.657   0.274   2.130 -0.4543 -0.2653 -0.8666
  337MOL    H2047732   6.770   0.409   2.131 -1.0396  1.3557  0.7809
  337MOL    H2147733   6.614   0.529   1.958 -1.1558  0.4129  0.5782
  337MOL    H2247734   6.558   0.508   2.126 -0.2767 -0.3284  0.2857
  337MOL    C2347735   6.376   0.499   1.932 -0.3367  0.6496  0.2689
  337MOL    C2447736   6.239   0.436   1.895  0.5229  0.0750 -0.3573
  337MOL    O2547737   6.250   0.352   1.780 -0.5581  0.3359 -0.5568
  337MOL    H2647738   6.382   0.586   1.996  3.1834  0.8145 -0.2050
  337MOL    H2747739   6.417   0.538   1.838  0.1820  0.0826  0.2571
  337MOL    H2847740   6.165   0.512   1.872  1.5185  2.0423  2.5495
  337MOL    H2947741   6.206   0.377   1.981 -0.0365  1.9746  0.7679
  337MOL    C3047742   6.138   0.257   1.756 -0.0658  0.1023  0.5131
  337MOL    C3147743   6.162   0.159   1.631 -0.3484 -0.3440 -0.5693
  337MOL    O3247744   6.146   0.231   1.507 -0.0875  0.5987 -0.0172
  337MOL    H3347745   6.127   0.199   1.848 -0.5945 -1.0329 -0.2465
  337MOL    H3447746   6.041   0.303   1.737  0.0098  0.0712  0.0569
  337MOL    H3547747   6.093   0.076   1.628 -0.1076 -0.5154 -2.3147
  337MOL    H3647748   6.265   0.123   1.640 -0.1789  0.2597 -0.0389
  337MOL    C3747749   6.016   0.239   1.452 -0.1319 -0.1591  0.2429
  337MOL    C3847750   6.025   0.240   1.300  0.0168  0.1655 -0.1352
  337MOL    O3947751   6.104   0.347   1.249 -0.2199 -0.4273  0.4538
  337MOL    H4047752   5.952   0.152   1.469 -1.7269  0.7472 -0.9319
  337MOL    H4147753   5.962   0.328   1.485 -0.1732 -0.1732  0.2124
  337MOL    H4247754   5.922   0.245   1.265  0.3477 -0.5291 -1.2638
  337MOL    H4347755   6.067   0.144   1.270  0.5037  0.2358  0.3343
  337MOL    C4447756   6.016   0.454   1.223 -0.3795 -0.0280  0.4012
  337MOL    C4547757   6.107   0.576   1.201  0.8381 -0.1423  0.0820
  337MOL    O4647758   6.141   0.653   1.312  0.1858 -0.2891  0.1659
  337MOL    H4747759   5.979   0.424   1.125  0.6939 -1.4966  0.4206
  337MOL    H4847760   5.930   0.475   1.286  1.6493  0.9005  2.9897
  337MOL    H4947761   6.054   0.644   1.134  1.3164  0.6871  0.5355
  337MOL    H5047762   6.195   0.543   1.148  1.0001 -1.2396  1.0119
  337MOL    C5147763   6.214   0.578   1.412  0.3915 -0.6114 -0.0479
  337MOL    C5247764   6.240   0.654   1.539  0.0947  0.2414  0.1121
  337MOL    O5347765   6.350   0.734   1.523 -0.5844 -0.2365 -0.0723
  337MOL    H5447766   6.147   0.495   1.435 -1.1654  1.2489  2.3621
  337MOL    H5547767   6.304   0.539   1.364  0.0904  0.1068 -1.1993
  337MOL    H5647768   6.252   0.588   1.625 -2.1222  2.5859  2.3084
  337MOL    H5747769   6.155   0.716   1.567 -0.3816 -0.7869  0.9877
  337MOL    C5847770   6.394   0.811   1.633  0.6754  0.0877 -0.0129
  337MOL    C5947771   6.296   0.933   1.656 -0.3495  0.1874  0.4197
  337MOL    O6047772   6.252   0.993   1.532  0.0856  0.2430  0.0964
  337MOL    H6147773   6.402   0.757   1.728  1.4415  2.0962  1.1070
  337MOL    H6247774   6.489   0.858   1.605 -0.4393  0.8773 -2.5444
  337MOL    H6347775   6.351   0.998   1.724  1.2999  2.1575 -2.6653
  337MOL    H6447776   6.204   0.905   1.706 -0.9057  2.5181  0.7501
  337MOL    C6547777   6.190   1.118   1.560  0.2611  0.6050 -0.4390
  337MOL    C6647778   6.197   1.200   1.433 -0.1225  1.3766 -0.5909
  337MOL    O6747779   6.084   1.191   1.347 -0.1832 -0.5729 -0.0194
  337MOL    H6847780   6.085   1.096   1.579  0.5796 -1.2875 -0.8246
  337MOL    H6947781   6.229   1.161   1.653  0.5683  0.2001 -0.3771
  337MOL    H7047782   6.295   1.200   1.385 -0.6704  0.9332 -1.7273
  337MOL    H7147783   6.192   1.302   1.472  3.0831  1.6162 -0.6347
  337MOL    C7247784   6.077   1.078   1.261 -0.6461  0.1265  0.0828
  337MOL    C7347785   5.946   1.064   1.179  0.7754  0.1365 -0.3540
  337MOL    O7447786   5.958   0.979   1.066  1.3351  0.2399  0.1159
  337MOL    H7547787   6.170   1.086   1.204 -2.0619  0.6054 -2.2115
  337MOL    H7647788   6.100   0.984   1.311  0.0883 -1.1561 -2.5922
  337MOL    H7747789   5.923   1.168   1.158 -1.7347 -0.1083  1.0804
  337MOL    H7847790   5.854   1.033   1.226  1.2166 -0.0953  0.3609
  337MOL    C7947791   5.839   0.989   0.982 -0.0680 -0.5941 -0.1862
  337MOL    C8047792   5.865   0.873   0.886 -0.2644  0.3369  0.1476
  337MOL    O8147793   5.895   0.757   0.962  0.2691  0.3222 -0.5646
  337MOL    H8247794   5.747   0.956   1.030 -1.1217 -0.2411 -1.9079
  337MOL    H8347795   5.827   1.085   0.931  1.7378 -0.9688 -1.3764
  337MOL    H8447796   5.942   0.889   0.810  0.7970  0.5618  1.2538
  337MOL    H8547797   5.771   0.863   0.832 -0.3244  1.6926 -0.0244
  337MOL    C8647798   5.897   0.634   0.895  0.3952 -0.7411  0.5562
  337MOL    C8747799   6.030   0.602   0.830  0.1403  0.5545 -0.0298
  337MOL    O8847800   6.034   0.475   0.765  0.0248  0.1330  0.7797
  337MOL    H8947801   5.874   0.565   0.976 -0.7624 -0.1118  0.7845
  337MOL    H9047802   5.817   0.618   0.823  0.3883 -0.4137  0.4874
  337MOL    H9147803   6.111   0.606   0.904  1.8181  0.5054 -1.8213
  337MOL    H9247804   6.058   0.674   0.753 -0.2974 -0.2060 -0.9041
  337MOL    C9347805   6.150   0.456   0.679  0.0876  0.0610  0.1083
  337MOL    C9447806   6.277   0.431   0.761 -0.3861  0.3993 -0.4529
  337MOL    O9547807   6.284   0.300   0.819  0.0904 -0.7876 -0.5948
  337MOL    H9647808   6.143   0.370   0.613 -2.4429  0.0013  0.3873
  337MOL    H9747809   6.159   0.543   0.614 -0.9376 -0.5640 -0.8672
  337MOL    H9847810   6.289   0.501   0.843  0.6530 -1.3523  0.9136
  337MOL    H9947811   6.363   0.439   0.694 -1.5118 -2.3386 -2.3447
  337MOL   C10047812   6.190   0.264   0.910  0.0891 -0.1572 -0.0624
  337MOL   C10147813   6.255   0.145   0.987  0.0876 -0.6797 -0.2312
  337MOL   O10247814   6.170   0.029   0.982  0.1746  0.2457 -0.2641
  337MOL   H10347815   6.167   0.356   0.964  1.4548  0.5699 -0.7184
  337MOL   H10447816   6.102   0.239   0.850  1.9633 -2.4332 -1.9231
  337MOL   H10547817   6.253   0.169   1.094  0.5845  2.5138 -0.9023
  337MOL   H10647818   6.353   0.122   0.947  0.6494 -0.0472  0.7499
  337MOL   C10747819   6.178   7.732   0.855 -0.6547  0.0355 -0.4564
  337MOL   C10847820   6.266   7.611   0.868  0.1402 -0.3711 -0.0742
  337MOL   O10947821   6.401   7.645   0.875 -0.1434 -0.0353  0.2662
  337MOL   H11047822   6.078   7.708   0.820 -0.8217 -0.9854  0.7103
  337MOL   H11147823   6.225   0.019   0.775  0.9681  0.6831  0.9358
  337MOL   H11247824   6.252   7.553   0.776 -0.4240  0.0323 -0.2439
  337MOL   H11347825   6.248   7.554   0.959  1.3800 -0.2342  0.2552
  337MOL   C11447826   6.463   7.637   1.001 -0.6904  0.3568 -0.7683
  337MOL   C11547827   6.543   7.504   1.015  0.3279 -0.2631 -0.4574
  337MOL   O11647828   6.653   7.494   0.918 -0.1098 -0.1316 -0.2667
  337MOL   H11747829   6.532   7.721   1.011 -0.3691 -0.0764  0.9114
  337MOL   H11847830   6.393   7.641   1.085  0.3647  0.6064  0.1263
  337MOL   H11947831   6.485   7.412   1.017  0.5314 -0.3950 -0.6013
  337MOL   H12047832   6.584   7.494   1.115 -0.3849  1.4523  0.0235
  337MOL   C12147833   6.754   7.585   0.954  0.1282 -0.2156  0.0377
  337MOL   C12247834   6.873   7.574   0.862 -0.1384 -0.1488  0.3673
  337MOL   O12347835   6.928   7.440   0.847  0.0748 -0.1224  0.2766
  337MOL   H12447836   6.722   7.688   0.948  1.6871  0.2177 -1.3313
  337MOL   H12547837   6.783   7.576   1.058  1.1800  0.8981 -0.1585
  337MOL   H12647838   6.952   7.643   0.890 -0.4460 -0.1092  1.1534
  337MOL   H12747839   6.840   7.605   0.763 -1.6362 -3.0761 -0.1182
  337MOL   C12847840   7.036   7.421   0.942  0.5755 -0.4809  0.1044
  337MOL   C12947841   7.108   7.282   0.940  0.7047 -0.5833 -0.4105
  337MOL   O13047842   7.166   7.263   0.813 -0.3394 -0.3509  0.0257
  337MOL   H13147843   7.111   7.498   0.922  0.3412 -0.0618  0.8541
  337MOL   H13247844   7.002   7.425   1.045  1.6290 -0.4979  0.4585
  337MOL   H13347845   7.032   7.206   0.955  0.6193 -0.1077  1.7975
  337MOL   H13447846   7.178   7.278   1.025 -1.6709 -1.3486  1.5597
  337MOL   C13547847   7.269   7.164   0.810  0.5155  0.4279  1.4149
  337MOL   C13647848   7.283   7.114   0.660  0.1030 -0.1662  0.4198
  337MOL   O13747849   7.218   6.989   0.637 -0.6969  0.0629 -0.2896
  337MOL   H13847850   7.367   7.199   0.841  1.8841 -2.3004  0.3118
  337MOL   H13947851   7.247   7.078   0.873  1.2922 -0.7191  0.1515
  337MOL   H14047852   7.384   7.096   0.625  0.7837 -1.9301  3.1041
  337MOL   H14147853   7.250   7.192   0.592  1.4391 -1.5472 -1.8566
  337MOL   H14247854   7.159   7.010   0.566 -0.7516  1.1303  0.0608
  338MOL     C147855   4.953   3.365   1.747 -0.1496  0.7919  0.2392
  338MOL     C247856   4.828   3.284   1.735  0.1909  0.6598 -0.3732
  338MOL     O347857   4.822   3.213   1.613  0.2493  0.2564 -0.2399
  338MOL     H447858   5.030   3.291   1.767 -0.7981 -0.4288 -1.6677
  338MOL     H547859   4.958   3.425   1.838  0.5901  1.8952 -0.5185
  338MOL     H647860   4.746   3.355   1.743  0.3997  0.8139  0.3942
  338MOL     H747861   4.805   3.214   1.816 -2.4925  1.4640 -0.4045
  338MOL     H847862   4.977   3.413   1.653 -0.1781 -1.0026 -0.7088
  338MOL     C947863   4.704   3.143   1.592  0.0826 -0.3057 -0.0070
  338MOL    C1047864   4.691   3.106   1.446  0.1600 -0.5008  0.5812
  338MOL    O1147865   4.623   3.210   1.391 -0.3220  0.2280 -0.0959
  338MOL    H1247866   4.714   3.042   1.632 -0.6681 -0.2421  0.3619
  338MOL    H1347867   4.612   3.189   1.627  0.4532  0.8983 -0.5904
  338MOL    H1447868   4.623   3.024   1.424 -0.9315  0.8609 -1.2179
  338MOL    H1547869   4.786   3.076   1.400  0.0661  0.2625 -0.1048
  338MOL    C1647870   4.612   3.214   1.252  0.1781  0.1661 -0.1076
  338MOL    C1747871   4.740   3.255   1.177  0.0780  0.3354 -0.6384
  338MOL    O1847872   4.767   3.388   1.199  0.5928 -0.1684  0.3698
  338MOL    H1947873   4.576   3.119   1.212 -2.3078  0.6282  0.9605
  338MOL    H2047874   4.534   3.284   1.223  2.2879  3.8881  2.5787
  338MOL    H2147875   4.727   3.232   1.071 -2.2347  1.2584 -0.5927
  338MOL    H2247876   4.824   3.195   1.212 -0.1430  0.7974  0.7174
  338MOL    C2347877   4.900   3.424   1.164  0.1530 -0.1144  0.0756
  338MOL    C2447878   4.933   3.565   1.215  0.1376  0.3344 -0.2981
  338MOL    O2547879   4.965   3.571   1.358  0.2979 -0.6135  0.2854
  338MOL    H2647880   4.976   3.363   1.214  0.1613  0.3841  0.6757
  338MOL    H2747881   4.915   3.411   1.057 -1.4287 -1.6968  0.0301
  338MOL    H2847882   4.855   3.637   1.190  2.0641  2.2465 -0.8635
  338MOL    H2947883   5.021   3.599   1.160  1.2244  1.1835  1.9001
  338MOL    C3047884   5.033   3.694   1.393  0.0417  0.3660  0.2081
  338MOL    C3147885   5.063   3.662   1.545  0.4577 -0.9295  0.2179
  338MOL    O3247886   5.192   3.704   1.595 -0.0359  0.5160 -0.1467
  338MOL    H3347887   5.116   3.704   1.323  2.1408 -2.0709  2.2594
  338MOL    H3447888   4.974   3.783   1.371  0.6721  0.5425 -0.8277
  338MOL    H3547889   5.079   3.554   1.552 -0.7911 -1.2371 -1.2961
  338MOL    H3647890   4.985   3.675   1.619 -0.5090 -0.7985 -0.8112
  338MOL    C3747891   5.194   3.693   1.730 -0.2989 -0.5973 -0.5109
  338MOL    C3847892   5.321   3.731   1.801 -0.1498  0.2170  0.1505
  338MOL    O3947893   5.400   3.620   1.835 -0.0720  0.0192 -0.2796
  338MOL    H4047894   5.120   3.767   1.758  1.2795  1.8725 -2.6493
  338MOL    H4147895   5.156   3.597   1.766 -1.2002  0.6717  1.9951
  338MOL    H4247896   5.303   3.808   1.876  2.4397  1.3165 -0.3154
  338MOL    H4347897   5.375   3.792   1.729  0.1239 -0.1249  0.0650
  338MOL    C4447898   5.523   3.649   1.905  0.2436 -0.6394 -0.2451
  338MOL    C4547899   5.555   3.517   1.971  0.8096  0.0530 -0.1596
  338MOL    O4647900   5.467   3.503   2.082  0.4632  0.3653 -0.4119
  338MOL    H4747901   5.605   3.681   1.842  0.8775  2.0292  1.8472
  338MOL    H4847902   5.500   3.732   1.972  2.2816  2.1902 -2.9254
  338MOL    H4947903   5.659   3.516   2.003  1.0521 -2.1759 -0.9025
  338MOL    H5047904   5.550   3.440   1.893 -0.7459  0.6277 -0.6601
  338MOL    C5147905   5.519   3.566   2.205 -0.9358  0.4793  0.1924
  338MOL    C5247906   5.418   3.566   2.310 -0.5341 -0.5565 -0.1276
  338MOL    O5347907   5.480   3.636   2.421 -0.0491  0.0512  0.7497
  338MOL    H5447908   5.595   3.493   2.233  0.5650  1.6453 -0.7713
  338MOL    H5547909   5.562   3.666   2.202  0.3752 -0.0010  1.7895
  338MOL    H5647910   5.385   3.465   2.337 -3.2338  0.2174 -0.4268
  338MOL    H5747911   5.321   3.609   2.285 -0.5079 -2.0558 -2.9361
  338MOL    C5847912   5.507   3.565   2.538 -0.0602 -0.0983 -0.0380
  338MOL    C5947913   5.590   3.439   2.524 -0.2845 -0.8036  0.1050
  338MOL    O6047914   5.520   3.322   2.553  0.6075 -0.1889 -0.4102
  338MOL    H6147915   5.547   3.632   2.613  2.7813  1.2777 -2.6697
  338MOL    H6247916   5.407   3.534   2.570  0.0982 -0.1883  0.3717
  338MOL    H6347917   5.667   3.460   2.599 -0.2084 -1.5542  0.2338
  338MOL    H6447918   5.641   3.423   2.429  1.4718 -2.6786  1.3219
  338MOL    C6547919   5.470   3.239   2.444  0.2265 -0.2052 -0.2466
  338MOL    C6647920   5.453   3.092   2.471 -0.2527  0.1158  0.2195
  338MOL    O6747921   5.575   3.030   2.459 -0.6093 -0.4397 -0.0165
  338MOL    H6847922   5.371   3.270   2.411 -1.0808 -4.2776 -0.4159
  338MOL    H6947923   5.529   3.255   2.354  0.7103 -0.3704  0.0373
  338MOL    H7047924   5.393   3.047   2.392  1.0987  1.0704 -1.3702
  338MOL    H7147925   5.404   3.073   2.566  1.9606  0.7699  1.5211
  338MOL    C7247926   5.661   3.031   2.571  0.1592  0.1396 -0.5015
  338MOL    C7347927   5.807   3.005   2.540  0.5836  0.4754  0.3817
  338MOL    O7447928   5.881   3.127   2.502 -0.0194  0.7048  0.0786
  338MOL    H7547929   5.648   3.127   2.620 -0.6925  0.7398 -1.8828
  338MOL    H7647930   5.625   2.960   2.646 -0.8715  2.0164  0.8407
  338MOL    H7747931   5.827   2.935   2.459  2.2099  2.0891 -0.6654
  338MOL    H7847932   5.842   2.956   2.631  0.3612 -2.1489 -0.9009
  338MOL    C7947933   5.882   3.140   2.360 -0.3737 -0.4386 -0.4642
  338MOL    C8047934   5.915   3.281   2.319  0.1117  0.2875  0.6419
  338MOL    O8147935   6.055   3.315   2.321  0.0476 -0.5669  0.7769
  338MOL    H8247936   5.962   3.081   2.315  0.1849  1.5084 -2.0586
  338MOL    H8347937   5.785   3.109   2.319 -1.2276 -1.5499  2.2686
  338MOL    H8447938   5.875   3.332   2.407  0.0117  0.2471  0.6196
  338MOL    H8547939   5.866   3.303   2.225 -1.8208 -2.4526  0.9375
  338MOL    C8647940   6.076   3.454   2.308 -0.5148 -0.0508  0.1910
  338MOL    C8747941   6.061   3.505   2.168  0.1334  0.0824  0.3595
  338MOL    O8847942   6.147   3.416   2.086  1.0699 -0.2683 -0.0510
  338MOL    H8947943   6.016   3.511   2.380  0.3883  1.3555 -0.1302
  338MOL    H9047944   6.179   3.483   2.333 -0.1655 -0.9649 -0.1948
  338MOL    H9147945   6.091   3.609   2.155 -1.0491  0.4592  0.5648
  338MOL    H9247946   5.954   3.504   2.145  0.6346 -1.2740 -2.0963
  338MOL    C9347947   6.147   3.444   1.949 -0.4651  0.3862 -0.0045
  338MOL    C9447948   6.236   3.341   1.886  0.1160 -0.0901 -0.5978
  338MOL    O9547949   6.358   3.396   1.874 -0.0062  0.0769  0.3160
  338MOL    H9647950   6.045   3.415   1.923 -0.8726  0.0185  1.9007
  338MOL    H9747951   6.159   3.546   1.915 -0.8499  0.3204 -0.3465
  338MOL    H9847952   6.200   3.312   1.787  1.9171  1.2363 -1.6622
  338MOL    H9947953   6.263   3.264   1.958 -0.4129  1.0842  0.8929
  338MOL   C10047954   6.445   3.318   1.793  0.5964  0.0146 -0.8772
  338MOL   C10147955   6.586   3.361   1.818 -0.3764  0.1637 -0.3264
  338MOL   O10247956   6.634   3.473   1.739  0.4510  0.6363 -1.4645
  338MOL   H10347957   6.436   3.216   1.828 -2.4407  0.2267 -0.9165
  338MOL   H10447958   6.417   3.317   1.688 -0.1919  2.7530 -0.7433
  338MOL   H10547959   6.653   3.275   1.804 -0.1032  0.5100 -1.2246
  338MOL   H10647960   6.589   3.391   1.922 -0.2374 -1.1543  0.0610
  338MOL   C10747961   6.777   3.499   1.750 -0.6169  0.0892  0.3186
  338MOL   C10847962   6.795   3.608   1.649 -0.1101 -0.1571 -0.2243
  338MOL   O10947963   6.756   3.727   1.719 -0.2019 -0.7951 -0.1566
  338MOL   H11047964   6.806   3.528   1.851  1.8584  1.6893 -0.8035
  338MOL   H11147965   6.833   3.410   1.722 -1.0107  0.2191 -0.9196
  338MOL   H11247966   6.729   3.589   1.564 -0.9018  2.5493 -0.2545
  338MOL   H11347967   6.895   3.607   1.605 -0.7668 -1.9148 -1.7429
  338MOL   C11447968   6.724   3.835   1.631 -0.1353 -0.2874  0.1006
  338MOL   C11547969   6.669   3.957   1.708 -0.6645 -0.8005 -0.3696
  338MOL   O11647970   6.660   4.067   1.627  0.3613 -0.5147 -0.2085
  338MOL   H11747971   6.824   3.859   1.593  0.6439 -0.8622  1.7094
  338MOL   H11847972   6.656   3.806   1.552 -0.3037 -0.6071  0.3622
  338MOL   H11947973   6.740   3.972   1.789 -0.0945 -0.6081 -0.8931
  338MOL   H12047974   6.566   3.935   1.734 -1.2743  1.7765 -0.4583
  338MOL   C12147975   6.607   4.183   1.695  0.0999  0.2181  0.7287
  338MOL   C12247976   6.636   4.308   1.614  0.3175 -0.4969 -0.6193
  338MOL   O12347977   6.768   4.364   1.643  0.1680  0.0862 -0.1903
  338MOL   H12447978   6.499   4.174   1.707  0.3078 -0.4357  2.2958
  338MOL   H12547979   6.656   4.200   1.791 -0.4753 -1.0783  1.2629
  338MOL   H12647980   6.556   4.379   1.636 -0.3092 -1.4560  0.2226
  338MOL   H12747981   6.636   4.297   1.505  0.8758  1.0213 -0.7870
  338MOL   C12847982   6.879   4.284   1.620 -0.2771  0.2163 -0.5221
  338MOL   C12947983   7.007   4.356   1.638  0.1535  0.5273  0.5449
  338MOL   O13047984   7.024   4.382   1.785  0.0156 -0.0569 -0.0375
  338MOL   H13147985   6.877   4.193   1.680  0.0043  1.2005  1.0035
  338MOL   H13247986   6.865   4.270   1.513 -3.6152 -0.0954 -0.1018
  338MOL   H13347987   7.006   4.447   1.578 -0.4525 -0.2135 -0.5778
  338MOL   H13447988   7.079   4.288   1.593 -1.1387  0.7284 -1.9487
  338MOL   C13547989   7.144   4.448   1.816 -0.4905  0.3642  0.1490
  338MOL   C13647990   7.162   4.468   1.964 -0.4030 -0.8089 -0.1437
  338MOL   O13747991   7.293   4.512   1.974  0.3803  0.4034  0.1606
  338MOL   H13847992   7.230   4.390   1.784 -3.0812 -2.9844 -1.1807
  338MOL   H13947993   7.150   4.540   1.759  2.2916  0.6062  0.7687
  338MOL   H14047994   7.152   4.371   2.014  2.5808 -1.4179 -0.5987
  338MOL   H14147995   7.093   4.546   1.995 -0.6902 -1.5862  1.2324
  338MOL   H14247996   7.284   4.599   1.938 -1.8619 -0.6018 -1.8199
  339MOL     C147997   6.245   2.456   5.882 -0.4809  1.0216  0.1651
  339MOL     C247998   6.394   2.427   5.894  0.1610 -0.2949  0.8328
  339MOL     O347999   6.443   2.539   5.961  1.2151 -0.4621 -0.4206
  339MOL     H448000   6.234   2.544   5.820 -1.7194 -0.2171 -1.4141
  339MOL     H548001   6.185   2.471   5.972 -0.5440 -1.7276  0.6379
  339MOL     H648002   6.445   2.436   5.798 -1.7898 -0.4187 -0.2388
  339MOL     H748003   6.416   2.342   5.960 -0.8647 -0.1008  1.4324
  339MOL     H848004   6.195   2.369   5.839  1.7370 -0.9202  1.4101
  339MOL     C948005   6.572   2.521   6.021  0.3459  0.2403  0.2827
  339MOL    C1048006   6.585   2.574   6.162  0.7048  0.0297 -0.0719
  339MOL    O1148007   6.722   2.590   6.207 -0.2615 -0.0041  0.1629
  339MOL    H1248008   6.601   2.416   6.029 -1.0998 -0.5621 -3.6860
  339MOL    H1348009   6.641   2.575   5.957 -0.4738  1.1596  0.1552
  339MOL    H1448010   6.535   2.508   6.233 -0.7157 -0.6756 -1.6722
  339MOL    H1548011   6.538   2.672   6.162  0.4221 -0.1008 -0.4880
  339MOL    C1648012   6.744   2.658   6.331 -0.3155 -0.0950 -0.5870
  339MOL    C1748013   6.887   2.633   6.380 -0.3654 -0.0004  0.2793
  339MOL    O1848014   6.971   2.733   6.334 -0.5679  0.0769 -0.3228
  339MOL    H1948015   6.734   2.767   6.332 -1.1386 -0.1691 -0.4579
  339MOL    H2048016   6.685   2.619   6.413 -1.0666 -0.0370 -1.0993
  339MOL    H2148017   6.925   2.536   6.347 -0.9595 -1.3613  3.3410
  339MOL    H2248018   6.899   2.637   6.489  1.0497  0.7954  0.0992
  339MOL    C2348019   7.107   2.718   6.373 -0.0914 -0.0382 -0.5638
  339MOL    C2448020   7.190   2.814   6.290  0.0464 -0.0637  0.7357
  339MOL    O2548021   7.186   2.949   6.340  0.2406  0.1428 -0.9969
  339MOL    H2648022   7.109   2.728   6.481 -2.4917 -0.9595 -0.4002
  339MOL    H2748023   7.139   2.619   6.341  0.5938  0.7888 -2.5093
  339MOL    H2848024   7.166   2.809   6.184  1.4187  0.2142  0.4008
  339MOL    H2948025   7.293   2.779   6.303 -0.1684 -0.6093  0.9751
  339MOL    C3048026   7.082   3.029   6.297 -0.2222 -0.0271  0.1389
  339MOL    C3148027   7.126   3.174   6.315 -0.5786 -0.7002  0.6376
  339MOL    O3248028   7.166   3.198   6.448 -0.0986  0.3539 -0.1825
  339MOL    H3348029   7.054   3.028   6.192  0.9304  0.8380 -0.1947
  339MOL    H3448030   6.997   3.007   6.362 -0.7421  1.8842  0.1535
  339MOL    H3548031   7.045   3.243   6.294 -1.0141 -1.5080 -0.3410
  339MOL    H3648032   7.199   3.201   6.238 -1.4972  1.1345  0.3633
  339MOL    C3748033   7.222   3.326   6.469 -0.3860  0.0166  0.7515
  339MOL    C3848034   7.242   3.353   6.620 -0.0911  0.4854  0.3408
  339MOL    O3948035   7.120   3.375   6.695  0.1821 -0.4332  0.5086
  339MOL    H4048036   7.315   3.325   6.411  0.4975  0.3299  2.1484
  339MOL    H4148037   7.151   3.396   6.426  1.6027  1.7989  0.2476
  339MOL    H4248038   7.302   3.444   6.631 -2.0033  1.6258  1.4821
  339MOL    H4348039   7.302   3.273   6.664  1.6068  0.4581 -1.9091
  339MOL    C4448040   7.069   3.508   6.698  0.2054  0.3458  0.0060
  339MOL    C4548041   6.982   3.523   6.824  0.2157  0.1172 -0.0358
  339MOL    O4648042   7.077   3.565   6.918 -0.3597 -0.3808 -0.0724
  339MOL    H4748043   7.147   3.584   6.696  0.5463 -0.0061 -0.1154
  339MOL    H4848044   7.013   3.524   6.606  1.3406 -0.8560 -0.9175
  339MOL    H4948045   6.905   3.447   6.840 -0.1031  0.1930 -1.2037
  339MOL    H5048046   6.916   3.608   6.805 -0.2250  0.3243  2.1889
  339MOL    C5148047   7.132   3.458   6.995 -0.3626  0.0864  0.0920
  339MOL    C5248048   7.210   3.511   7.111  0.4087  0.0501  0.9555
  339MOL    O5348049   7.116   3.537   7.222  0.0965 -0.1462 -0.1230
  339MOL    H5448050   7.057   3.387   7.030  0.5569  0.1125  2.2047
  339MOL    H5548051   7.202   3.409   6.928  0.5901  0.1195  1.0512
  339MOL    H5648052   7.274   3.597   7.090  0.5596 -0.4690 -0.7519
  339MOL    H5748053   7.290   3.441   7.137  0.5478  1.2562  4.0292
  339MOL    C5848054   7.172   3.607   7.327 -0.3002 -1.1634 -0.0479
  339MOL    C5948055   7.084   3.624   7.454  0.3486  0.3778 -0.3710
  339MOL    O6048056   7.059   3.501   7.521 -0.1382 -0.5466 -0.1404
  339MOL    H6148057   7.262   3.552   7.356  0.9663  0.2765 -1.1683
  339MOL    H6248058   7.192   3.708   7.292 -1.7239 -0.9005 -0.0985
  339MOL    H6348059   6.989   3.675   7.438  0.0499 -0.1876 -0.4294
  339MOL    H6448060   7.143   3.695   7.511  1.7320  1.1587 -2.6993
  339MOL    C6548061   6.954   3.510   7.619  0.0660 -0.4564 -0.0713
  339MOL    C6648062   6.932   3.380   7.695 -0.0345  0.4223 -0.3025
  339MOL    O6748063   7.026   3.369   0.024 -0.3779  0.0458  0.4174
  339MOL    H6848064   6.976   3.596   7.682  1.3120  2.0090 -3.7113
  339MOL    H6948065   6.865   3.534   7.561 -0.2509 -0.4260  0.4298
  339MOL    H7048066   6.937   3.291   7.633 -1.1946 -1.5838  2.3636
  339MOL    H7148067   6.831   3.368   7.735 -0.2434 -0.7409 -1.1481
  339MOL    C7248068   7.001   3.258   0.109 -0.3907  0.0737  0.7585
  339MOL    C7348069   7.103   3.277   0.227 -0.2287  0.0278  0.3170
  339MOL    O7448070   7.212   3.192   0.208 -0.9494 -0.4999 -0.1808
  339MOL    H7548071   6.900   3.268   0.147  0.0289 -0.2268  1.9544
  339MOL    H7648072   7.007   3.162   0.058  1.1925 -1.2842  3.4412
  339MOL    H7748073   7.067   3.260   0.328  0.2207 -1.2723  0.2745
  339MOL    H7848074   7.126   3.383   0.231 -0.2753  0.1776 -2.6261
  339MOL    C7948075   7.293   3.175   0.327 -0.2875 -0.4464 -0.6563
  339MOL    C8048076   7.378   3.302   0.365  0.6110  0.0227 -0.9080
  339MOL    O8148077   7.302   3.395   0.448 -0.0629 -0.2716  0.2064
  339MOL    H8248078   7.233   3.141   0.412  2.2902  0.6938  1.6643
  339MOL    H8348079   7.372   3.103   0.310 -0.0954 -0.4899  0.4231
  339MOL    H8448080   7.426   3.350   0.280  1.6096 -0.5584 -0.6780
  339MOL    H8548081   7.458   3.265   0.430 -0.6350 -1.1110  0.0238
  339MOL    C8648082   7.371   3.519   0.464  0.4692 -0.3712  0.7496
  339MOL    C8748083   7.500   3.508   0.545  0.5717 -0.3457  0.3617
  339MOL    O8848084   7.468   3.463   0.675 -0.1798  0.2955  0.1811
  339MOL    H8948085   7.397   3.566   0.369  1.8649  1.3031  1.9214
  339MOL    H9048086   7.293   3.584   0.502  0.8553  0.8426 -0.4738
  339MOL    H9148087   7.560   3.597   0.560 -1.2037  0.8124  0.7465
  339MOL    H9248088   7.569   3.440   0.495  1.4751  0.3416  0.6649
  339MOL    C9348089   7.570   3.396   0.746  0.8082 -0.8227 -0.6174
  339MOL    C9448090   7.511   3.358   0.882 -0.6266  0.1588  0.2118
  339MOL    O9548091   7.505   3.474   0.968  0.0336  1.0035 -0.5780
  339MOL    H9648092   7.588   3.301   0.695  1.3676 -1.6623  1.0712
  339MOL    H9748093   7.667   3.445   0.755  1.2493 -1.5696 -1.2175
  339MOL    H9848094   7.587   3.289   0.919  1.6004  1.7261 -1.2848
  339MOL    H9948095   7.414   3.311   0.870  1.0048 -3.3293  0.1038
  339MOL   C10048096   7.486   3.431   1.107 -0.3262 -0.0227  0.1516
  339MOL   C10148097   7.481   3.554   1.204 -0.4478 -0.6346  0.2911
  339MOL   O10248098   7.594   3.553   1.287 -0.1505  0.1088 -0.4564
  339MOL   H10348099   7.389   3.381   1.120 -0.4671  0.1141 -0.3959
  339MOL   H10448100   7.566   3.362   1.136  1.1131  0.2260 -3.0860
  339MOL   H10548101   7.384   3.554   1.254 -0.7077  0.3201 -0.2122
  339MOL   H10648102   7.479   3.647   1.147  3.4824 -0.5328  0.1720
  339MOL   C10748103   7.619   3.674   1.366 -0.1323 -0.7153 -0.3398
  339MOL   C10848104   7.499   3.740   1.448  0.2188  0.1687  0.0139
  339MOL   O10948105   7.408   3.807   1.357 -0.2316  0.2042  0.1158
  339MOL   H11048106   7.687   3.648   1.447  0.5312  0.8664 -0.3805
  339MOL   H11148107   7.675   3.746   1.308  0.2278 -0.5092  0.2649
  339MOL   H11248108   7.531   3.817   1.518 -1.1305  1.7392 -1.0530
  339MOL   H11348109   7.449   3.658   1.500 -0.2557 -0.2259 -1.0443
  339MOL   C11448110   7.460   3.924   1.289  0.5454  0.5877  0.2095
  339MOL   C11548111   7.359   3.969   1.184  0.1037 -0.4804  1.0168
  339MOL   O11648112   7.251   4.038   1.244  0.1568  0.2252  0.1337
  339MOL   H11748113   7.463   3.993   1.373 -1.1317 -0.9335  1.5616
  339MOL   H11848114   7.557   3.930   1.241  0.4476  3.2462  0.2657
  339MOL   H11948115   7.320   3.881   1.132  0.4121  1.1993 -2.1998
  339MOL   H12048116   7.400   4.030   1.104 -1.2289 -0.1083  0.5981
  339MOL   C12148117   7.153   4.080   1.152 -0.3933 -0.3559  0.0039
  339MOL   C12248118   7.192   4.229   1.120 -0.3140 -0.0924 -0.2388
  339MOL   O12348119   7.179   4.319   1.230 -1.0717 -0.0938 -0.0738
  339MOL   H12448120   7.141   4.019   1.063 -3.4497  2.7683 -1.8216
  339MOL   H12548121   7.057   4.080   1.202 -0.3477  1.4639  0.1222
  339MOL   H12648122   7.130   4.268   1.039  0.7343  3.2196  0.4631
  339MOL   H12748123   7.296   4.221   1.087 -0.9640 -0.4374 -2.2762
  339MOL   C12848124   7.248   4.307   1.353 -0.1178 -0.3075  0.3392
  339MOL   C12948125   7.400   4.295   1.321 -0.0301 -0.7237  0.6344
  339MOL   O13048126   7.456   4.423   1.284  0.3004  0.1549 -0.4695
  339MOL   H13148127   7.234   4.389   1.423 -1.1091  0.6975 -1.0025
  339MOL   H13248128   7.213   4.212   1.394 -0.6942  0.0139  0.6048
  339MOL   H13348129   7.412   4.210   1.254 -0.5357  0.1835 -0.6267
  339MOL   H13448130   7.447   4.264   1.415  1.2294  0.6898  0.5008
  339MOL   C13548131   7.589   4.412   1.243 -0.2868  0.2912 -0.2616
  339MOL   C13648132   7.631   4.551   1.200  0.7511 -0.4548  0.1351
  339MOL   O13748133   7.546   4.601   1.098  0.4265 -0.0517 -0.8025
  339MOL   H13848134   7.663   4.367   1.309  1.9516  0.0931 -2.7826
  339MOL   H13948135   7.586   4.353   1.151 -2.2158  1.0828 -0.7264
  339MOL   H14048136   7.728   4.538   1.152  0.6008 -0.7451 -0.0924
  339MOL   H14148137   7.644   4.616   1.287  0.5342  0.7378 -0.7208
  339MOL   H14248138   7.455   4.598   1.126  0.3997 -1.7548 -0.9872
  340MOL     C148139   5.356   7.726   5.816  0.1235  0.4047 -0.8465
  340MOL     C248140   5.244   0.012   5.897  0.1930  0.2228 -0.0202
  340MOL     O348141   5.240   0.161   5.888  0.7519  0.3468 -0.5076
  340MOL     H448142   5.351   7.723   5.707  3.0946 -1.4760 -1.0078
  340MOL     H548143   5.384   7.624   5.840 -0.1624  0.5176 -0.0184
  340MOL     H648144   5.260   7.748   5.999 -1.8385 -1.2590 -0.1780
  340MOL     H748145   5.149   7.748   5.858 -0.0092  0.7536 -0.0025
  340MOL     H848146   5.450   0.006   5.839 -0.5567  1.3010 -0.0313
  340MOL     C948147   5.154   0.219   5.981 -0.1710 -0.3777  0.4176
  340MOL    C1048148   5.126   0.366   5.950  0.4853 -0.6200  0.1689
  340MOL    O1148149   5.059   0.376   5.827 -0.1140 -0.4082 -0.1070
  340MOL    H1248150   5.058   0.170   5.995 -0.7967 -0.9039 -4.6126
  340MOL    H1348151   5.218   0.212   6.069  3.1404  1.5752 -1.7257
  340MOL    H1448152   5.212   0.432   5.946 -1.6806  2.2350 -0.5727
  340MOL    H1548153   5.065   0.397   6.035 -0.2475  0.3158 -0.6894
  340MOL    C1648154   5.015   0.510   5.797  0.4907  0.2286  0.1900
  340MOL    C1748155   5.012   0.530   5.644 -0.4943 -0.5213  0.2164
  340MOL    O1848156   4.968   0.665   5.624 -0.1167 -0.0777 -0.7383
  340MOL    H1948157   4.927   0.536   5.855 -0.4043  0.6346 -1.3153
  340MOL    H2048158   5.088   0.579   5.839 -1.3081  1.4930  1.3621
  340MOL    H2148159   4.927   0.473   5.607 -0.5132  0.6441 -1.5595
  340MOL    H2248160   5.108   0.498   5.604 -0.6839 -1.1694  0.2641
  340MOL    C2348161   4.981   0.714   5.498  0.6273 -0.0136  0.1070
  340MOL    C2448162   4.919   0.847   5.472 -0.9972 -1.4177 -0.1393
  340MOL    O2548163   4.930   0.907   5.341 -0.1536  0.3139 -0.6787
  340MOL    H2648164   5.088   0.724   5.477  0.7793  0.8279  1.2483
  340MOL    H2748165   4.941   0.638   5.430 -1.2580 -0.1604  1.3625
  340MOL    H2848166   4.955   0.924   5.541  1.9491 -3.0863  0.2714
  340MOL    H2948167   4.811   0.839   5.478 -1.3921  2.4250 -0.5208
  340MOL    C3048168   4.847   1.015   5.303  0.2650 -0.2095  0.2204
  340MOL    C3148169   4.888   1.068   5.166 -0.6911  0.3588  0.5139
  340MOL    O3248170   4.990   1.169   5.181  0.7175  0.0030  1.2758
  340MOL    H3348171   4.742   0.991   5.321  0.3858 -0.4236  0.6399
  340MOL    H3448172   4.869   1.102   5.365 -2.6028  0.7249 -0.0152
  340MOL    H3548173   4.800   1.117   5.124 -2.4053  0.2216  3.7369
  340MOL    H3648174   4.919   0.994   5.093  2.5074  2.1692 -0.0705
  340MOL    C3748175   5.016   1.246   5.064 -0.5033  0.6524  0.2620
  340MOL    C3848176   5.056   1.391   5.094  0.2209 -0.2005  0.1817
  340MOL    O3948177   4.937   1.463   5.136 -0.1124  0.3027  0.2002
  340MOL    H4048178   5.096   1.193   5.014 -2.3592 -2.8683  0.8841
  340MOL    H4148179   4.938   1.244   4.988 -1.0887  0.7580  0.8586
  340MOL    H4248180   5.082   1.439   5.000  2.6002  4.7835  3.1852
  340MOL    H4348181   5.151   1.396   5.148  0.4979  1.0009 -0.4004
  340MOL    C4448182   4.964   1.594   5.191 -0.0445 -0.2911 -0.0223
  340MOL    C4548183   4.827   1.669   5.211  0.1573 -0.2791 -0.0308
  340MOL    O4648184   4.772   1.699   5.085 -0.0227 -1.2225 -0.4874
  340MOL    H4748185   5.009   1.578   5.289  1.9086  2.8381 -0.3408
  340MOL    H4848186   5.038   1.657   5.142 -0.1962 -0.7565 -0.8506
  340MOL    H4948187   4.842   1.751   5.281 -0.2566  0.5923 -0.9611
  340MOL    H5048188   4.758   1.602   5.263 -0.8898  0.9974  0.2361
  340MOL    C5148189   4.655   1.780   5.093  0.0409  0.0392  0.0688
  340MOL    C5248190   4.594   1.767   4.951 -0.0723  0.0105 -0.1730
  340MOL    O5348191   4.450   1.756   4.957  0.3442  0.6472  0.2266
  340MOL    H5448192   4.597   1.744   5.178  1.5721  1.2571  1.6665
  340MOL    H5548193   4.685   1.879   5.127  0.9317 -0.1727 -0.0818
  340MOL    H5648194   4.627   1.673   4.906  0.1035 -1.5974  3.1698
  340MOL    H5748195   4.619   1.851   4.886 -0.6264 -0.6383 -1.2366
  340MOL    C5848196   4.384   1.661   4.871 -0.5413 -0.6698  0.0083
  340MOL    C5948197   4.235   1.662   4.893 -0.1915  0.1984  0.2647
  340MOL    O6048198   4.200   1.612   5.022  0.3400 -0.2724  0.0256
  340MOL    H6148199   4.397   1.691   4.767 -1.2100  0.2990  0.1962
  340MOL    H6248200   4.427   1.561   4.870  2.8154  0.6784  0.4395
  340MOL    H6348201   4.186   1.600   4.818  1.3544 -1.8936  0.9310
  340MOL    H6448202   4.191   1.761   4.881 -2.3837 -0.3491  3.1591
  340MOL    C6548203   4.065   1.590   5.049  0.3934 -0.2181 -0.5459
  340MOL    C6648204   4.043   1.547   5.194  0.2933 -0.1453 -0.0137
  340MOL    O6748205   4.109   1.420   5.217 -0.5493  0.1079 -0.2895
  340MOL    H6848206   4.018   1.688   5.045  0.3643 -0.2284 -0.4515
  340MOL    H6948207   4.018   1.518   4.981  0.1571 -0.2724 -0.3236
  340MOL    H7048208   3.935   1.535   5.208  0.4294 -1.1990  0.1924
  340MOL    H7148209   4.066   1.629   5.262  0.1174 -0.2246  0.1420
  340MOL    C7248210   4.056   1.341   5.323  0.2247  0.1986  0.3822
  340MOL    C7348211   4.114   1.191   5.308  0.0878  0.6725 -0.5002
  340MOL    O7448212   4.062   1.122   5.191 -0.0105 -0.8026 -0.2468
  340MOL    H7548213   4.071   1.389   5.420  0.3257 -1.8079  1.3694
  340MOL    H7648214   3.947   1.336   5.320  0.2050  1.1975 -1.1893
  340MOL    H7748215   4.079   1.135   5.394 -2.0986  0.4946 -1.4841
  340MOL    H7848216   4.223   1.191   5.315  0.0215 -0.6488  0.7426
  340MOL    C7948217   4.106   1.180   5.060  0.3721  0.2318 -0.2377
  340MOL    C8048218   4.254   1.217   5.037 -0.5379  0.3719  0.5150
  340MOL    O8148219   4.341   1.109   5.002  0.6625  0.5783  0.2713
  340MOL    H8248220   4.060   1.130   4.975 -0.3301 -0.6181  0.6310
  340MOL    H8348221   4.042   1.266   5.042  0.6950  0.6288  0.4848
  340MOL    H8448222   4.289   1.281   5.117 -0.7105  0.3390  0.6150
  340MOL    H8548223   4.242   1.286   4.953 -0.1923  0.9927  0.9739
  340MOL    C8648224   4.393   1.036   5.111 -0.7407 -0.2566  0.2982
  340MOL    C8748225   4.496   0.933   5.074 -0.1908  0.2677  0.1682
  340MOL    O8848226   4.550   0.844   5.180 -0.5422 -0.0292 -0.0323
  340MOL    H8948227   4.430   1.114   5.178  0.9238  0.4930 -1.4496
  340MOL    H9048228   4.303   0.993   5.155  0.6275 -1.4706  2.0046
  340MOL    H9148229   4.574   0.992   5.026 -0.5285  1.7808  1.4474
  340MOL    H9248230   4.460   0.874   4.989  0.1329 -0.0596  0.2601
  340MOL    C9348231   4.456   0.754   5.236  0.6819  0.5540  0.2414
  340MOL    C9448232   4.526   0.653   5.329  0.2019 -0.1339  0.6727
  340MOL    O9548233   4.548   0.693   5.456  0.5807 -0.2767 -0.3679
  340MOL    H9648234   4.373   0.804   5.286  0.3476  0.0213  0.2219
  340MOL    H9748235   4.413   0.682   5.167  1.2324 -0.8229  1.3249
  340MOL    H9848236   4.616   0.620   5.276  0.4413  1.1374  0.2834
  340MOL    H9948237   4.473   0.559   5.346  1.2791 -1.0664 -1.0569
  340MOL   C10048238   4.627   0.606   5.533 -0.5127  0.3922  0.9074
  340MOL   C10148239   4.652   0.640   5.683 -0.1114  0.7197 -0.2592
  340MOL   O10248240   4.527   0.617   5.754 -0.3739  0.0259 -0.0982
  340MOL   H10348241   4.602   0.501   5.517 -0.2167  0.4776 -0.1922
  340MOL   H10448242   4.726   0.611   5.487  0.4026 -2.5030  2.4181
  340MOL   H10548243   4.695   0.740   5.697  1.5883  0.1582 -1.3527
  340MOL   H10648244   4.730   0.571   5.714 -1.9527 -1.2478  0.1301
  340MOL   C10748245   4.538   0.650   5.885 -0.2587  0.0755  0.4165
  340MOL   C10848246   4.542   0.804   5.925  0.2476 -0.4851 -0.2924
  340MOL   O10948247   4.683   0.825   5.946 -0.6463 -0.4102  0.0621
  340MOL   H11048248   4.463   0.602   5.948 -0.5590 -1.6585 -1.2185
  340MOL   H11148249   4.625   0.593   5.916 -1.9726 -2.4857  0.7208
  340MOL   H11248250   4.486   0.811   6.019  1.2240 -0.6305  0.3068
  340MOL   H11348251   4.499   0.866   5.846  1.8673  1.7468  0.5220
  340MOL   C11448252   4.733   0.953   5.912  0.4836 -0.3295 -0.2089
  340MOL   C11548253   4.875   0.931   5.867  0.2997 -0.0161 -0.5518
  340MOL   O11648254   4.976   1.002   5.952 -0.6260 -0.1713 -0.3968
  340MOL   H11748255   4.673   0.999   5.833 -0.9864  0.7329  1.4806
  340MOL   H11848256   4.725   1.005   6.007 -1.2078 -1.2242  0.1537
  340MOL   H11948257   4.883   0.973   5.767  0.2753 -2.0918 -1.4590
  340MOL   H12048258   4.895   0.824   5.865 -1.5019 -0.4168  1.2543
  340MOL   C12148259   5.102   1.028   5.895  0.8491 -0.9696  0.2856
  340MOL   C12248260   5.188   0.893   5.882  0.1058  0.2962 -0.2768
  340MOL   O12348261   5.269   0.871   6.003 -0.1273  0.3395 -0.2372
  340MOL   H12448262   5.097   1.073   5.796 -0.3774 -0.0342  0.7708
  340MOL   H12548263   5.159   1.093   5.961  1.1522 -1.3744  0.4258
  340MOL   H12648264   5.241   0.893   5.787 -1.3808  0.4477 -1.1269
  340MOL   H12748265   5.124   0.806   5.873  0.7476 -0.3528  1.1719
  340MOL   C12848266   5.358   0.761   5.985 -0.0077 -0.7967  0.0138
  340MOL   C12948267   5.436   0.725   6.109 -0.1758  0.2283  0.4963
  340MOL   O13048268   5.348   0.663   6.203  0.1125  0.5505  0.2589
  340MOL   H13148269   5.311   0.679   5.931 -1.0868  0.1001 -0.4186
  340MOL   H13248270   5.432   0.795   5.913 -3.2251  1.9834 -2.1235
  340MOL   H13348271   5.486   0.812   6.151 -0.9936 -0.3830  2.8436
  340MOL   H13448272   5.507   0.646   6.084 -2.3989 -2.2657  1.7418
  340MOL   C13548273   5.419   0.640   6.325  0.4628  0.1392  0.0785
  340MOL   C13648274   5.314   0.572   6.423  0.2579  0.4949  0.5851
  340MOL   O13748275   5.372   0.534   6.546  0.0065 -0.3184 -0.8138
  340MOL   H13848276   5.504   0.574   6.307 -0.8275 -1.3152 -0.8104
  340MOL   H13948277   5.450   0.738   6.363  0.6825  0.2085 -0.2722
  340MOL   H14048278   5.267   0.493   6.365 -1.8465  1.0304  1.5106
  340MOL   H14148279   5.233   0.635   6.460  0.8618  1.2190  0.6990
  340MOL   H14248280   5.426   0.458   6.529  1.1524  0.1018  0.7979
  341MOL     C148281   2.621   1.612   6.139  1.5967 -0.4142  0.0895
  341MOL     C248282   2.588   1.711   6.026 -0.0277  0.0771  0.0083
  341MOL     O348283   2.676   1.691   5.909  0.1463  0.7011  0.2969
  341MOL     H448284   2.553   1.626   6.223  0.1465  2.3816 -1.4848
  341MOL     H548285   2.723   1.610   6.177  2.3775 -4.1172 -1.9833
  341MOL     H648286   2.600   1.812   6.063 -3.8345 -0.0651  1.8482
  341MOL     H748287   2.486   1.702   5.987 -0.3027 -2.6177  1.2222
  341MOL     H848288   2.593   1.512   6.105  0.3540 -0.0953  0.1386
  341MOL     C948289   2.672   1.779   5.807 -0.3836 -0.1227 -0.3333
  341MOL    C1048290   2.775   1.745   5.707  0.0650  0.0123 -0.2657
  341MOL    O1148291   2.902   1.723   5.766 -0.0483 -0.2429  0.2944
  341MOL    H1248292   2.575   1.785   5.757 -0.8243  2.7049  0.7997
  341MOL    H1348293   2.677   1.883   5.837 -2.4373  0.0114 -0.3814
  341MOL    H1448294   2.782   1.827   5.636 -1.9386  0.1345 -0.3700
  341MOL    H1548295   2.739   1.658   5.652  0.3472  0.3269 -0.9621
  341MOL    C1648296   3.005   1.671   5.677 -0.2983  0.5430  0.7845
  341MOL    C1748297   3.135   1.637   5.755 -0.1595 -0.1797  0.5233
  341MOL    O1848298   3.223   1.584   5.660  0.4923 -0.6624  0.1528
  341MOL    H1948299   2.968   1.572   5.649  2.0530 -1.3237  3.9504
  341MOL    H2048300   3.016   1.723   5.582  1.1888  0.5288  0.9323
  341MOL    H2148301   3.112   1.575   5.841 -0.5720  0.8576  1.1652
  341MOL    H2248302   3.179   1.730   5.793  2.3051 -0.9449 -0.3846
  341MOL    C2348303   3.338   1.527   5.726  0.0600 -0.0790  0.3361
  341MOL    C2448304   3.431   1.452   5.629  0.5600  0.3580  0.4687
  341MOL    O2548305   3.496   1.546   5.540 -0.1241  0.3057 -0.1261
  341MOL    H2648306   3.397   1.599   5.783  0.8921 -0.3782 -0.1301
  341MOL    H2748307   3.292   1.456   5.795 -0.8369  0.0149 -0.1617
  341MOL    H2848308   3.367   1.379   5.579  0.9260  0.7147 -0.5365
  341MOL    H2948309   3.513   1.395   5.672  1.3300 -0.3851 -1.9255
  341MOL    C3048310   3.596   1.475   5.462 -0.2292 -0.7685  0.1420
  341MOL    C3148311   3.689   1.571   5.389  0.6797  0.0346 -0.1583
  341MOL    O3248312   3.610   1.635   5.296  0.2154 -0.9147  0.0363
  341MOL    H3348313   3.664   1.427   5.532 -2.0840 -0.7743  1.9704
  341MOL    H3448314   3.557   1.398   5.394 -0.2069  0.1963 -0.9881
  341MOL    H3548315   3.774   1.518   5.345 -0.3670 -0.7420 -1.2754
  341MOL    H3648316   3.736   1.637   5.462 -0.0448  1.0812 -0.6281
  341MOL    C3748317   3.671   1.710   5.195 -0.5664 -0.5107 -0.0808
  341MOL    C3848318   3.746   1.836   5.242 -0.0699  0.3322  0.3543
  341MOL    O3948319   3.872   1.800   5.306  0.2071  0.6880  0.3023
  341MOL    H4048320   3.744   1.647   5.143  0.0494  1.2529 -1.3860
  341MOL    H4148321   3.597   1.737   5.119  0.8890 -1.2371 -1.8229
  341MOL    H4248322   3.677   1.881   5.313  0.4430 -0.4141  1.3298
  341MOL    H4348323   3.771   1.889   5.150  1.8573  0.2354  0.7948
  341MOL    C4448324   3.932   1.898   5.394  0.0280  0.0623 -0.3865
  341MOL    C4548325   4.084   1.901   5.379  0.2786  0.6593 -0.3445
  341MOL    O4648326   4.120   1.922   5.244  0.3944  0.4773  0.5021
  341MOL    H4748327   3.879   1.991   5.371 -1.6604 -0.4515  1.2646
  341MOL    H4848328   3.890   1.859   5.487 -3.0578  2.7633 -0.5361
  341MOL    H4948329   4.105   1.799   5.412 -1.7593  0.3329  0.0144
  341MOL    H5048330   4.126   1.980   5.441 -3.4253  2.5859 -0.1446
  341MOL    C5148331   4.248   1.886   5.210  0.2038 -0.7757  0.4566
  341MOL    C5248332   4.353   1.985   5.268  0.1631 -0.2655 -0.1112
  341MOL    O5348333   4.395   1.938   5.398 -0.0766 -0.1458 -0.7003
  341MOL    H5448334   4.261   1.781   5.237 -3.4983 -1.2850  0.5486
  341MOL    H5548335   4.250   1.894   5.102  2.2658 -2.0629  0.3666
  341MOL    H5648336   4.314   2.086   5.266  1.2417  0.1702  0.4099
  341MOL    H5748337   4.440   1.988   5.203  0.8415 -1.4575  0.7218
  341MOL    C5848338   4.459   2.042   5.470 -0.4909  0.1003 -0.7285
  341MOL    C5948339   4.610   2.015   5.438  0.1630 -0.4134 -0.2498
  341MOL    O6048340   4.640   2.102   5.332 -0.1920  0.2491  0.3837
  341MOL    H6148341   4.432   2.141   5.432 -0.2047  0.2815 -0.4519
  341MOL    H6248342   4.442   2.042   5.577  0.6503 -1.5380 -0.5284
  341MOL    H6348343   4.639   1.913   5.414  1.6358  0.3099 -1.6913
  341MOL    H6448344   4.675   2.045   5.520  0.8728 -1.1147 -0.5403
  341MOL    C6548345   4.781   2.103   5.308  0.1958  0.4165  0.2223
  341MOL    C6648346   4.831   2.215   5.223  0.9314  0.7271 -0.5928
  341MOL    O6748347   4.972   2.213   5.211 -0.4132  0.1464 -0.2894
  341MOL    H6848348   4.836   2.117   5.401 -1.2648  1.1420  0.9880
  341MOL    H6948349   4.813   2.005   5.273  0.2706  0.8583 -0.9642
  341MOL    H7048350   4.789   2.304   5.269  0.6511  0.5590 -0.5229
  341MOL    H7148351   4.786   2.212   5.124 -2.4302  0.6184  0.8943
  341MOL    C7248352   5.013   2.311   5.118  0.4005  0.6611  0.1441
  341MOL    C7348353   5.159   2.358   5.136 -0.1448  0.2987 -0.1113
  341MOL    O7448354   5.194   2.469   5.051  0.3861 -0.5679 -0.1372
  341MOL    H7548355   4.987   2.291   5.014 -0.4582  1.1992  0.2496
  341MOL    H7648356   4.957   2.403   5.136 -0.0019  0.1105  1.8250
  341MOL    H7748357   5.223   2.271   5.121 -0.8995 -0.1092 -0.9569
  341MOL    H7848358   5.167   2.381   5.242 -2.1637 -1.7701  0.5193
  341MOL    C7948359   5.328   2.515   5.071 -0.1727 -0.5910 -0.3285
  341MOL    C8048360   5.320   2.625   5.181  0.3280  0.3886 -0.7213
  341MOL    O8148361   5.316   2.562   5.309  0.1708  0.5295  0.3947
  341MOL    H8248362   5.394   2.431   5.093 -1.6013 -1.9057 -0.9411
  341MOL    H8348363   5.364   2.564   4.981 -0.3582 -3.2553 -1.9267
  341MOL    H8448364   5.235   2.689   5.160 -2.0476 -2.3675  0.1169
  341MOL    H8548365   5.408   2.689   5.184 -0.2987  1.2248  0.1014
  341MOL    C8648366   5.248   2.645   5.410 -0.1801  0.7028 -0.3915
  341MOL    C8748367   5.276   2.580   5.550  0.4571  0.0151  0.2287
  341MOL    O8848368   5.190   2.470   5.578 -0.7298 -0.2659  0.4781
  341MOL    H8948369   5.285   2.747   5.396 -1.9047  1.1846 -1.6631
  341MOL    H9048370   5.140   2.650   5.399 -0.3795 -0.9887  0.6315
  341MOL    H9148371   5.265   2.661   5.621 -1.0051 -0.0567  0.0964
  341MOL    H9248372   5.377   2.538   5.544  0.2685 -0.2376 -1.3910
  341MOL    C9348373   5.250   2.365   5.656  0.0581  0.0421  0.3169
  341MOL    C9448374   5.150   2.250   5.647  0.1820 -0.2119 -0.0111
  341MOL    O9548375   5.113   2.220   5.510 -0.7417  0.1380  0.2503
  341MOL    H9648376   5.346   2.322   5.628 -0.4590 -1.8147  1.3333
  341MOL    H9748377   5.255   2.395   5.760 -1.2969  2.9064 -0.3902
  341MOL    H9848378   5.055   2.279   5.692 -0.2184 -0.9894 -0.3540
  341MOL    H9948379   5.187   2.165   5.704 -0.0102 -1.4074 -1.6570
  341MOL   C10048380   5.195   2.133   5.440  0.6079  0.5001  0.3599
  341MOL   C10148381   5.182   1.981   5.481  0.0044  0.3140 -0.4332
  341MOL   O10248382   5.263   1.899   5.391 -0.6163  0.2926  0.0490
  341MOL   H10348383   5.174   2.142   5.333 -1.9029 -3.0568  0.4662
  341MOL   H10448384   5.300   2.158   5.455  1.0427 -1.2885  0.4264
  341MOL   H10548385   5.081   1.944   5.464  0.4681 -0.3815 -1.7684
  341MOL   H10648386   5.183   1.955   5.587  0.0666 -1.1611 -0.7886
  341MOL   C10748387   5.200   1.779   5.353  0.2099  0.2319  0.2033
  341MOL   C10848388   5.297   1.686   5.279  0.0827 -0.1458 -0.4634
  341MOL   O10948389   5.330   1.732   5.150  0.6072  0.2994 -0.5045
  341MOL   H11048390   5.158   1.720   5.435 -0.1429 -0.6977 -0.6349
  341MOL   H11148391   5.121   1.796   5.280  0.5376  1.1639  0.0610
  341MOL   H11248392   5.253   1.586   5.270  2.7215 -1.5017  1.2415
  341MOL   H11348393   5.392   1.685   5.333  0.0337 -0.7199 -0.3829
  341MOL   C11448394   5.381   1.633   5.060 -0.1870  0.0759  0.2622
  341MOL   C11548395   5.502   1.557   5.113  0.4418 -0.4670  0.7520
  341MOL   O11648396   5.454   1.441   5.179  0.2554 -0.6521 -0.4977
  341MOL   H11748397   5.294   1.567   5.049  0.5500 -0.8534 -0.1096
  341MOL   H11848398   5.417   1.687   4.972 -1.0150 -1.6476 -1.1842
  341MOL   H11948399   5.565   1.624   5.171  4.2835 -2.6026 -0.8125
  341MOL   H12048400   5.560   1.512   5.033  4.3095  1.2922  2.4727
  341MOL   C12148401   5.554   1.388   5.267 -0.4457  0.1989 -0.3414
  341MOL   C12248402   5.559   1.461   5.405  0.4835  0.1672  0.0104
  341MOL   O12348403   5.653   1.567   5.397 -0.0530 -0.3420 -0.5599
  341MOL   H12448404   5.524   1.284   5.279 -0.1904  0.2952  1.2346
  341MOL   H12548405   5.652   1.378   5.219 -0.0794  1.3467  0.1501
  341MOL   H12648406   5.588   1.392   5.484  2.2834  0.5852 -0.2612
  341MOL   H12748407   5.460   1.503   5.427 -0.7462 -2.4486 -0.3763
  341MOL   C12848408   5.701   1.622   5.513  0.1010 -0.0143 -0.0335
  341MOL   C12948409   5.596   1.719   5.563  0.2362 -0.0707  0.7426
  341MOL   O13048410   5.496   1.635   5.626 -0.3282  0.7176  0.2122
  341MOL   H13148411   5.724   1.543   5.584  0.3180  0.8064  0.8119
  341MOL   H13248412   5.798   1.670   5.498 -0.4626  0.5649 -2.0819
  341MOL   H13348413   5.557   1.773   5.477 -0.6744  1.9009  2.3202
  341MOL   H13448414   5.640   1.784   5.639  1.2669 -0.1313  0.1973
  341MOL   C13548415   5.379   1.700   5.675  0.1814  0.3103  0.6822
  341MOL   C13648416   5.268   1.594   5.723  0.7367 -0.2126 -0.4320
  341MOL   O13748417   5.140   1.655   5.733  0.1817 -0.1933  0.7631
  341MOL   H13848418   5.413   1.763   5.757  0.6318 -0.5422  1.1656
  341MOL   H13948419   5.349   1.768   5.596  0.9390 -0.8703 -0.6456
  341MOL   H14048420   5.301   1.544   5.814 -1.8911 -1.3127 -0.0197
  341MOL   H14148421   5.262   1.517   5.646 -0.8848 -0.4154 -0.1217
  341MOL   H14248422   5.138   1.701   5.816  0.7238 -1.7700  1.6793
  342MOL     C148423   4.513   1.005   4.598 -0.5228 -0.5712  0.2217
  342MOL     C248424   4.437   1.092   4.693  0.9831 -0.7196  0.2007
  342MOL     O348425   4.374   1.185   4.604  0.8495 -0.5032 -0.0353
  342MOL     H448426   4.584   0.949   4.659 -2.4213 -0.7984  2.3300
  342MOL     H548427   4.579   1.063   4.535 -0.8708 -0.9969 -0.5345
  342MOL     H648428   4.507   1.134   4.766 -1.4534  1.0929  1.5669
  342MOL     H748429   4.363   1.026   4.738 -0.8962  0.7287 -0.6808
  342MOL     H848430   4.450   0.938   4.540 -1.1644  0.7188 -0.5855
  342MOL     C948431   4.315   1.288   4.677 -0.4797 -0.9618 -0.3850
  342MOL    C1048432   4.272   1.408   4.583  0.4031 -0.0184  0.4156
  342MOL    O1148433   4.373   1.492   4.535 -0.1215 -0.4384 -0.7903
  342MOL    H1248434   4.230   1.257   4.739  0.9341 -3.0534  0.5742
  342MOL    H1348435   4.386   1.325   4.750 -1.0277 -1.4460  0.4079
  342MOL    H1448436   4.203   1.463   4.648  1.8154 -0.1583  2.0506
  342MOL    H1548437   4.210   1.373   4.500 -0.4294  0.1325  0.9565
  342MOL    C1648438   4.351   1.557   4.411  0.5964  0.4048  0.3555
  342MOL    C1748439   4.440   1.682   4.398 -0.1183 -0.0917 -0.2187
  342MOL    O1848440   4.400   1.779   4.501 -0.4213 -0.5860 -0.1724
  342MOL    H1948441   4.372   1.481   4.336  1.7597  2.4838 -1.4876
  342MOL    H2048442   4.250   1.588   4.386  0.8947  0.6181 -0.6075
  342MOL    H2148443   4.440   1.731   4.300 -0.7652  1.7060  0.6737
  342MOL    H2248444   4.539   1.635   4.403 -0.9907 -1.9143  0.4240
  342MOL    C2348445   4.469   1.901   4.508 -0.7446 -0.0013  0.8845
  342MOL    C2448446   4.391   1.980   4.608 -0.6680 -0.8526  0.5923
  342MOL    O2548447   4.293   2.066   4.544  0.6941 -0.2334 -0.1905
  342MOL    H2648448   4.574   1.892   4.539 -0.0017 -1.8236 -1.9745
  342MOL    H2748449   4.481   1.943   4.408 -2.0121 -1.6986 -0.0069
  342MOL    H2848450   4.449   2.033   4.682 -2.4221  0.7419  0.8614
  342MOL    H2948451   4.330   1.912   4.668 -0.5820 -1.0131  0.4971
  342MOL    C3048452   4.338   2.201   4.529 -0.3788 -0.4757 -0.2284
  342MOL    C3148453   4.438   2.217   4.413  0.0656 -0.5861 -1.0406
  342MOL    O3248454   4.565   2.192   4.461  0.1882  0.0032  0.2303
  342MOL    H3348455   4.249   2.260   4.508 -0.1195  0.8731  2.2296
  342MOL    H3448456   4.375   2.240   4.625 -0.6090 -0.0910 -0.2934
  342MOL    H3548457   4.445   2.322   4.385 -1.3937 -0.1919  0.0043
  342MOL    H3648458   4.417   2.155   4.326 -2.3574 -3.6817  1.6046
  342MOL    C3748459   4.674   2.259   4.395 -0.1011 -0.0220  0.1633
  342MOL    C3848460   4.764   2.147   4.340 -0.3231 -0.2191 -0.1775
  342MOL    O3948461   4.701   2.104   4.222  0.4641 -0.2022 -0.1726
  342MOL    H4048462   4.642   2.323   4.313 -0.5065  1.1006  1.1678
  342MOL    H4148463   4.714   2.312   4.481 -1.3471  1.0826  0.0749
  342MOL    H4248464   4.765   2.069   4.417  0.2395  0.5702  0.6360
  342MOL    H4348465   4.865   2.188   4.332  0.3432 -1.5362  1.0748
  342MOL    C4448466   4.723   1.971   4.182  0.0549 -0.8044 -0.4757
  342MOL    C4548467   4.680   1.973   4.033  0.8475  0.1559  0.5593
  342MOL    O4648468   4.780   1.993   3.935 -0.0775 -0.1125  0.4403
  342MOL    H4748469   4.823   1.936   4.209  1.8556  2.3094 -2.6027
  342MOL    H4848470   4.648   1.915   4.237 -0.9737  2.4840  1.6340
  342MOL    H4948471   4.597   2.043   4.030  1.3803  0.7881  0.5356
  342MOL    H5048472   4.639   1.872   4.029  1.9474 -0.2292 -1.3170
  342MOL    C5148473   4.713   2.011   3.808  0.0260 -0.5090 -0.1692
  342MOL    C5248474   4.823   2.033   3.704  0.3288 -0.0106 -1.0391
  342MOL    O5348475   4.874   2.167   3.727 -0.4072 -0.5475 -0.5604
  342MOL    H5448476   4.646   1.926   3.795  0.9805 -1.5027  1.2192
  342MOL    H5548477   4.647   2.097   3.820  0.5234 -0.6378  4.4148
  342MOL    H5648478   4.790   2.021   3.601 -0.4164  2.5194 -1.1191
  342MOL    H5748479   4.902   1.960   3.726  0.5406  0.6375  0.3847
  342MOL    C5848480   4.978   2.217   3.645  0.7595  0.3029  0.3796
  342MOL    C5948481   5.030   2.340   3.708  0.1433 -0.3578  0.0329
  342MOL    O6048482   4.975   2.449   3.630 -0.5999  0.2221 -0.3018
  342MOL    H6148483   5.049   2.135   3.645 -0.3686 -0.6831 -0.8928
  342MOL    H6248484   4.937   2.232   3.545 -0.5463 -1.7600  0.5718
  342MOL    H6348485   5.139   2.342   3.705  0.2651 -2.8270  1.3464
  342MOL    H6448486   5.002   2.340   3.814  0.2975 -0.3754  0.0733
  342MOL    C6548487   4.972   2.567   3.702  0.6422 -0.4546 -0.6205
  342MOL    C6648488   5.101   2.633   3.758 -0.3085  1.2422 -0.1262
  342MOL    O6748489   5.133   2.583   3.881 -0.3794  0.2068 -0.1403
  342MOL    H6848490   4.930   2.643   3.636 -0.5366 -0.5323  0.0294
  342MOL    H6948491   4.902   2.547   3.783 -0.6222  0.6705 -1.4067
  342MOL    H7048492   5.089   2.741   3.758 -1.0908  1.1764  2.2002
  342MOL    H7148493   5.183   2.617   3.688 -2.6962  1.2096 -3.0176
  342MOL    C7248494   5.272   2.554   3.895 -0.3235  0.0257 -0.2397
  342MOL    C7348495   5.313   2.513   4.035  0.0269 -0.1918 -0.3756
  342MOL    O7448496   5.244   2.393   4.067  0.3358  0.0414 -0.4632
  342MOL    H7548497   5.283   2.480   3.815 -0.5564  2.3100 -2.4400
  342MOL    H7648498   5.319   2.648   3.869  0.4307  0.4394  2.4889
  342MOL    H7748499   5.278   2.597   4.096 -0.4044 -0.6477  0.0125
  342MOL    H7848500   5.420   2.500   4.046  0.1644  0.2730 -1.1678
  342MOL    C7948501   5.285   2.280   3.999  0.0828 -0.2389  0.6653
  342MOL    C8048502   5.206   2.151   4.049 -0.1197 -0.0348 -0.0991
  342MOL    O8148503   5.234   2.107   4.184  0.5212 -0.2835 -0.4215
  342MOL    H8248504   5.273   2.285   3.891  0.8320 -1.0905  0.5343
  342MOL    H8348505   5.391   2.260   4.013  0.1769  0.8660  1.5808
  342MOL    H8448506   5.224   2.067   3.983 -2.2133 -0.5447 -0.0706
  342MOL    H8548507   5.097   2.161   4.054  0.0948  1.9440  1.1472
  342MOL    C8648508   5.165   2.185   4.278 -1.0670  0.2821  0.4198
  342MOL    C8748509   5.214   2.120   4.408 -0.0698 -0.4044 -0.3058
  342MOL    O8848510   5.131   2.174   4.512 -0.1313 -0.0325 -0.7540
  342MOL    H8948511   5.191   2.290   4.269  1.1919 -0.4165 -1.7428
  342MOL    H9048512   5.059   2.161   4.266 -0.4416 -1.7395 -1.3784
  342MOL    H9148513   5.323   2.130   4.413 -0.0620 -0.7936  0.4356
  342MOL    H9248514   5.184   2.016   4.411  2.4210 -1.1660 -0.6482
  342MOL    C9348515   5.196   2.165   4.637 -0.3756 -0.3743  0.6835
  342MOL    C9448516   5.122   2.244   4.750  0.0709 -0.6359 -0.0657
  342MOL    O9548517   4.997   2.184   4.779 -0.0550  0.5345  0.1693
  342MOL    H9648518   5.203   2.061   4.671 -0.5128  0.1988  2.5096
  342MOL    H9748519   5.298   2.200   4.625 -0.9575  0.2647 -2.9651
  342MOL    H9848520   5.109   2.343   4.705 -0.9215 -0.7527 -0.0340
  342MOL    H9948521   5.187   2.253   4.837 -0.0523  2.0470 -0.1918
  342MOL   C10048522   4.884   2.189   4.692 -0.6310 -0.0104 -0.0723
  342MOL   C10148523   4.761   2.141   4.767 -0.5589 -0.1347  0.7228
  342MOL   O10248524   4.717   2.234   4.864  0.2436 -0.1313 -0.0476
  342MOL   H10348525   4.858   2.285   4.647 -1.4646  0.0185  0.4540
  342MOL   H10448526   4.920   2.123   4.614  0.1197 -1.7429  1.7071
  342MOL   H10548527   4.790   2.046   4.810 -1.6739 -0.8513 -0.0865
  342MOL   H10648528   4.689   2.110   4.692  1.1733  1.4997 -1.7014
  342MOL   C10748529   4.600   2.187   4.927  0.0783  1.0527 -0.5540
  342MOL   C10848530   4.526   2.280   5.011  0.1657 -0.2609 -0.0759
  342MOL   O10948531   4.460   2.375   4.926 -0.0823  0.0332 -0.3685
  342MOL   H11048532   4.528   2.156   4.851  0.1443  2.9032 -1.4126
  342MOL   H11148533   4.609   2.095   4.985  1.0030  1.5360  0.0730
  342MOL   H11248534   4.592   2.323   5.087 -0.1967  1.0847 -0.5153
  342MOL   H11348535   4.454   2.222   5.070  0.3286 -0.8078 -0.4186
  342MOL   C11448536   4.347   2.433   4.982 -0.3772  0.0153  0.4844
  342MOL   C11548537   4.288   2.529   4.880 -0.1691  0.0657  0.4635
  342MOL   O11648538   4.328   2.658   4.920 -0.0430  0.1678  0.8874
  342MOL   H11748539   4.280   2.347   4.992  0.0790 -0.2423  1.3779
  342MOL   H11848540   4.358   2.461   5.087  0.5388  1.8638 -0.0961
  342MOL   H11948541   4.179   2.528   4.880 -0.1799 -2.2656 -0.5142
  342MOL   H12048542   4.323   2.513   4.779 -0.6481 -1.6300  0.5565
  342MOL   C12148543   4.275   2.766   4.843 -0.1201 -0.4322  0.0917
  342MOL   C12248544   4.356   2.890   4.879 -0.1918  0.1140 -0.2703
  342MOL   O12348545   4.485   2.894   4.808  0.6409 -0.1345  0.3281
  342MOL   H12448546   4.287   2.745   4.737  1.3178 -0.7203  0.3028
  342MOL   H12548547   4.172   2.786   4.874  0.0247 -0.0255  0.3298
  342MOL   H12648548   4.369   2.898   4.987 -0.3783 -1.7013 -0.1020
  342MOL   H12748549   4.310   2.985   4.851  2.2195  1.1809 -0.7152
  342MOL   C12848550   4.588   2.968   4.872  0.3438  0.5375 -1.1347
  342MOL   C12948551   4.700   2.978   4.768  0.0206  0.1713  0.5164
  342MOL   O13048552   4.658   3.076   4.679  0.3857  0.5781 -0.2656
  342MOL   H13148553   4.549   3.063   4.907  3.7365  1.6214 -0.1523
  342MOL   H13248554   4.632   2.917   4.957  1.1781 -0.9013 -2.4049
  342MOL   H13348555   4.722   2.878   4.731  0.5743 -0.2956  2.0767
  342MOL   H13448556   4.790   3.012   4.820  0.7518 -1.0342  0.0629
  342MOL   C13548557   4.750   3.090   4.575 -0.3232  0.1823  0.2557
  342MOL   C13648558   4.698   3.180   4.457  0.2594 -0.0255 -0.5825
  342MOL   O13748559   4.668   3.307   4.514  0.3004  0.0945  0.3377
  342MOL   H13848560   4.842   3.127   4.619  0.6536 -1.6498 -0.1752
  342MOL   H13948561   4.760   2.987   4.539 -3.2174 -0.4761  1.1397
  342MOL   H14048562   4.599   3.139   4.442 -0.4288  0.9434  1.1447
  342MOL   H14148563   4.750   3.179   4.361 -0.0683 -0.5294 -0.7535
  342MOL   H14248564   4.630   3.280   4.596 -2.5034  0.5673 -0.7431
  343MOL     C148565   5.297   5.114   2.163 -0.4816  0.2355 -1.0170
  343MOL     C248566   5.302   5.248   2.098 -0.2745 -0.1070  0.5432
  343MOL     O348567   5.174   5.267   2.039  0.1852  0.1291  0.2261
  343MOL     H448568   5.378   5.110   2.235 -1.7104  0.3602  0.3936
  343MOL     H548569   5.293   5.023   2.102  0.2778 -0.8924  0.5834
  343MOL     H648570   5.380   5.259   2.023 -0.3150 -3.5849 -0.0824
  343MOL     H748571   5.306   5.327   2.173 -1.8041 -0.2290  0.7666
  343MOL     H848572   5.206   5.117   2.222  0.6291 -1.0238  0.8033
  343MOL     C948573   5.172   5.234   1.900 -0.7556  0.2904 -0.4427
  343MOL    C1048574   5.029   5.225   1.837  0.5717 -0.3193 -0.7980
  343MOL    O1148575   4.939   5.127   1.879 -0.1085  0.1808  0.3825
  343MOL    H1248576   5.214   5.320   1.847 -0.1988  0.0462 -0.3997
  343MOL    H1348577   5.234   5.145   1.894  0.8014  1.3311  0.0018
  343MOL    H1448578   5.023   5.212   1.729  1.1685 -0.8329 -0.7698
  343MOL    H1548579   4.979   5.320   1.859 -0.7937 -1.4372  1.1090
  343MOL    C1648580   4.982   4.991   1.852  0.1764  0.5837  0.4763
  343MOL    C1748581   4.873   4.892   1.898  0.4863 -0.1142  0.8199
  343MOL    O1848582   4.883   4.833   2.026  0.4800  0.0336 -0.5449
  343MOL    H1948583   4.991   4.980   1.744  3.1940 -2.2604  0.9474
  343MOL    H2048584   5.071   4.964   1.908  0.2230  1.9136  1.0593
  343MOL    H2148585   4.882   4.808   1.828  1.3333 -1.4537  2.5228
  343MOL    H2248586   4.773   4.934   1.891  1.0847  1.3011  0.6494
  343MOL    C2348587   4.902   4.924   2.138  0.2525  0.3417  0.1364
  343MOL    C2448588   4.973   4.840   2.245 -0.8841 -0.2639  0.3112
  343MOL    O2548589   5.116   4.836   2.219  0.5575  0.1164 -0.0719
  343MOL    H2648590   4.969   5.008   2.120  1.0421 -0.7124 -2.0342
  343MOL    H2748591   4.805   4.968   2.162  0.0075  0.3947 -0.9318
  343MOL    H2848592   4.918   4.747   2.261 -3.0887  1.2534  1.8702
  343MOL    H2948593   4.959   4.888   2.342 -0.6694  2.5476 -0.9975
  343MOL    C3048594   5.152   4.713   2.153  0.0940 -0.0547  0.4363
  343MOL    C3148595   5.294   4.725   2.101  0.3572  0.4257  0.4253
  343MOL    O3248596   5.296   4.741   1.955  0.4520 -0.3100 -0.4301
  343MOL    H3348597   5.168   4.636   2.229 -0.4080 -0.8844 -0.2867
  343MOL    H3448598   5.082   4.679   2.076  1.9542 -1.3605 -0.7091
  343MOL    H3548599   5.357   4.638   2.116  0.7397  0.8685  1.4478
  343MOL    H3648600   5.336   4.807   2.159  0.0464 -1.1990  3.0221
  343MOL    C3748601   5.422   4.775   1.904  0.3054  0.6237 -0.1406
  343MOL    C3848602   5.409   4.797   1.749  0.1186 -0.4592 -0.2570
  343MOL    O3948603   5.534   4.844   1.697 -0.0841  0.7719  0.1458
  343MOL    H4048604   5.456   4.862   1.960 -1.2106 -0.1254  2.0117
  343MOL    H4148605   5.475   4.683   1.930  2.5104  1.9122  0.0923
  343MOL    H4248606   5.340   4.878   1.724  0.7556 -0.0810 -0.8112
  343MOL    H4348607   5.383   4.705   1.698 -0.7919 -0.9778  1.1071
  343MOL    C4448608   5.570   4.820   1.562 -0.0242  0.4658  0.0777
  343MOL    C4548609   5.676   4.920   1.526 -0.2378  0.2762 -0.2157
  343MOL    O4648610   5.794   4.897   1.598  0.3238 -0.3129 -0.3674
  343MOL    H4748611   5.600   4.716   1.556  0.3615  0.6247 -0.8002
  343MOL    H4848612   5.486   4.829   1.494 -0.3117 -2.1834  0.0402
  343MOL    H4948613   5.641   5.016   1.564 -0.2143  0.4163 -0.5501
  343MOL    H5048614   5.687   4.925   1.418 -2.4490  0.8625 -0.4214
  343MOL    C5148615   5.889   5.002   1.560 -0.4654 -0.1617 -0.7487
  343MOL    C5248616   6.013   5.021   1.660 -0.1953 -0.1318  0.1013
  343MOL    O5348617   5.989   5.123   1.756  0.3518  0.3300 -0.1504
  343MOL    H5448618   5.920   4.951   1.469  1.0982 -0.1268 -0.2444
  343MOL    H5548619   5.849   5.101   1.536 -2.9066 -1.0685 -0.5948
  343MOL    H5648620   6.104   5.053   1.610 -1.1816  1.8745 -0.4673
  343MOL    H5748621   6.033   4.931   1.718 -1.1829  2.2152  4.3217
  343MOL    C5848622   5.945   5.071   1.876 -0.2436  0.2257 -0.7288
  343MOL    C5948623   5.959   5.168   1.995 -0.3862 -0.2879  0.5732
  343MOL    O6048624   6.080   5.149   2.063  0.0153 -0.8450 -0.2086
  343MOL    H6148625   5.838   5.053   1.868 -0.4941  0.6965  1.3146
  343MOL    H6248626   5.995   4.978   1.902  1.7135  1.7114  1.0450
  343MOL    H6348627   5.875   5.174   2.064 -1.0106 -1.1273 -0.0926
  343MOL    H6448628   5.960   5.264   1.944 -1.3039 -1.5172 -1.9003
  343MOL    C6548629   6.186   5.243   2.040 -0.1519 -0.0304 -0.6488
  343MOL    C6648630   6.301   5.189   2.128  0.2572  0.5929  0.4021
  343MOL    O6748631   6.276   5.238   2.261 -0.1216  0.0348  0.5735
  343MOL    H6848632   6.214   5.253   1.936 -0.4936  0.3418 -0.7082
  343MOL    H6948633   6.155   5.337   2.086  2.6299  0.8196 -0.4478
  343MOL    H7048634   6.388   5.240   2.086 -2.0340  3.1653 -1.3819
  343MOL    H7148635   6.305   5.080   2.118  0.4370  0.9449 -4.0247
  343MOL    C7248636   6.357   5.156   2.345 -0.0470 -0.6973  0.0835
  343MOL    C7348637   6.379   5.227   2.480 -0.0278  0.6421 -0.4316
  343MOL    O7448638   6.495   5.307   2.465 -0.1785  0.0646  0.0029
  343MOL    H7548639   6.307   5.060   2.361  0.0752 -0.6607  0.6920
  343MOL    H7648640   6.454   5.149   2.297  1.3731 -1.1091  2.8818
  343MOL    H7748641   6.408   5.156   2.558  0.8269  0.2074 -1.1280
  343MOL    H7848642   6.294   5.280   2.523 -1.0721 -0.0046 -1.6786
  343MOL    C7948643   6.476   5.433   2.398  0.7021  0.3082 -0.7512
  343MOL    C8048644   6.609   5.513   2.391 -0.1801  0.9552 -0.0740
  343MOL    O8148645   6.664   5.552   2.519  0.2082 -0.1851  0.0225
  343MOL    H8248646   6.443   5.414   2.296  2.0782 -1.1446 -0.9404
  343MOL    H8348647   6.403   5.493   2.453  3.1345  2.0144  0.6717
  343MOL    H8448648   6.584   5.613   2.357  1.8637  1.0665 -1.3217
  343MOL    H8548649   6.690   5.467   2.333 -1.6256  1.5487 -2.6593
  343MOL    C8648650   6.749   5.459   2.578  0.6430 -0.8664  0.0260
  343MOL    C8748651   6.809   5.520   2.711 -0.5805 -0.2701  0.7573
  343MOL    O8848652   6.866   5.652   2.692 -0.4028 -0.0477 -0.7185
  343MOL    H8948653   6.685   5.374   2.604 -0.1922  0.3492  2.1098
  343MOL    H9048654   6.831   5.426   2.515  1.6200 -4.3376  3.0284
  343MOL    H9148655   6.879   5.449   2.755 -0.8253 -0.2735  1.1380
  343MOL    H9248656   6.729   5.524   2.786  0.3951 -2.9207  1.9989
  343MOL    C9348657   7.006   5.640   2.671  0.5465  0.4866 -0.2325
  343MOL    C9448658   7.072   5.778   2.647 -0.7162 -0.3088  0.4579
  343MOL    O9548659   7.103   5.838   2.770 -0.3426  0.2923 -0.0568
  343MOL    H9648660   7.057   5.590   2.753  0.7599  0.8481 -0.1450
  343MOL    H9748661   7.019   5.585   2.577  1.7363  1.7194 -0.8099
  343MOL    H9848662   7.020   5.841   2.575  2.3839 -0.5408 -2.0831
  343MOL    H9948663   7.167   5.754   2.598 -0.8093 -1.4795  0.8335
  343MOL   C10048664   6.995   5.884   2.857  0.2477  0.1909 -1.0110
  343MOL   C10148665   7.056   5.959   2.980 -0.3172  0.2183 -0.0596
  343MOL   O10248666   7.097   5.875   3.091  0.0681 -0.8985 -0.2079
  343MOL   H10348667   6.932   5.942   2.790  2.3834  1.9322 -1.5706
  343MOL   H10448668   6.927   5.806   2.891  0.9363  0.2276  0.5207
  343MOL   H10548669   6.990   6.033   3.026  1.3671  1.6515  0.1233
  343MOL   H10648670   7.142   6.016   2.944 -0.7540  0.3333 -0.9455
  343MOL   C10748671   7.139   5.969   3.193  0.4597  0.0025  0.4859
  343MOL   C10848672   7.168   5.895   3.320 -0.7444 -0.0390  0.2494
  343MOL   O10948673   7.283   5.815   3.302 -0.0908 -0.4833  0.9386
  343MOL   H11048674   7.221   6.035   3.163  1.9435 -0.8294  2.5753
  343MOL   H11148675   7.055   6.034   3.213  0.1098  0.3923 -2.0304
  343MOL   H11248676   7.090   5.841   3.374 -0.6222 -0.3113  0.1516
  343MOL   H11348677   7.198   5.965   3.399 -1.3435  1.1669 -0.5821
  343MOL   C11448678   7.298   5.723   3.419  0.8548  0.4359 -0.0731
  343MOL   C11548679   7.375   5.794   3.537  0.1285 -0.3183 -0.0700
  343MOL   O11648680   7.297   5.875   3.624 -0.4704  0.6050 -0.2485
  343MOL   H11748681   7.202   5.684   3.456  0.7927 -0.6190 -1.3362
  343MOL   H11848682   7.350   5.633   3.388  1.9340 -0.1162  3.1103
  343MOL   H11948683   7.457   5.855   3.501  0.6508 -1.3135 -0.6003
  343MOL   H12048684   7.424   5.720   3.601 -1.1653 -0.3611  0.8813
  343MOL   C12148685   7.208   5.796   3.717  0.4216 -0.3700  0.7683
  343MOL   C12248686   7.277   5.704   3.818  0.5844 -0.8293  0.1384
  343MOL   O12348687   7.272   5.573   3.765 -1.2039 -0.3657 -0.2798
  343MOL   H12448688   7.147   5.870   3.767  0.3554 -0.2776  0.5526
  343MOL   H12548689   7.143   5.730   3.661 -1.1566 -0.2185  2.3909
  343MOL   H12648690   7.202   5.698   3.897 -0.8636  0.8465 -1.0554
  343MOL   H12748691   7.369   5.736   3.866  1.3520  1.7283 -2.8246
  343MOL   C12848692   7.315   5.474   3.864  0.0146  0.1140  0.0560
  343MOL   C12948693   7.317   5.332   3.812 -0.4646 -0.0667  0.2263
  343MOL   O13048694   7.434   5.318   3.727  0.4273  0.5361  0.3753
  343MOL   H13148695   7.411   5.503   3.906  1.4047 -2.1736 -1.3921
  343MOL   H13248696   7.241   5.476   3.943  0.7330  1.2097  0.7138
  343MOL   H13348697   7.224   5.299   3.765 -0.2870 -0.5350  0.1987
  343MOL   H13448698   7.333   5.262   3.894  4.8556 -0.1183 -0.6897
  343MOL   C13548699   7.407   5.280   3.598  0.1104 -1.2202 -0.4691
  343MOL   C13648700   7.302   5.360   3.526  0.5891  0.3179  0.1672
  343MOL   O13748701   7.320   5.346   3.390 -0.7643  0.5696  0.1312
  343MOL   H13848702   7.498   5.284   3.538 -0.7543  0.9840 -1.7027
  343MOL   H13948703   7.375   5.177   3.608 -1.9618 -0.4128  1.5811
  343MOL   H14048704   7.313   5.467   3.544 -1.7808  0.8009 -1.0711
  343MOL   H14148705   7.199   5.339   3.554  0.9579 -0.9885  0.5434
  343MOL   H14248706   7.363   5.263   3.375  1.9935  1.9737 -0.1581
  344MOL     C148707   5.063   6.507   0.910  0.5767  0.6580 -0.3285
  344MOL     C248708   5.202   6.528   0.848  0.6570  0.5198 -0.6273
  344MOL     O348709   5.291   6.463   0.937 -0.3271  0.2376 -0.0924
  344MOL     H448710   5.049   6.417   0.969  1.7154 -1.6658 -3.4598
  344MOL     H548711   4.979   6.509   0.840 -0.4955 -1.2774  0.8587
  344MOL     H648712   5.216   6.635   0.827  0.4315  0.5986 -0.3676
  344MOL     H748713   5.216   6.471   0.756 -0.5742 -1.0698  0.1553
  344MOL     H848714   5.043   6.579   0.990 -0.4714 -0.3294  0.3184
  344MOL     C948715   5.420   6.469   0.879 -0.7012 -0.1109 -0.4129
  344MOL    C1048716   5.473   6.325   0.852  0.3170 -0.2010 -0.2976
  344MOL    O1148717   5.470   6.298   0.715  0.5905 -0.3335 -0.3769
  344MOL    H1248718   5.432   6.525   0.787  2.3303 -0.0545 -0.0240
  344MOL    H1348719   5.480   6.515   0.957 -1.4787 -1.4622  1.0219
  344MOL    H1448720   5.424   6.255   0.919 -1.0707  0.8226 -0.2253
  344MOL    H1548721   5.578   6.317   0.880  0.4962  1.4445 -0.3916
  344MOL    C1648722   5.540   6.179   0.694  0.2875 -0.4399  0.6743
  344MOL    C1748723   5.508   6.110   0.558 -0.2273  0.7608  0.3603
  344MOL    O1848724   5.368   6.084   0.552 -0.0188 -0.1021 -0.0935
  344MOL    H1948725   5.646   6.204   0.687 -0.0919  0.8445 -0.8587
  344MOL    H2048726   5.534   6.115   0.782  0.1195  0.0895  1.0541
  344MOL    H2148727   5.574   6.025   0.542 -1.3664 -0.4739  1.9944
  344MOL    H2248728   5.523   6.186   0.482 -2.7817  0.0633 -0.8789
  344MOL    C2348729   5.332   6.003   0.446 -0.4951 -0.3334 -0.0721
  344MOL    C2448730   5.326   6.081   0.315  0.1376  0.5427 -0.3993
  344MOL    O2548731   5.451   6.084   0.241 -0.6894 -0.3318 -0.4933
  344MOL    H2648732   5.396   5.915   0.444 -0.7779 -0.5217 -4.0052
  344MOL    H2748733   5.236   5.954   0.462 -0.7592  0.0738 -0.4346
  344MOL    H2848734   5.285   6.181   0.328 -0.4869  0.0492  1.7387
  344MOL    H2948735   5.249   6.024   0.263 -0.0142  0.0372  0.3787
  344MOL    C3048736   5.454   6.160   0.116 -0.9219 -0.8767 -0.5564
  344MOL    C3148737   5.581   6.128   0.036  0.4225  1.1906 -0.4093
  344MOL    O3248738   5.582   6.237   7.726  0.5261  0.2020  0.4490
  344MOL    H3348739   5.373   6.120   0.055 -0.5254 -0.5488 -1.3059
  344MOL    H3448740   5.449   6.265   0.147  2.2941 -0.8168 -0.0233
  344MOL    H3548741   5.573   6.036   7.749  2.6959  0.2461  0.6823
  344MOL    H3648742   5.670   6.122   0.099 -0.9499 -1.4495  1.3786
  344MOL    C3748743   5.691   6.242   7.640  0.4536  0.3063  0.3865
  344MOL    C3848744   5.700   6.376   7.569  0.6411 -0.3931  0.0799
  344MOL    O3948745   5.706   6.469   7.674  0.0538 -0.6394 -0.6780
  344MOL    H4048746   5.781   6.232   7.701  1.1975  1.3559 -0.5234
  344MOL    H4148747   5.685   6.154   7.577 -0.5104  0.2905  0.4931
  344MOL    H4248748   5.614   6.398   7.505  0.7075 -0.0015  0.1249
  344MOL    H4348749   5.793   6.386   7.512  0.5962 -0.5786 -0.0296
  344MOL    C4448750   5.730   6.594   7.623  0.2133  0.3315  0.4252
  344MOL    C4548751   5.767   6.692   7.730 -0.0595  0.6832 -0.3151
  344MOL    O4648752   5.653   6.743   0.033 -0.1148 -0.1966  0.4510
  344MOL    H4748753   5.815   6.590   7.555 -1.2015 -0.4590 -1.3341
  344MOL    H4848754   5.655   6.635   7.554  0.0669  0.4496  0.6540
  344MOL    H4948755   5.826   6.774   7.690  2.2519 -0.8952 -0.2213
  344MOL    H5048756   5.833   6.635   0.025 -0.8155  2.5132  2.0858
  344MOL    C5148757   5.692   6.852   0.114  0.0813 -0.4843 -0.1549
  344MOL    C5248758   5.576   6.895   0.211 -0.2118  0.1709 -0.6224
  344MOL    O5348759   5.589   7.019   0.277 -0.5292 -0.5370  0.3654
  344MOL    H5448760   5.778   6.820   0.173  0.7842 -0.0208 -0.9124
  344MOL    H5548761   5.720   6.941   0.058 -0.6971 -1.2435 -1.7818
  344MOL    H5648762   5.563   6.825   0.293  0.5521 -1.7174 -2.0631
  344MOL    H5748763   5.483   6.892   0.154 -0.8607  3.5368  0.1396
  344MOL    C5848764   5.554   7.126   0.192  0.4696 -0.3972  0.0194
  344MOL    C5948765   5.568   7.251   0.284 -0.8422 -0.4920  0.6585
  344MOL    O6048766   5.697   7.300   0.283 -0.0267  0.7968  0.4221
  344MOL    H6148767   5.609   7.131   0.098  0.6177 -1.7097  0.0271
  344MOL    H6248768   5.451   7.108   0.162 -0.9865  2.4771  2.9849
  344MOL    H6348769   5.538   7.223   0.385 -0.5648 -2.0622  0.3277
  344MOL    H6448770   5.499   7.324   0.243  0.7219  0.9661  0.5777
  344MOL    C6548771   5.721   7.398   0.380 -0.0323 -0.5156 -0.4526
  344MOL    C6648772   5.831   7.486   0.330 -0.1240 -0.3756  0.1756
  344MOL    O6748773   5.771   7.562   0.222 -0.0076  0.6996 -0.2297
  344MOL    H6848774   5.639   7.466   0.403  1.4589  0.2991  2.7289
  344MOL    H6948775   5.754   7.340   0.467  1.6695  1.6659  0.4090
  344MOL    H7048776   5.921   7.443   0.285 -0.5540 -0.7103 -0.3695
  344MOL    H7148777   5.868   7.554   0.407  0.1977 -1.5910  1.1023
  344MOL    C7248778   5.871   7.647   0.163  0.1309 -0.5184  0.0718
  344MOL    C7348779   5.805   7.734   0.048  0.0522 -0.0725  0.0732
  344MOL    O7448780   5.824   7.662   7.702  0.0339  0.2678  0.0937
  344MOL    H7548781   5.907   7.709   0.245 -0.8406 -1.7470  1.4561
  344MOL    H7648782   5.951   7.587   0.119  2.1034  1.1689  1.2424
  344MOL    H7748783   5.845   0.065   0.043  0.4425 -0.2719 -1.1315
  344MOL    H7848784   5.698   7.744   0.065  0.1595 -0.2105  0.8369
  344MOL    C7948785   5.838   7.742   7.588  0.1082  0.0810 -0.2647
  344MOL    C8048786   5.829   7.665   7.456 -0.4911  0.5517 -0.2931
  344MOL    O8148787   5.687   7.664   7.414 -0.2552 -0.3919 -0.1121
  344MOL    H8248788   5.783   0.065   7.592  2.0610  1.1988  0.8939
  344MOL    H8348789   5.943   7.765   7.603 -0.4565  1.2208  2.2329
  344MOL    H8448790   5.878   7.568   7.465 -1.4595  0.1797  1.0869
  344MOL    H8548791   5.888   7.719   7.382  2.9333  1.5475  3.0119
  344MOL    C8648792   5.652   7.614   7.284 -0.1038 -0.1122  0.3044
  344MOL    C8748793   5.504   7.650   7.252  0.4381 -0.5265 -0.4825
  344MOL    O8848794   5.418   7.559   7.317 -0.2893  0.2574  0.4014
  344MOL    H8948795   5.718   7.649   7.204  0.6683  0.1295  1.0409
  344MOL    H9048796   5.658   7.505   7.288  2.1749  0.0494  2.0597
  344MOL    H9148797   5.492   7.653   7.144 -0.4845  4.1924 -0.3430
  344MOL    H9248798   5.482   7.752   7.284  0.0937 -0.9984  0.8341
  344MOL    C9348799   5.274   7.572   7.286 -0.3589 -0.2004  0.3819
  344MOL    C9448800   5.198   7.487   7.386 -0.3525 -0.7763 -0.2304
  344MOL    O9548801   5.194   7.344   7.362  0.0620 -0.3914 -0.1474
  344MOL    H9648802   5.239   7.675   7.300 -2.4842 -1.0767  1.8602
  344MOL    H9748803   5.259   7.547   7.181 -1.4325 -0.3557  0.5704
  344MOL    H9848804   5.094   7.517   7.378  0.1399  0.4578 -2.4584
  344MOL    H9948805   5.241   7.510   7.483  0.5111  0.8307 -0.9708
  344MOL   C10048806   5.118   7.283   7.465 -0.0497 -0.0217 -0.0392
  344MOL   C10148807   5.102   7.140   7.404 -0.1071  0.6198  0.4262
  344MOL   O10248808   4.975   7.129   7.331  0.0077  0.0418 -0.2930
  344MOL   H10348809   5.177   7.287   7.557 -0.2600  1.3185  0.0372
  344MOL   H10448810   5.019   7.326   7.481  0.0524 -0.1969  1.1490
  344MOL   H10548811   5.117   7.056   7.472  0.3108 -0.3279 -0.8257
  344MOL   H10648812   5.180   7.124   7.330  0.8817  1.0060  1.3724
  344MOL   C10748813   4.979   7.149   7.190 -0.7094  0.6500 -0.6262
  344MOL   C10848814   5.027   7.030   7.112 -0.4178  0.1114 -0.5220
  344MOL   O10948815   5.166   7.010   7.123  0.3734  0.8957 -0.0494
  344MOL   H11048816   4.879   7.174   7.155 -0.7323  2.9315  0.9417
  344MOL   H11148817   5.028   7.245   7.174  0.7995  0.7172  3.8134
  344MOL   H11248818   5.015   7.048   7.006  1.8865  2.2047 -0.4734
  344MOL   H11348819   4.965   6.943   7.136 -0.0459  0.1228  0.5052
  344MOL   C11448820   5.206   6.873   7.126  0.1855  1.0926 -0.2399
  344MOL   C11548821   5.200   6.809   6.987 -0.1048  0.3321  0.4754
  344MOL   O11648822   5.329   6.782   6.933 -0.2391  0.6228  0.1726
  344MOL   H11748823   5.306   6.875   7.170  0.1035  5.2256 -0.0248
  344MOL   H11848824   5.152   6.806   7.193 -1.2316 -0.2508 -2.6978
  344MOL   H11948825   5.141   6.864   6.913 -0.0456 -1.5710 -1.0245
  344MOL   H12048826   5.157   6.709   6.999  1.6133 -0.5941 -0.8643
  344MOL   C12148827   5.380   6.880   6.838 -0.0957 -0.1924  0.8113
  344MOL   C12248828   5.505   6.816   6.772 -0.2727 -0.0739 -0.2222
  344MOL   O12348829   5.526   6.896   6.655 -0.5072 -0.1271  0.3856
  344MOL   H12448830   5.304   6.904   6.764  0.9850  1.9418  0.3652
  344MOL   H12548831   5.404   6.962   6.906 -2.2903 -2.1767  4.1661
  344MOL   H12648832   5.496   6.712   6.741 -0.2151  0.2421 -1.3210
  344MOL   H12748833   5.595   6.834   6.832 -0.3250  0.5385 -0.3267
  344MOL   C12848834   5.625   6.998   6.672 -0.4103 -0.1624  0.8105
  344MOL   C12948835   5.770   6.942   6.681 -0.4090  0.1258  0.4004
  344MOL   O13048836   5.815   6.932   6.815 -0.2657 -0.4024  0.3486
  344MOL   H13148837   5.617   7.052   6.577 -0.2531  0.4968  1.1658
  344MOL   H13248838   5.607   7.064   6.756 -0.7893  0.0215  0.5846
  344MOL   H13348839   5.842   7.012   6.638 -0.4170  0.3425  0.7338
  344MOL   H13448840   5.775   6.839   6.646 -0.6015 -0.4442  2.0332
  344MOL   C13548841   5.939   6.874   6.818  0.4561  0.1461 -0.0793
  344MOL   C13648842   5.985   6.829   6.955 -0.1045 -0.0653  0.2062
  344MOL   O13748843   6.020   6.942   7.031  0.1172 -0.3294  0.2172
  344MOL   H13848844   5.940   6.782   6.758 -0.9226  0.3279 -0.3916
  344MOL   H13948845   6.013   6.939   6.771  1.3085 -0.4306  0.4297
  344MOL   H14048846   6.069   6.760   6.943 -1.4791 -1.8089  0.4380
  344MOL   H14148847   5.905   6.772   7.003 -0.1521 -0.6368 -0.5465
  344MOL   H14248848   5.936   6.983   7.047  0.1019  0.8062 -2.4930
  345MOL     C148849   1.254   0.913   6.614 -1.2038  0.2506 -0.3763
  345MOL     C248850   1.198   0.836   6.739 -0.0244 -0.4246  0.0979
  345MOL     O348851   1.307   0.778   6.811 -0.4292 -0.2373 -0.5554
  345MOL     H448852   1.290   0.839   6.542  2.8195  0.8624  0.8554
  345MOL     H548853   1.340   0.978   6.630 -1.3411  0.4308 -0.3674
  345MOL     H648854   1.125   0.757   6.721 -0.6754 -0.3038  2.1444
  345MOL     H748855   1.155   0.912   6.804 -0.4922 -0.7591  0.1792
  345MOL     H848856   1.166   0.961   6.572 -2.2367  0.3649  1.8780
  345MOL     C948857   1.267   0.722   6.937  0.2349  0.1915  0.0756
  345MOL    C1048858   1.387   0.669   7.011  0.4247 -0.0534  0.1369
  345MOL    O1148859   1.412   0.535   6.959  0.1945  0.1065 -0.6692
  345MOL    H1248860   1.216   0.795   7.000 -1.2002 -0.0454 -0.7967
  345MOL    H1348861   1.193   0.644   6.918  3.1898 -2.7059 -0.0779
  345MOL    H1448862   1.371   0.673   7.118 -0.0932  1.3958  0.0087
  345MOL    H1548863   1.476   0.726   6.986 -0.8575  1.2413 -1.5763
  345MOL    C1648864   1.538   0.478   6.979  0.4617 -1.1499  0.1000
  345MOL    C1748865   1.581   0.460   7.124  0.2230  0.1407  0.2996
  345MOL    O1848866   1.628   0.585   7.173  0.3443  0.2709 -0.0376
  345MOL    H1948867   1.559   0.380   6.934  0.6905 -1.8694  1.7491
  345MOL    H2048868   1.618   0.541   6.941 -2.2871  2.6685  0.3976
  345MOL    H2148869   1.654   0.380   7.124  0.3987  0.2598 -1.9568
  345MOL    H2248870   1.490   0.422   7.172 -0.6089  0.6495 -0.8386
  345MOL    C2348871   1.655   0.579   7.312 -0.2138 -0.3100  0.0991
  345MOL    C2448872   1.698   0.719   7.354  0.5432  0.1158 -0.2690
  345MOL    O2548873   1.816   0.756   7.295 -0.0609 -0.0055 -0.4412
  345MOL    H2648874   1.563   0.547   7.361 -0.4352  0.2250  0.0353
  345MOL    H2748875   1.733   0.509   7.341 -0.7370 -1.7882 -1.9092
  345MOL    H2848876   1.688   0.710   7.463 -1.7454  0.6603 -0.4207
  345MOL    H2948877   1.626   0.792   7.318 -0.5389 -0.5060  0.6217
  345MOL    C3048878   1.877   0.878   7.347  0.2219 -0.4378 -0.3091
  345MOL    C3148879   2.006   0.829   7.393 -0.2060 -0.4644 -0.5403
  345MOL    O3248880   2.079   0.779   7.289  0.4026 -0.7401 -0.5774
  345MOL    H3348881   1.879   0.958   7.273 -0.0530 -1.1404 -1.0918
  345MOL    H3448882   1.810   0.912   7.425 -0.9456 -1.6350 -0.7512
  345MOL    H3548883   1.987   0.750   7.466 -3.9767  0.3538 -0.5371
  345MOL    H3648884   2.068   0.906   7.438 -0.3668 -1.8249  2.1491
  345MOL    C3748885   2.211   0.738   7.330  0.8287 -0.3926  0.2084
  345MOL    C3848886   2.295   0.664   7.221  0.3682 -0.0878 -0.1334
  345MOL    O3948887   2.328   0.763   7.127 -0.2364 -0.0328  0.3202
  345MOL    H4048888   2.263   0.828   7.362  3.4269 -2.5106  2.2063
  345MOL    H4148889   2.209   0.677   7.420 -1.4970 -0.5209  0.0946
  345MOL    H4248890   2.255   0.568   7.188 -0.0161  0.0428 -0.0426
  345MOL    H4348891   2.392   0.634   7.262  0.9917  2.0368 -0.0092
  345MOL    C4448892   2.393   0.712   7.015  0.5098  0.9246  0.4786
  345MOL    C4548893   2.415   0.833   6.914  0.0027  0.1522 -0.3508
  345MOL    O4648894   2.543   0.899   6.933  0.2341  0.3117 -0.2201
  345MOL    H4748895   2.491   0.691   7.058 -0.1312 -0.5702  1.2651
  345MOL    H4848896   2.339   0.626   6.975  2.6298 -0.4055  0.4120
  345MOL    H4948897   2.333   0.905   6.911  0.1953  0.3374 -1.1689
  345MOL    H5048898   2.405   0.798   6.812 -1.9362  0.6247 -0.3494
  345MOL    C5148899   2.563   0.980   7.047  0.1645  0.3300  0.0596
  345MOL    C5248900   2.695   1.046   7.051  0.1702 -0.3095 -0.2432
  345MOL    O5348901   2.679   1.180   7.109 -0.0553 -0.2999 -0.4236
  345MOL    H5448902   2.489   1.059   7.037 -1.4139 -1.2475 -0.9088
  345MOL    H5548903   2.548   0.934   7.145  0.5910  0.4155  0.1657
  345MOL    H5648904   2.734   1.059   6.950  0.4300 -2.3012 -0.4181
  345MOL    H5748905   2.773   0.986   7.098  1.7465  1.1588 -0.9270
  345MOL    C5848906   2.797   1.254   7.124 -0.4038 -0.8591 -0.4450
  345MOL    C5948907   2.885   1.222   7.255  0.3770 -0.5850 -0.3546
  345MOL    O6048908   2.968   1.112   7.229  0.0617 -0.6897 -0.4766
  345MOL    H6148909   2.865   1.246   7.039  0.4399 -0.9628  0.2378
  345MOL    H6248910   2.771   1.360   7.123 -1.6157 -1.1493 -2.1339
  345MOL    H6348911   2.824   1.209   7.344  0.8803  0.7129  0.1893
  345MOL    H6448912   2.948   1.308   7.275  1.0996 -0.8709 -1.3272
  345MOL    C6548913   3.056   1.088   7.330  0.3206  0.2159 -0.1597
  345MOL    C6648914   3.155   0.985   7.275 -0.7736 -0.3518  0.0461
  345MOL    O6748915   3.273   1.045   7.222 -0.2287  0.2015 -0.0384
  345MOL    H6848916   3.113   1.172   7.370 -1.5010  1.8470 -0.9451
  345MOL    H6948917   3.012   1.044   7.420  2.6334  0.1885  1.0103
  345MOL    H7048918   3.105   0.928   7.197 -0.9235  0.1667 -0.2408
  345MOL    H7148919   3.193   0.915   7.350 -1.2813  0.0113  0.6498
  345MOL    C7248920   3.360   0.943   7.176 -0.4448  0.1505 -0.0957
  345MOL    C7348921   3.502   0.988   7.122 -0.1488 -0.4548  0.5219
  345MOL    O7448922   3.478   1.039   6.993 -0.6733  0.3404  0.5433
  345MOL    H7548923   3.388   0.870   7.252 -1.6688 -0.2790 -0.0523
  345MOL    H7648924   3.323   0.893   7.087  1.2517 -0.3000 -0.5707
  345MOL    H7748925   3.572   0.905   7.115 -1.5075 -1.8084  2.4342
  345MOL    H7848926   3.548   1.060   7.191  0.8317 -1.1608  0.6160
  345MOL    C7948927   3.597   1.089   6.930 -0.4239 -0.1411  0.2787
  345MOL    C8048928   3.575   1.126   6.786 -0.3389 -0.0858 -0.2562
  345MOL    O8148929   3.562   1.004   6.708  0.4937 -0.2600 -0.1404
  345MOL    H8248930   3.620   1.177   6.991 -0.2537  0.8968 -1.2317
  345MOL    H8348931   3.680   1.018   6.934  0.4684  0.8010 -0.9118
  345MOL    H8448932   3.651   1.189   6.739 -0.0875  2.3458  3.2994
  345MOL    H8548933   3.489   1.193   6.781 -0.1699  0.0482 -1.9698
  345MOL    C8648934   3.431   0.976   6.683 -0.0462 -0.8044  0.4965
  345MOL    C8748935   3.437   0.874   6.572  0.2491 -0.4042 -0.1569
  345MOL    O8848936   3.453   0.741   6.619 -0.1292  0.1535 -0.3550
  345MOL    H8948937   3.365   0.954   6.767 -0.0592  0.5113  0.8339
  345MOL    H9048938   3.388   1.065   6.636 -0.9706 -1.3548  0.2848
  345MOL    H9148939   3.513   0.905   6.500 -1.3760  2.4074 -0.7450
  345MOL    H9248940   3.332   0.885   6.545  0.7300  0.7830 -1.5519
  345MOL    C9348941   3.447   0.652   6.510  0.6032 -0.8402 -0.1700
  345MOL    C9448942   3.589   0.629   6.457  0.2778 -1.3040 -0.2986
  345MOL    O9548943   3.580   0.545   6.341  0.2806 -0.6677 -0.0633
  345MOL    H9648944   3.399   0.558   6.539 -1.3855  0.5719  1.2006
  345MOL    H9748945   3.386   0.698   6.433 -0.6157  0.8609  1.7790
  345MOL    H9848946   3.648   0.591   6.540  0.9932  2.5023  1.0134
  345MOL    H9948947   3.625   0.727   6.426 -0.1300 -0.3395  2.1841
  345MOL   C10048948   3.701   0.518   6.264 -0.1962  0.6163 -0.5123
  345MOL   C10148949   3.805   0.442   6.341  0.7619  0.3358  0.4827
  345MOL   O10248950   3.884   0.526   6.417  0.2813 -0.8345  0.4886
  345MOL   H10348951   3.671   0.460   6.177  1.1677  1.5677 -1.6228
  345MOL   H10448952   3.739   0.615   6.234 -1.4517  1.3775  0.3199
  345MOL   H10548953   3.868   0.377   6.281 -0.4486 -2.2476  1.9127
  345MOL   H10648954   3.758   0.384   6.421 -0.7508 -0.3073 -0.8566
  345MOL   C10748955   3.991   0.462   6.480  0.6868  0.5169 -0.4140
  345MOL   C10848956   3.938   0.386   6.603  0.1763 -0.0101  0.4329
  345MOL   O10948957   3.898   0.258   6.562  0.8352  0.1623  0.3821
  345MOL   H11048958   4.054   0.412   6.406  1.3400 -1.2612  1.2953
  345MOL   H11148959   4.053   0.539   6.527 -0.2666  0.3056  1.2372
  345MOL   H11248960   3.847   0.424   6.650 -0.0440 -0.5517  0.4499
  345MOL   H11348961   4.017   0.377   6.678 -0.9388  0.8857  1.7375
  345MOL   C11448962   3.863   0.163   6.663  0.0671 -0.1319  1.5538
  345MOL   C11548963   3.771   0.052   6.600  0.1783 -0.2254  0.5125
  345MOL   O11648964   3.849   7.739   6.520 -0.4901 -0.4950  0.0792
  345MOL   H11748965   3.953   0.130   6.716  1.3726 -0.8555 -1.0121
  345MOL   H11848966   3.791   0.216   6.725 -1.9621  1.6321 -2.1804
  345MOL   H11948967   3.695   0.099   6.538  0.4878  2.9488  2.4259
  345MOL   H12048968   3.720   7.750   6.663  2.0695 -2.1536 -0.1348
  345MOL   C12148969   3.894   0.013   6.400 -0.5563 -0.8861 -0.6248
  345MOL   C12248970   3.902   7.663   6.305  0.0801 -0.2804  0.3605
  345MOL   O12348971   3.769   7.609   6.287  0.0005  0.1948 -0.1677
  345MOL   H12448972   3.826   0.083   6.351  0.8727 -0.5364 -2.1682
  345MOL   H12548973   3.995   0.053   6.408 -1.5287  1.2160  2.2077
  345MOL   H12648974   3.964   7.594   6.363 -0.1403  0.1676  1.1414
  345MOL   H12748975   3.955   7.668   6.211 -0.0902 -0.7973  0.2385
  345MOL   C12848976   3.769   7.531   6.169  0.2788  0.2037  0.6859
  345MOL   C12948977   3.633   7.470   6.140 -0.4180 -0.0532 -0.4177
  345MOL   O13048978   3.599   7.367   6.234  0.2539  0.8165 -0.0795
  345MOL   H13148979   3.783   7.591   6.079  1.5284 -3.3537 -1.5910
  345MOL   H13248980   3.846   7.454   6.173  3.2178  3.0007 -0.6233
  345MOL   H13348981   3.647   7.421   6.043 -0.9299 -0.8142 -0.1158
  345MOL   H13448982   3.553   7.543   6.135  1.0102  1.7274  1.8721
  345MOL   C13548983   3.464   7.343   6.213  0.2869  0.1776 -0.3641
  345MOL   C13648984   3.424   7.228   6.314 -0.0028 -0.5330  0.2005
  345MOL   O13748985   3.503   7.111   6.271  0.0230  0.0949  0.4550
  345MOL   H13848986   3.410   7.437   6.224  0.6182  0.1730  1.3479
  345MOL   H13948987   3.452   7.310   6.110 -0.8509 -3.2932  0.8185
  345MOL   H14048988   3.322   7.190   6.309 -0.9505  2.0050 -0.5393
  345MOL   H14148989   3.452   7.255   6.416  0.8255  0.7767 -0.3473
  345MOL   H14248990   3.589   7.144   6.252  0.4606 -0.5184  1.3447
  346MOL     C148991   2.349   3.030   5.543  0.0598  0.0281  0.0021
  346MOL     C248992   2.363   2.877   5.547  0.4784 -0.5586 -0.7262
  346MOL     O348993   2.458   2.861   5.436  0.1658  0.2111 -0.2343
  346MOL     H448994   2.440   3.086   5.563 -0.1467 -0.1527  1.5050
  346MOL     H548995   2.269   3.056   5.612 -0.7285 -0.5471 -0.6881
  346MOL     H648996   2.271   2.823   5.528 -0.9962  0.9395  1.9012
  346MOL     H748997   2.401   2.840   5.642 -0.9848 -0.2522 -0.0109
  346MOL     H848998   2.300   3.070   5.455 -0.6563  1.9297  1.2400
  346MOL     C948999   2.444   2.738   5.377  0.3156 -0.0397 -0.4450
  346MOL    C1049000   2.549   2.736   5.273 -0.1763  0.2256 -0.0692
  346MOL    O1149001   2.676   2.696   5.314 -0.6017 -0.1460 -0.5173
  346MOL    H1249002   2.461   2.659   5.451 -2.9783 -0.3607  0.0407
  346MOL    H1349003   2.344   2.723   5.336  0.0961 -0.3738  0.2000
  346MOL    H1449004   2.551   2.834   5.225  0.3525  0.1505 -0.1980
  346MOL    H1549005   2.517   2.665   5.197  1.8393  0.3552 -1.0765
  346MOL    C1649006   2.772   2.693   5.205  0.4017 -0.4860  0.2021
  346MOL    C1749007   2.920   2.676   5.231  0.2950 -0.5850  0.2041
  346MOL    O1849008   2.985   2.797   5.268  0.5391 -0.8624 -0.4599
  346MOL    H1949009   2.748   2.611   5.138  0.2731 -0.7407  0.5542
  346MOL    H2049010   2.744   2.769   5.133 -2.4471  0.3274  2.0819
  346MOL    H2149011   2.964   2.630   5.143 -0.1796  0.0923 -0.3937
  346MOL    H2249012   2.927   2.593   5.301 -1.5707 -3.2250 -2.6193
  346MOL    C2349013   3.115   2.789   5.300 -0.3771  0.1879 -0.1402
  346MOL    C2449014   3.158   2.930   5.332  0.8591 -0.1090  0.6164
  346MOL    O2549015   3.115   2.974   5.460  0.5171 -0.2819  0.5703
  346MOL    H2649016   3.119   2.727   5.390  0.4613 -3.7485 -2.7961
  346MOL    H2749017   3.180   2.733   5.233 -0.8345  0.2177 -0.6113
  346MOL    H2849018   3.123   2.996   5.252 -0.6625  2.3244  3.2129
  346MOL    H2949019   3.267   2.936   5.327  1.1809 -3.3290  2.5443
  346MOL    C3049020   3.192   2.924   5.568 -0.0548  0.5449  0.5001
  346MOL    C3149021   3.130   2.973   5.703  0.0147  0.5938 -0.1100
  346MOL    O3249022   3.185   3.085   5.766  0.0394  0.7214 -0.2436
  346MOL    H3349023   3.177   2.816   5.563  1.3842  0.3455  0.0411
  346MOL    H3449024   3.300   2.938   5.573  0.1566 -0.9858  0.2762
  346MOL    H3549025   3.137   2.889   5.773 -1.1468  1.0277  0.5313
  346MOL    H3649026   3.028   2.991   5.670  0.4353  1.2594 -1.0474
  346MOL    C3749027   3.128   3.113   5.895  0.5468  0.3975  0.3524
  346MOL    C3849028   3.193   3.232   5.966 -0.1393  0.4400  0.1065
  346MOL    O3949029   3.134   3.350   5.920  0.0623 -0.0859  0.0411
  346MOL    H4049030   3.022   3.134   5.878  0.1508 -1.3544  0.5596
  346MOL    H4149031   3.141   3.028   5.962  3.1301  0.4407 -0.0377
  346MOL    H4249032   3.300   3.229   5.944  0.1520 -0.0362  1.5335
  346MOL    H4349033   3.182   3.222   6.074  0.5828 -1.4729  0.0263
  346MOL    C4449034   3.197   3.472   5.965 -0.4950  0.0933  0.1188
  346MOL    C4549035   3.225   3.560   5.838 -0.2046 -0.9136  0.3980
  346MOL    O4649036   3.366   3.585   5.818 -0.2305 -0.4656 -0.3304
  346MOL    H4749037   3.129   3.517   6.039 -0.5714  0.0813  0.0557
  346MOL    H4849038   3.275   3.462   6.040  1.4481 -0.3497 -1.9317
  346MOL    H4949039   3.166   3.650   5.854  1.7779  0.2166  1.4086
  346MOL    H5049040   3.170   3.506   5.761 -2.2413  0.1965  1.0279
  346MOL    C5149041   3.397   3.676   5.719  0.4664 -0.6313  0.1777
  346MOL    C5249042   3.537   3.732   5.750  0.0720  0.1842  0.4307
  346MOL    O5349043   3.535   3.817   5.860  0.0811 -0.6389 -0.2829
  346MOL    H5449044   3.399   3.625   5.622  0.3265 -0.4978  0.1048
  346MOL    H5549045   3.326   3.759   5.724 -0.2206 -1.2086  0.0696
  346MOL    H5649046   3.573   3.782   5.660 -1.5806 -0.1334 -0.4304
  346MOL    H5749047   3.599   3.642   5.746 -0.4216 -0.1231 -0.6838
  346MOL    C5849048   3.529   3.758   5.990  0.3011  0.4245 -0.7989
  346MOL    C5949049   3.573   3.866   6.098 -0.2397  0.3782 -0.2380
  346MOL    O6049050   3.461   3.943   6.145 -0.5262  0.0933 -0.4768
  346MOL    H6149051   3.429   3.716   6.004  0.6038  0.3782  1.3484
  346MOL    H6249052   3.593   3.670   5.994  0.3701  0.4916 -0.4615
  346MOL    H6349053   3.667   3.917   6.076  0.8902 -0.9175  1.3711
  346MOL    H6449054   3.588   3.815   6.193 -0.9721 -1.6670 -1.1700
  346MOL    C6549055   3.500   4.056   6.219 -0.0343  0.1894 -0.0362
  346MOL    C6649056   3.576   4.029   6.346  0.1631  0.0307  0.0131
  346MOL    O6749057   3.716   4.029   6.318  0.2218 -0.7358  0.1455
  346MOL    H6849058   3.557   4.119   6.150 -1.4440  0.4918 -0.9597
  346MOL    H6949059   3.415   4.120   6.245 -2.2204 -2.7975  0.3511
  346MOL    H7049060   3.553   3.932   6.389  0.3694  0.1301  0.3548
  346MOL    H7149061   3.550   4.105   6.421 -0.8332 -0.8127  0.5317
  346MOL    C7249062   3.791   3.986   6.432  0.2557 -0.5929  0.9810
  346MOL    C7349063   3.787   3.832   6.435 -0.3692  0.1624 -0.0522
  346MOL    O7449064   3.859   3.785   6.317  0.6787 -0.0376 -0.0107
  346MOL    H7549065   3.896   4.018   6.431  0.0694  0.0056  0.4842
  346MOL    H7649066   3.749   4.025   6.525  1.7379  0.3888  1.2618
  346MOL    H7749067   3.682   3.802   6.442 -0.7232  1.3952 -0.0336
  346MOL    H7849068   3.844   3.788   6.517 -0.1231 -2.0868 -1.3967
  346MOL    C7949069   3.844   3.645   6.307 -0.3907 -0.3331 -0.0897
  346MOL    C8049070   3.872   3.605   6.164 -0.5564 -0.2215 -0.3058
  346MOL    O8149071   4.007   3.631   6.132 -0.7548  0.2339 -0.1104
  346MOL    H8249072   3.910   3.593   6.377 -1.0805 -0.8396  0.1928
  346MOL    H8349073   3.745   3.622   6.346 -0.9322  1.5799 -0.2785
  346MOL    H8449074   3.804   3.659   6.098 -3.0496 -1.9025  0.8388
  346MOL    H8549075   3.852   3.499   6.153  0.5522 -0.3540 -1.1671
  346MOL    C8649076   4.026   3.605   5.993  0.5168 -0.1281 -0.1571
  346MOL    C8749077   4.030   3.462   5.949  0.0048  0.5171 -0.2836
  346MOL    O8849078   3.900   3.416   5.899  0.1700  0.1153 -0.1971
  346MOL    H8949079   3.953   3.654   5.929  0.5968  0.7195  0.3869
  346MOL    H9049080   4.125   3.650   5.985  0.1330  0.5475 -1.0938
  346MOL    H9149081   4.055   3.405   6.039 -3.6301  1.9622  1.7507
  346MOL    H9249082   4.107   3.449   5.874 -0.4300  2.2959 -1.0559
  346MOL    C9349083   3.879   3.272   5.884  0.6701 -0.0331 -0.2268
  346MOL    C9449084   3.751   3.235   5.799 -0.4039  0.1453 -0.5739
  346MOL    O9549085   3.635   3.262   5.883  0.4791 -0.2923  0.2328
  346MOL    H9649086   3.965   3.227   5.834 -0.2653 -0.6576 -1.3268
  346MOL    H9749087   3.872   3.222   5.980 -0.1445  2.0704  0.8273
  346MOL    H9849088   3.753   3.132   5.763  0.4363 -0.9385  2.4283
  346MOL    H9949089   3.763   3.303   5.714 -2.8530 -0.9822 -1.8740
  346MOL   C10049090   3.544   3.341   5.807  0.5829  0.3064 -0.1730
  346MOL   C10149091   3.474   3.257   5.708  0.1261 -0.8448  0.4319
  346MOL   O10249092   3.545   3.258   5.582 -0.3457  0.2371 -0.0658
  346MOL   H10349093   3.475   3.395   5.872  0.7476  1.2332 -0.7546
  346MOL   H10449094   3.592   3.423   5.753 -1.2576  0.3935 -1.7558
  346MOL   H10549095   3.373   3.293   5.690  0.4176 -0.6209 -0.8370
  346MOL   H10649096   3.468   3.155   5.744  0.2694 -1.3153 -0.8532
  346MOL   C10749097   3.517   3.148   5.497 -0.2162  0.2421  0.6711
  346MOL   C10849098   3.629   3.145   5.387  0.4744  0.4910  0.2961
  346MOL   O10949099   3.640   3.271   5.318 -0.0815  0.5076  0.4216
  346MOL   H11049100   3.519   3.057   5.558  0.7788 -0.0674  0.1937
  346MOL   H11149101   3.419   3.152   5.450  1.5637  0.2070 -3.2637
  346MOL   H11249102   3.603   3.058   5.327  0.1576  0.5267  0.3835
  346MOL   H11349103   3.729   3.127   5.427  0.5627 -3.3285 -1.4341
  346MOL   C11449104   3.716   3.261   5.199 -0.2538  0.6595 -0.4750
  346MOL   C11549105   3.763   3.400   5.161 -0.2961 -0.7604 -0.0739
  346MOL   O11649106   3.868   3.449   5.238  0.2616  0.5832 -0.8353
  346MOL   H11749107   3.799   3.194   5.222 -1.4557 -0.1266  1.6849
  346MOL   H11849108   3.650   3.219   5.123  1.7729 -3.0007 -0.3619
  346MOL   H11949109   3.690   3.480   5.162  0.7658  0.2173  0.9025
  346MOL   H12049110   3.789   3.399   5.055 -1.7291 -0.9380 -0.4279
  346MOL   C12149111   3.934   3.568   5.200 -0.8967  1.1864 -0.6013
  346MOL   C12249112   4.039   3.539   5.088 -0.1034 -0.0028  0.2257
  346MOL   O12349113   3.989   3.542   4.955 -0.0037 -0.5940  0.7339
  346MOL   H12449114   3.865   3.648   5.173  1.1003  3.2202  0.1125
  346MOL   H12549115   3.976   3.601   5.295 -4.9668  1.1120  1.3233
  346MOL   H12649116   4.071   3.436   5.101 -1.7408 -0.2547  2.4285
  346MOL   H12749117   4.130   3.595   5.113  1.1937 -2.5094  1.3127
  346MOL   C12849118   4.003   3.671   4.905  0.3047  0.1814  0.1599
  346MOL   C12949119   3.940   3.680   4.766 -0.1014 -0.0815 -0.5598
  346MOL   O13049120   3.953   3.814   4.720 -0.6576  0.3011 -0.6925
  346MOL   H13149121   3.957   3.746   4.969  0.7955  0.3213  0.3540
  346MOL   H13249122   4.108   3.701   4.903 -0.3719  2.6821  0.5887
  346MOL   H13349123   3.837   3.648   4.781  0.4176 -3.5136 -3.6181
  346MOL   H13449124   3.998   3.627   4.690  0.1668  1.2887 -1.3230
  346MOL   C13549125   3.945   3.830   4.577 -0.0374  0.0913  0.2943
  346MOL   C13649126   3.931   3.977   4.540 -0.3231  0.1670 -0.4955
  346MOL   O13749127   3.805   4.012   4.573  0.6804 -0.2773 -0.6701
  346MOL   H13849128   4.037   3.790   4.534 -1.3576 -2.3250 -0.3685
  346MOL   H13949129   3.866   3.777   4.524  1.3781 -2.6194  0.7731
  346MOL   H14049130   3.944   3.992   4.433 -0.3398 -1.8184 -0.7923
  346MOL   H14149131   3.992   4.045   4.601  1.4051 -0.3960 -1.5673
  346MOL   H14249132   3.785   3.990   4.663 -1.9540  2.0110 -0.6178
  347MOL     C149133   2.339   4.401   1.010 -0.9300 -0.3761 -0.3463
  347MOL     C249134   2.408   4.314   0.908 -0.6760 -0.3526  1.4328
  347MOL     O349135   2.548   4.321   0.901 -0.2659  0.5881  0.3247
  347MOL     H449136   2.376   4.503   1.014 -1.5044 -0.1899  0.3631
  347MOL     H549137   2.348   4.359   1.110 -0.6187  0.8397  0.1480
  347MOL     H649138   2.372   4.360   0.816  0.9372 -0.0261  0.9622
  347MOL     H749139   2.368   4.214   0.923 -1.0213 -0.6776 -1.3277
  347MOL     H849140   2.235   4.406   0.978 -1.4779 -1.4273  1.1977
  347MOL     C949141   2.606   4.264   0.783 -0.3421 -0.2781  0.0376
  347MOL    C1049142   2.757   4.246   0.799 -0.5266 -0.9177 -0.2142
  347MOL    O1149143   2.797   4.173   0.688  0.2424 -0.2702 -0.4824
  347MOL    H1249144   2.555   4.173   0.750 -0.3780 -0.4693  0.6215
  347MOL    H1349145   2.584   4.338   0.706 -0.2516 -1.0584 -0.7507
  347MOL    H1449146   2.779   4.195   0.892  0.0400 -0.2414  0.0215
  347MOL    H1549147   2.794   4.348   0.803  0.9307 -1.4723  0.8818
  347MOL    C1649148   2.935   4.148   0.684  0.0696  0.0747 -0.0595
  347MOL    C1749149   2.976   4.097   0.552 -0.0278  0.3763  0.4397
  347MOL    O1849150   2.955   4.197   0.461  0.3468  0.5954  0.3118
  347MOL    H1949151   2.994   4.234   0.716  1.1516 -0.7373  0.1769
  347MOL    H2049152   2.962   4.074   0.760 -0.6212 -0.0506  0.0638
  347MOL    H2149153   2.941   3.999   0.520  0.5356  1.2122 -2.9285
  347MOL    H2249154   3.081   4.067   0.545 -0.2941 -0.8697  1.6349
  347MOL    C2349155   3.040   4.195   0.346 -0.1166 -0.6424 -0.3273
  347MOL    C2449156   3.171   4.283   0.375 -0.5570  0.3699 -0.3981
  347MOL    O2549157   3.267   4.227   0.457 -0.0993 -0.4590  0.6290
  347MOL    H2649158   3.062   4.099   0.298 -0.2244 -1.4005  1.1124
  347MOL    H2749159   3.002   4.262   0.269 -1.5081 -1.4911 -0.3938
  347MOL    H2849160   3.128   4.370   0.425 -1.6012 -0.7769  0.7764
  347MOL    H2949161   3.220   4.322   0.286  1.3928  0.6962  0.7903
  347MOL    C3049162   3.366   4.320   0.493  0.3590 -0.1975 -0.6173
  347MOL    C3149163   3.473   4.244   0.572 -0.4507  0.5066  0.3020
  347MOL    O3249164   3.408   4.218   0.698 -0.2183  0.0580  0.5710
  347MOL    H3349165   3.412   4.368   0.407  1.5573 -1.4363 -0.6783
  347MOL    H3449166   3.328   4.390   0.568  1.4392 -0.6995  0.4202
  347MOL    H3549167   3.564   4.303   0.579 -1.0865  1.4362  0.8015
  347MOL    H3649168   3.494   4.153   0.516 -2.3170 -0.4170  1.0361
  347MOL    C3749169   3.484   4.146   0.794 -0.0924 -0.0585 -0.1169
  347MOL    C3849170   3.406   4.100   0.916  0.6565  0.0691 -0.2639
  347MOL    O3949171   3.330   3.985   0.889 -0.0741 -0.3155 -0.0769
  347MOL    H4049172   3.537   4.066   0.743  1.4348  0.7648  0.1637
  347MOL    H4149173   3.562   4.209   0.836  0.1863 -1.2361  1.1313
  347MOL    H4249174   3.346   4.177   0.965  0.0070 -0.8552  0.4091
  347MOL    H4349175   3.482   4.060   0.984  2.1086 -0.7469 -2.3250
  347MOL    C4449176   3.195   4.014   0.870 -0.1977 -0.0880  0.4048
  347MOL    C4549177   3.117   4.040   0.997  0.3574 -0.4403  0.1255
  347MOL    O4649178   3.060   3.926   1.050  0.0932 -0.1055 -0.1186
  347MOL    H4749179   3.193   4.101   0.805  2.3773 -0.4190 -0.1819
  347MOL    H4849180   3.135   3.946   0.810 -0.2679  0.0277  0.3435
  347MOL    H4949181   3.045   4.119   0.979 -0.9949 -1.2489  1.8564
  347MOL    H5049182   3.187   4.079   1.071  0.7219 -2.4470  0.8967
  347MOL    C5149183   2.969   3.939   1.159 -0.9624 -0.7072  0.2260
  347MOL    C5249184   2.914   3.798   1.205  0.7677  0.2544  0.2949
  347MOL    O5349185   3.010   3.725   1.284 -0.2264 -0.0107  0.0415
  347MOL    H5449186   3.019   3.983   1.246 -1.9948  0.1814  0.3923
  347MOL    H5549187   2.892   4.008   1.124  0.1812  1.4697  1.8110
  347MOL    H5649188   2.876   3.751   1.114 -1.1549  0.9658  0.7127
  347MOL    H5749189   2.830   3.816   1.271  2.2135 -1.0204  2.5275
  347MOL    C5849190   3.123   3.679   1.211 -0.1180  0.1603 -0.6673
  347MOL    C5949191   3.208   3.600   1.312  0.7788 -0.0389  0.0292
  347MOL    O6049192   3.302   3.673   1.389  0.4508 -0.0902 -0.1299
  347MOL    H6149193   3.101   3.609   1.131  1.5443  0.0976 -1.0922
  347MOL    H6249194   3.179   3.769   1.184 -1.9307  1.3769 -0.4590
  347MOL    H6349195   3.250   3.519   1.253 -0.2227 -1.4485  1.2218
  347MOL    H6449196   3.141   3.542   1.376  2.9509 -2.1181  0.4668
  347MOL    C6549197   3.430   3.669   1.339  0.0110  0.6030 -0.3536
  347MOL    C6649198   3.502   3.794   1.399 -0.8347  0.1192 -0.1000
  347MOL    O6749199   3.461   3.919   1.339  0.2051  0.2691 -0.1329
  347MOL    H6849200   3.487   3.582   1.371 -2.0527 -0.0548  1.6897
  347MOL    H6949201   3.443   3.671   1.231  0.7436  0.2590 -0.2764
  347MOL    H7049202   3.609   3.778   1.382 -0.4167  1.6938  0.9404
  347MOL    H7149203   3.488   3.816   1.505 -1.0916 -0.7685  0.0583
  347MOL    C7249204   3.331   3.973   1.366 -0.4333 -0.1179  0.1664
  347MOL    C7349205   3.361   4.118   1.402 -1.1609  0.4786  0.9042
  347MOL    O7449206   3.379   4.134   1.543  0.2986  0.3617  0.1222
  347MOL    H7549207   3.277   3.977   1.271 -0.0226  2.1463  0.0060
  347MOL    H7649208   3.259   3.920   1.430 -1.4342  0.4243 -0.4905
  347MOL    H7749209   3.270   4.176   1.384 -0.4694  0.9624 -1.1691
  347MOL    H7849210   3.443   4.148   1.336 -0.6713 -2.0217  0.3257
  347MOL    C7949211   3.427   4.261   1.578 -1.0070  0.2087  0.1642
  347MOL    C8049212   3.311   4.362   1.586  0.2743 -0.4646 -0.2737
  347MOL    O8149213   3.299   4.436   1.464  0.4242 -0.1346  0.2375
  347MOL    H8249214   3.468   4.258   1.679  1.4642 -1.6096 -0.8483
  347MOL    H8349215   3.515   4.298   1.524 -1.3496  0.0478 -0.4994
  347MOL    H8449216   3.337   4.435   1.663 -0.9566 -0.6955  0.3873
  347MOL    H8549217   3.222   4.312   1.626 -1.5009  1.1102 -2.1328
  347MOL    C8649218   3.202   4.545   1.457 -0.2974  0.1231  0.4579
  347MOL    C8749219   3.207   4.611   1.310 -0.3245  0.1225 -0.4857
  347MOL    O8849220   3.183   4.500   1.223 -0.0141  0.0265  1.1412
  347MOL    H8949221   3.102   4.504   1.470 -0.4604  0.8127  1.4485
  347MOL    H9049222   3.227   4.615   1.537 -2.2722  3.2366 -1.5235
  347MOL    H9149223   3.304   4.653   1.286 -1.2261  3.2016  0.9319
  347MOL    H9249224   3.136   4.692   1.291  2.1027  1.9420 -2.0269
  347MOL    C9349225   3.141   4.530   1.090 -0.5955  0.5489 -0.2704
  347MOL    C9449226   3.106   4.392   1.025  0.2591 -0.1820 -0.8081
  347MOL    O9549227   2.968   4.371   1.048 -0.1039  0.0647 -0.2485
  347MOL    H9649228   3.056   4.597   1.098  0.0782  1.5771 -1.4959
  347MOL    H9749229   3.223   4.575   1.035  1.8369 -0.9383  2.0228
  347MOL    H9849230   3.177   4.314   1.056 -0.0262 -0.2105 -0.2115
  347MOL    H9949231   3.108   4.414   0.919 -3.0277 -0.2496 -0.9137
  347MOL   C10049232   2.932   4.335   1.188 -0.8867 -0.7289 -0.3466
  347MOL   C10149233   2.780   4.353   1.223 -0.7294  0.0347  0.0771
  347MOL   O10249234   2.752   4.486   1.256  0.4447 -0.0659  0.6362
  347MOL   H10349235   2.958   4.231   1.208  2.3113  0.2383  0.7843
  347MOL   H10449236   2.995   4.386   1.260  0.7720 -0.4452 -1.9793
  347MOL   H10549237   2.752   4.286   1.304  1.8138 -0.8246  0.3002
  347MOL   H10649238   2.722   4.321   1.137 -0.9340  1.4078 -0.3035
  347MOL   C10749239   2.632   4.530   1.192  0.6515 -0.1062  0.4122
  347MOL   C10849240   2.606   4.677   1.198 -0.3861  0.1102 -0.6338
  347MOL   O10949241   2.675   4.743   1.092  0.7021 -0.0633  0.8195
  347MOL   H11049242   2.619   4.508   1.086  0.7608 -0.8683  0.5586
  347MOL   H11149243   2.548   4.481   1.240 -1.0089  1.6127 -0.6532
  347MOL   H11249244   2.620   4.729   1.293 -1.2533  0.4810 -0.7004
  347MOL   H11349245   2.501   4.686   1.170 -1.2925  1.8769  2.9700
  347MOL   C11449246   2.810   4.780   1.139  0.8500  0.4974 -0.6175
  347MOL   C11549247   2.869   4.870   1.024 -0.3120  0.1783  0.6543
  347MOL   O11649248   3.009   4.883   1.024  0.7738  0.6047  0.6962
  347MOL   H11749249   2.798   4.847   1.224  1.9861  0.7604 -0.6580
  347MOL   H11849250   2.860   4.687   1.165 -0.3036 -0.3315 -1.3698
  347MOL   H11949251   2.822   4.967   1.012 -0.6031 -0.1084 -0.5420
  347MOL   H12049252   2.829   4.836   0.929 -0.1227  1.2892  0.1739
  347MOL   C12149253   3.062   4.947   1.139  0.0650 -0.3646  0.0687
  347MOL   C12249254   3.024   5.097   1.156  0.1618  0.2420  0.5937
  347MOL   O12349255   2.898   5.101   1.220 -0.1881  0.5472 -0.2220
  347MOL   H12449256   3.035   4.890   1.228  0.4426 -1.8883 -0.7649
  347MOL   H12549257   3.171   4.939   1.137  0.1204 -0.6503  2.6651
  347MOL   H12649258   3.037   5.143   1.058 -0.0797  0.4394  0.6545
  347MOL   H12749259   3.107   5.131   1.218  2.1846  0.3021 -2.0155
  347MOL   C12849260   2.849   5.222   1.273  0.2227 -0.0844 -0.6623
  347MOL   C12949261   2.693   5.234   1.303  0.4340  0.3259 -0.2426
  347MOL   O13049262   2.659   5.151   1.418 -0.0866 -0.5831  0.4090
  347MOL   H13149263   2.909   5.236   1.363 -1.1262 -1.1983  0.4187
  347MOL   H13249264   2.866   5.297   1.195 -0.4890 -0.3278 -1.0534
  347MOL   H13349265   2.645   5.190   1.215 -0.8853 -1.2335  1.2323
  347MOL   H13449266   2.673   5.340   1.316 -0.9838 -0.1369  1.5186
  347MOL   C13549267   2.541   5.189   1.479  0.3634 -0.5462 -0.3316
  347MOL   C13649268   2.487   5.069   1.564 -0.3786 -0.4111  0.7920
  347MOL   O13749269   2.432   4.969   1.481  0.4410  0.5597 -0.1082
  347MOL   H13849270   2.558   5.280   1.537 -1.7336 -0.7200  0.6143
  347MOL   H13949271   2.463   5.217   1.408 -1.7507  1.2806  2.5707
  347MOL   H14049272   2.414   5.111   1.632 -2.2962  1.4278 -2.2984
  347MOL   H14149273   2.566   5.021   1.623  1.2904  1.1475 -0.1439
  347MOL   H14249274   2.381   5.029   1.428 -0.1941  1.4702  1.5000
  348MOL     C149275   5.767   5.176   6.053 -0.8212 -0.2809 -0.2660
  348MOL     C249276   5.661   5.252   6.133  0.7460  0.2184  0.1601
  348MOL     O349277   5.716   5.376   6.174  0.3756 -0.1546  0.3944
  348MOL     H449278   5.815   5.251   5.990  0.5186  0.6917  1.8757
  348MOL     H549279   5.734   5.096   5.987  1.2871 -0.2658 -1.3841
  348MOL     H649280   5.618   5.188   6.211 -0.7651 -0.8660 -1.5389
  348MOL     H749281   5.577   5.269   6.067  0.2437 -0.5786  0.5761
  348MOL     H849282   5.847   5.129   6.109  0.8240  0.9124 -1.5484
  348MOL     C949283   5.618   5.456   6.238 -0.1100 -0.1374 -0.0946
  348MOL    C1049284   5.702   5.567   6.308 -0.7489 -0.0251 -0.2312
  348MOL    O1149285   5.768   5.648   6.220  0.2168 -0.8430  0.4606
  348MOL    H1249286   5.552   5.498   6.163 -2.0770 -3.6799 -0.4759
  348MOL    H1349287   5.566   5.399   6.315  0.4860 -0.4449  0.0860
  348MOL    H1449288   5.770   5.525   6.383 -1.7591  1.8145  1.7742
  348MOL    H1549289   5.633   5.622   6.372  0.4337  0.4344  0.6718
  348MOL    C1649290   5.829   5.763   6.280 -0.4596 -0.2914 -0.1076
  348MOL    C1749291   5.900   5.840   6.170 -0.4148  0.7963  0.4502
  348MOL    O1849292   6.015   5.906   6.218  0.4091  0.1825 -0.4036
  348MOL    H1949293   5.756   5.826   6.332  0.4402  0.2283  0.5362
  348MOL    H2049294   5.896   5.741   6.363 -0.9810  0.8885  0.6491
  348MOL    H2149295   5.837   5.920   6.129 -0.2965  0.7293  0.1321
  348MOL    H2249296   5.927   5.763   6.098  3.0797  2.9231 -0.6092
  348MOL    C2349297   6.078   5.975   6.114 -0.1474  0.1883  0.3221
  348MOL    C2449298   6.211   6.039   6.166 -0.2446  0.4468 -0.0359
  348MOL    O2549299   6.331   5.960   6.144 -0.4812  0.1417 -0.3858
  348MOL    H2649300   6.117   5.893   6.052  0.4606  1.0496 -0.4469
  348MOL    H2749301   6.015   6.052   6.070 -2.3614 -1.3805  0.6373
  348MOL    H2849302   6.207   6.062   6.273  2.3341  1.3635 -0.1089
  348MOL    H2949303   6.213   6.130   6.106  1.3227  0.1179 -0.5040
  348MOL    C3049304   6.340   5.852   6.236 -0.0126 -0.0120  0.4073
  348MOL    C3149305   6.424   5.733   6.184  0.5599  0.5936  0.1905
  348MOL    O3249306   6.407   5.624   6.291 -0.2174 -0.0735 -0.9363
  348MOL    H3349307   6.385   5.895   6.326 -0.5616  2.8156 -0.5921
  348MOL    H3449308   6.246   5.811   6.275 -0.4736  0.8323  0.2106
  348MOL    H3549309   6.526   5.768   6.168  1.1115  0.1603  2.4975
  348MOL    H3649310   6.376   5.710   6.089 -3.2243  4.1462  1.1574
  348MOL    C3749311   6.444   5.504   6.230  0.2792 -0.3457  0.1819
  348MOL    C3849312   6.603   5.486   6.235  0.3375  0.2977 -0.2952
  348MOL    O3949313   6.663   5.550   6.122  0.6311 -0.1788 -0.0629
  348MOL    H4049314   6.398   5.421   6.282 -2.5438  1.7601  1.1502
  348MOL    H4149315   6.407   5.496   6.127 -0.8593 -2.8895  0.7499
  348MOL    H4249316   6.624   5.379   6.238 -1.0833  0.0345  0.7050
  348MOL    H4349317   6.630   5.523   6.334 -0.2861 -1.2807  0.4763
  348MOL    C4449318   6.800   5.584   6.146  0.1285  0.0027  0.4161
  348MOL    C4549319   6.856   5.591   6.002  0.3226  0.0421 -0.1442
  348MOL    O4649320   6.812   5.713   5.947  0.1837 -0.0868 -0.0736
  348MOL    H4749321   6.804   5.672   6.210  1.6663 -1.3563  2.2554
  348MOL    H4849322   6.834   5.492   6.194 -0.3750 -0.6120 -0.4030
  348MOL    H4949323   6.820   5.506   5.943 -3.2955  1.9362 -0.8736
  348MOL    H5049324   6.963   5.575   6.011 -0.1245 -3.8265 -0.7824
  348MOL    C5149325   6.819   5.708   5.808  0.1396  0.3530  0.1649
  348MOL    C5249326   6.788   5.841   5.739 -0.4420 -0.3882 -0.0135
  348MOL    O5349327   6.649   5.838   5.695 -0.2624 -0.8852 -0.0934
  348MOL    H5449328   6.915   5.678   5.764  0.2242  0.8597 -0.0050
  348MOL    H5549329   6.750   5.630   5.778  0.0756  0.7759 -0.8075
  348MOL    H5649330   6.850   5.854   5.651 -1.0002  0.6338 -0.2504
  348MOL    H5749331   6.805   5.927   5.804  1.0558  0.3313 -1.3252
  348MOL    C5849332   6.560   5.869   5.804 -0.4974 -0.3525  0.1912
  348MOL    C5949333   6.421   5.876   5.753 -0.4349  0.0548  0.5268
  348MOL    O6049334   6.372   5.746   5.719  0.0013 -0.3240 -0.0026
  348MOL    H6149335   6.569   5.785   5.873  0.6247 -0.5140 -0.1419
  348MOL    H6249336   6.577   5.966   5.851 -1.6192 -0.0349 -0.0351
  348MOL    H6349337   6.417   5.943   5.667 -1.2280 -0.3037  0.2856
  348MOL    H6449338   6.348   5.912   5.826 -1.4109 -3.7172  1.5007
  348MOL    C6549339   6.235   5.744   5.668 -0.2207 -0.1324 -0.1285
  348MOL    C6649340   6.134   5.730   5.779  0.4954 -0.8332  1.0504
  348MOL    O6749341   6.133   5.593   5.825  0.0305 -0.0743  0.0367
  348MOL    H6849342   6.212   5.830   5.605  0.8836 -2.1428 -3.4615
  348MOL    H6949343   6.219   5.657   5.604  0.6663 -0.4614  0.0894
  348MOL    H7049344   6.035   5.757   5.742 -0.2220 -0.5391  3.1134
  348MOL    H7149345   6.160   5.799   5.859 -1.6040  0.3295  0.7794
  348MOL    C7249346   6.063   5.583   5.953 -0.1497  0.2883  0.3539
  348MOL    C7349347   6.055   5.430   5.988 -0.9562 -1.1134 -0.2919
  348MOL    O7449348   6.182   5.370   6.011 -0.0140 -0.1076 -0.0729
  348MOL    H7549349   6.118   5.641   6.027  0.9696  0.7478 -0.7974
  348MOL    H7649350   5.965   5.630   5.945 -1.0487 -1.6126 -0.0109
  348MOL    H7749351   5.986   5.384   5.917 -1.2030 -0.4247 -0.5023
  348MOL    H7849352   6.003   5.424   6.083  0.6944 -1.3040  0.6157
  348MOL    C7949353   6.176   5.223   6.028 -0.1352  0.7079 -0.3846
  348MOL    C8049354   6.189   5.143   5.894  0.5705 -0.2579  0.5334
  348MOL    O8149355   6.057   5.133   5.848  0.3594 -0.1150  0.1073
  348MOL    H8249356   6.263   5.191   6.085 -1.8334 -0.4321  1.6430
  348MOL    H8349357   6.097   5.175   6.086  0.2697  1.8190  1.0954
  348MOL    H8449358   6.223   5.045   5.927 -0.3028 -0.1811  1.7262
  348MOL    H8549359   6.259   5.191   5.826 -0.4142  0.6900  0.1756
  348MOL    C8649360   6.034   5.020   5.759 -0.6369 -0.6788  0.3930
  348MOL    C8749361   5.891   4.983   5.713  0.5766 -0.3168  0.0675
  348MOL    O8849362   5.857   5.042   5.587 -0.2271  0.2977 -0.3728
  348MOL    H8949363   6.081   5.040   5.662  2.0022 -1.3997  1.4928
  348MOL    H9049364   6.069   4.933   5.814  0.4660 -1.4628 -1.4907
  348MOL    H9149365   5.817   5.009   5.788 -0.3801  0.1335 -1.0093
  348MOL    H9249366   5.875   4.878   5.690  2.7290 -0.9357  1.2210
  348MOL    C9349367   5.736   5.112   5.591 -0.2926  0.4550 -0.6303
  348MOL    C9449368   5.715   5.151   5.439 -0.5287  0.4158  0.2703
  348MOL    O9549369   5.574   5.174   5.408 -0.0258 -0.2864  0.2360
  348MOL    H9649370   5.660   5.047   5.635 -0.1050  0.2985 -0.5368
  348MOL    H9749371   5.733   5.203   5.652 -1.2957  1.1934 -1.7533
  348MOL    H9849372   5.738   5.062   5.382 -1.4203  0.8043 -0.6926
  348MOL    H9949373   5.785   5.230   5.411  0.5458 -0.5270  0.2639
  348MOL   C10049374   5.504   5.278   5.479 -0.0238 -0.1208  0.7413
  348MOL   C10149375   5.361   5.291   5.429  0.7636  0.0730  0.2059
  348MOL   O10249376   5.277   5.202   5.500 -0.0203 -0.5119  0.2613
  348MOL   H10349377   5.506   5.264   5.587  0.7039  1.6874  0.9800
  348MOL   H10449378   5.558   5.369   5.452  1.3210 -0.7322  1.3158
  348MOL   H10549379   5.379   5.261   5.325  1.5917 -0.3544  0.4663
  348MOL   H10649380   5.323   5.392   5.437 -0.4633 -0.3077 -0.5955
  348MOL   C10749381   5.151   5.213   5.436 -0.7242  0.8159  0.0193
  348MOL   C10849382   5.049   5.115   5.497  0.1277  0.6807  0.2608
  348MOL   O10949383   4.913   5.169   5.492 -0.4563  0.2274  0.3492
  348MOL   H11049384   5.110   5.314   5.435  0.9910  1.5229 -0.7331
  348MOL   H11149385   5.168   5.185   5.332  0.5953 -2.4022  1.0415
  348MOL   H11249386   5.079   5.093   5.600  1.4210  0.7400 -0.1016
  348MOL   H11349387   5.057   5.021   5.441  0.2223  2.0424 -2.0519
  348MOL   C11449388   4.819   5.093   5.416  0.3770  0.0694 -0.2760
  348MOL   C11549389   4.677   5.154   5.431 -0.3124  0.1240  0.3731
  348MOL   O11649390   4.621   5.093   5.545 -0.5277  0.3891  0.2172
  348MOL   H11749391   4.842   5.090   5.309  2.4904  0.6166  0.1405
  348MOL   H11849392   4.812   4.987   5.441  1.7172  0.4910  2.0362
  348MOL   H11949393   4.611   5.126   5.349 -0.9666 -1.7104  1.5041
  348MOL   H12049394   4.683   5.263   5.433 -0.9736  0.2239 -1.5279
  348MOL   C12149395   4.489   5.146   5.568  0.7540  0.0081 -0.0435
  348MOL   C12249396   4.411   5.078   5.688 -0.4914 -0.8267  0.4781
  348MOL   O12349397   4.357   4.959   5.636 -0.1540  0.2220 -0.0141
  348MOL   H12449398   4.497   5.253   5.584  0.5702 -0.3402  2.5333
  348MOL   H12549399   4.425   5.131   5.480 -0.8376  0.4412  1.0168
  348MOL   H12649400   4.332   5.148   5.716  1.3326  1.6967 -0.5211
  348MOL   H12749401   4.482   5.065   5.769  0.0640  2.0773  0.5092
  348MOL   C12849402   4.311   4.877   5.737 -0.3278 -0.4372 -0.7167
  348MOL   C12949403   4.208   4.786   5.671 -0.1733 -0.3345 -0.6706
  348MOL   O13049404   4.083   4.864   5.662  0.4673  0.2745  0.1037
  348MOL   H13149405   4.399   4.833   5.783 -0.6612  0.6390  0.9903
  348MOL   H13249406   4.267   4.938   5.816 -0.9413 -1.6115 -0.1405
  348MOL   H13349407   4.181   4.710   5.746  0.9616 -1.9212 -1.8352
  348MOL   H13449408   4.229   4.732   5.579  1.4172 -1.3535  0.2533
  348MOL   C13549409   3.983   4.787   5.602 -0.0126  0.1001 -0.0208
  348MOL   C13649410   3.867   4.887   5.589 -0.5790 -0.6640 -0.5005
  348MOL   O13749411   3.910   4.983   5.498 -0.1023  0.1663 -1.1391
  348MOL   H13849412   4.010   4.748   5.504  0.3990 -1.1706  0.5969
  348MOL   H13949413   3.962   4.713   5.679 -3.1011  1.0849  0.1248
  348MOL   H14049414   3.845   4.943   5.680 -0.4172 -0.2035 -0.7424
  348MOL   H14149415   3.776   4.843   5.548 -0.9500  0.9594 -1.4376
  348MOL   H14249416   3.999   5.000   5.524 -0.1192 -0.3440 -0.7309
  349MOL     C149417   0.594   5.796   7.628  0.9939  0.7422  0.0089
  349MOL     C249418   0.465   5.777   7.691 -0.3373  0.2395 -0.4503
  349MOL     O349419   0.383   5.699   7.613  0.3979 -0.1595  0.4602
  349MOL     H449420   0.643   5.700   7.616  0.2148  0.5422 -1.7477
  349MOL     H549421   0.658   5.861   7.687  0.1034 -0.3665  2.2517
  349MOL     H649422   0.411   5.872   7.703 -0.1815  0.3565 -0.6618
  349MOL     H749423   0.465   5.727   0.016 -2.2613 -0.4280 -0.7747
  349MOL     H849424   0.587   5.839   7.528 -1.7413  0.4228  0.0227
  349MOL     C949425   0.263   5.659   7.667  0.1567  0.0116  0.2589
  349MOL    C1049426   0.194   5.584   7.554 -0.0908 -0.3158 -0.6103
  349MOL    O1149427   0.055   5.552   7.578 -1.0933  0.3103 -0.0368
  349MOL    H1249428   0.267   5.601   7.759  0.3146 -0.6163 -0.1409
  349MOL    H1349429   0.205   5.747   7.693 -0.6138  0.0082 -1.3763
  349MOL    H1449430   0.240   5.493   7.514 -0.7818 -1.3373  0.8816
  349MOL    H1549431   0.192   5.652   7.469  0.5927  0.2519 -0.1812
  349MOL    C1649432   0.001   5.463   7.482 -0.0366  0.0606  0.3913
  349MOL    C1749433   7.618   5.475   7.472  0.0690 -0.3924 -0.6381
  349MOL    O1849434   7.540   5.417   7.578  0.4309  0.5502 -0.0972
  349MOL    H1949435   0.041   5.498   7.387  0.5698 -0.4486  0.4582
  349MOL    H2049436   0.031   5.358   7.478 -0.7182 -0.2010  1.9891
  349MOL    H2149437   7.584   5.420   7.384 -2.3252 -2.1311  1.3042
  349MOL    H2249438   7.587   5.577   7.453  0.8185 -0.0046  0.1946
  349MOL    C2349439   7.396   5.390   7.560  0.2707  1.1224  0.5590
  349MOL    C2449440   7.333   5.310   7.669  0.3542 -0.3675  0.0300
  349MOL    O2549441   7.400   5.184   7.669 -0.1420  0.2564  0.4382
  349MOL    H2649442   7.346   5.486   7.545  0.5668  1.1295 -0.4587
  349MOL    H2749443   7.383   5.329   7.470 -0.0711  0.5625  0.9790
  349MOL    H2849444   7.226   5.300   7.654  0.4847  0.1314 -1.2747
  349MOL    H2949445   7.342   5.360   7.766 -1.7916 -1.1302  0.6561
  349MOL    C3049446   7.327   5.085   7.741  1.1949 -0.2147  0.2405
  349MOL    C3149447   7.424   4.971   0.003  0.2236  0.1184  0.3351
  349MOL    O3249448   7.436   4.891   7.654 -0.1051  0.1690 -0.0087
  349MOL    H3349449   7.295   5.130   0.063  0.6149 -0.1082 -0.0118
  349MOL    H3449450   7.247   5.042   7.681 -0.7094  0.2629  2.3808
  349MOL    H3549451   7.375   4.918   0.085 -2.2989  1.7321 -0.0894
  349MOL    H3649452   7.515   5.021   0.036  1.5453 -0.1800 -2.7398
  349MOL    C3749453   7.533   4.790   7.658  0.4239  0.9994  0.1448
  349MOL    C3849454   7.540   4.720   7.525  0.5483  0.0388 -0.8786
  349MOL    O3949455   7.429   4.642   7.499 -0.3518  1.0353  0.1217
  349MOL    H4049456   7.631   4.822   7.692  0.6993 -0.5032  0.8128
  349MOL    H4149457   7.511   4.713   7.732  4.2537 -1.9509 -1.6328
  349MOL    H4249458   7.632   4.660   7.524  0.1442 -0.6570  1.8169
  349MOL    H4349459   7.563   4.790   7.444 -2.0176  0.9423 -0.8449
  349MOL    C4449460   7.423   4.605   7.360 -1.0674  0.2341 -0.0154
  349MOL    C4549461   7.513   4.485   7.315 -0.6286 -0.5049  0.6850
  349MOL    O4649462   7.462   4.360   7.336  0.8816  0.5695  0.0063
  349MOL    H4749463   7.320   4.580   7.335 -0.5549 -1.0665 -0.9127
  349MOL    H4849464   7.452   4.694   7.304  0.3395  0.1148  0.4914
  349MOL    H4949465   7.607   4.503   7.367  0.3675  2.2294 -1.9097
  349MOL    H5049466   7.531   4.489   7.207  3.2460  0.2187  1.2911
  349MOL    C5149467   7.403   4.326   7.457  0.7935  0.0005  0.0902
  349MOL    C5249468   7.507   4.314   7.571  0.4593 -0.0583 -0.1190
  349MOL    O5349469   7.458   4.254   7.688  0.0067 -0.7460  0.1321
  349MOL    H5449470   7.325   4.394   7.491  2.2273  1.5942  0.3076
  349MOL    H5549471   7.361   4.227   7.444  0.2779  0.4731 -2.0459
  349MOL    H5649472   7.556   4.409   7.591  2.5218 -1.6021  2.5530
  349MOL    H5749473   7.583   4.246   7.532  0.9850  0.5264 -0.1118
  349MOL    C5849474   7.465   4.113   7.684  0.3181  0.1421 -0.4484
  349MOL    C5949475   7.428   4.059   0.050 -0.1431 -0.1680 -0.1238
  349MOL    O6049476   7.284   4.064   0.045  0.4891  0.4818 -0.1396
  349MOL    H6149477   7.413   4.060   7.604 -3.8845  1.3543  1.3842
  349MOL    H6249478   7.570   4.086   7.668  0.3411 -0.7505  1.1265
  349MOL    H6349479   7.476   4.109   0.134 -1.3523  0.6453  0.0900
  349MOL    H6449480   7.446   3.951   0.056 -0.9854 -0.4072 -1.5886
  349MOL    C6549481   7.232   4.087   0.173  0.3814  0.9236  0.5452
  349MOL    C6649482   7.087   4.136   0.164 -0.8192  0.0492  1.4017
  349MOL    O6749483   7.064   4.177   0.296  0.1226 -0.5569 -0.1916
  349MOL    H6849484   7.233   3.992   0.228 -2.2137 -0.0823 -1.0191
  349MOL    H6949485   7.291   4.163   0.224  0.2334  0.0021  2.1164
  349MOL    H7049486   7.014   4.063   0.128  0.3291  0.2519 -1.4226
  349MOL    H7149487   7.080   4.221   0.097  0.8033 -1.0937 -0.2661
  349MOL    C7249488   6.959   4.272   0.309  0.6967 -0.4713  0.7606
  349MOL    C7349489   7.012   4.419   0.290 -0.4393  0.3578  0.4847
  349MOL    O7449490   6.913   4.506   0.353 -0.2748 -0.6137 -0.0169
  349MOL    H7549491   6.877   4.257   0.239  1.0715 -0.9364  0.4220
  349MOL    H7649492   6.928   4.267   0.414  0.2221 -0.3489  0.6301
  349MOL    H7749493   7.033   4.447   0.187  0.2939 -0.3869  0.4235
  349MOL    H7849494   7.104   4.422   0.348  1.1154  0.1666 -1.9154
  349MOL    C7949495   6.811   4.535   0.254 -0.1668 -0.1204 -0.4576
  349MOL    C8049496   6.710   4.634   0.319 -0.3655 -0.2671  0.4907
  349MOL    O8149497   6.629   4.582   0.418  0.4551  0.6182  0.4953
  349MOL    H8249498   6.842   4.590   0.165  0.2857 -0.2910 -0.4075
  349MOL    H8349499   6.762   4.441   0.230 -1.6085 -0.3018  2.8601
  349MOL    H8449500   6.642   4.669   0.242  1.4609  0.9361 -0.5940
  349MOL    H8549501   6.761   4.722   0.359 -0.2422  0.5484 -1.4251
  349MOL    C8649502   6.572   4.692   0.500 -0.4839  0.3440 -0.2929
  349MOL    C8749503   6.464   4.639   0.589  0.4914 -0.2589  0.1147
  349MOL    O8849504   6.349   4.604   0.506  0.2833  0.3229 -0.4544
  349MOL    H8949505   6.656   4.729   0.558  0.8155 -2.2213 -0.4413
  349MOL    H9049506   6.527   4.774   0.444  1.8869  1.6611 -0.3028
  349MOL    H9149507   6.444   4.709   0.670  0.4594  0.3714 -0.4405
  349MOL    H9249508   6.500   4.551   0.643 -0.5394 -0.1245  1.0325
  349MOL    C9349509   6.255   4.702   0.482  0.5271  0.0684 -0.0909
  349MOL    C9449510   6.133   4.641   0.417  0.2051  0.4908 -0.2770
  349MOL    O9549511   6.166   4.632   0.274  0.1846  0.1852 -0.3923
  349MOL    H9649512   6.235   4.744   0.581  0.6067 -0.4941  0.1640
  349MOL    H9749513   6.299   4.777   0.416  0.1364  1.1448  0.8579
  349MOL    H9849514   6.043   4.697   0.441 -1.6930 -3.6016  2.7611
  349MOL    H9949515   6.105   4.546   0.464 -3.0929  1.4212 -0.2577
  349MOL   C10049516   6.060   4.576   0.196 -0.4111  0.5294  0.3081
  349MOL   C10149517   6.052   4.639   0.051 -0.8850  0.6059 -0.5520
  349MOL   O10249518   5.974   4.758   0.058  0.1357  0.0901 -0.1667
  349MOL   H10349519   6.077   4.469   0.182  0.4939  0.8320 -1.0440
  349MOL   H10449520   5.964   4.585   0.245 -1.5444 -2.0202 -1.3519
  349MOL   H10549521   6.007   4.568   7.752  0.1371 -0.7448  0.1260
  349MOL   H10649522   6.148   4.660   0.005  0.1559 -1.4286  0.6062
  349MOL   C10749523   5.930   4.812   7.705 -0.4230  0.2868  0.2232
  349MOL   C10849524   6.047   4.891   7.630 -0.5200 -0.6976 -0.0894
  349MOL   O10949525   6.123   4.799   7.553 -0.1738 -0.0789 -0.0111
  349MOL   H11049526   5.874   4.738   7.647  1.8074 -1.4732  0.2430
  349MOL   H11149527   5.846   4.873   7.739 -0.1563 -0.2833  1.9825
  349MOL   H11249528   6.118   4.943   7.695 -0.9596  0.3423 -0.4442
  349MOL   H11349529   5.993   4.963   7.568  0.1938 -0.3869 -0.3586
  349MOL   C11449530   6.204   4.859   7.455  0.2836 -0.3205  0.0452
  349MOL   C11549531   6.316   4.765   7.417 -0.0434  0.9088 -0.0106
  349MOL   O11649532   6.256   4.641   7.368 -0.1683 -0.3374  0.0829
  349MOL   H11749533   6.147   4.890   7.368  1.2318 -1.4697 -1.0008
  349MOL   H11849534   6.238   4.955   7.495  0.4007  0.5819 -2.1649
  349MOL   H11949535   6.384   4.742   7.499  0.6475 -1.9271 -1.3405
  349MOL   H12049536   6.376   4.802   7.334 -1.5620  1.2642 -0.9807
  349MOL   C12149537   6.340   4.559   7.289 -1.5512 -0.3777 -0.4636
  349MOL   C12249538   6.418   4.457   7.385  0.2791 -0.5179 -0.4263
  349MOL   O12349539   6.537   4.521   7.431 -0.0758  0.1155 -0.2695
  349MOL   H12449540   6.265   4.493   7.246  0.6100 -3.3509  0.1837
  349MOL   H12549541   6.399   4.617   7.218 -0.5090  0.1087  0.7989
  349MOL   H12649542   6.457   4.372   7.330 -0.4551  0.5877 -2.6962
  349MOL   H12749543   6.357   4.411   7.463  0.8191  1.4748  1.2277
  349MOL   C12849544   6.594   4.459   7.549 -0.1615 -0.3371  0.4385
  349MOL   C12949545   6.542   4.512   7.680  0.1797  0.5912 -0.1078
  349MOL   O13049546   6.491   4.409   7.755 -0.5708 -0.1296  0.2327
  349MOL   H13149547   6.602   4.350   7.548  2.2452 -0.1913  1.3838
  349MOL   H13249548   6.695   4.499   7.551  0.2944 -1.4455  0.1673
  349MOL   H13349549   6.463   4.585   7.660 -0.4692 -0.3138 -0.9150
  349MOL   H13449550   6.620   4.563   7.736  2.3486  0.8445 -3.2534
  349MOL   C13549551   6.432   4.461   0.107 -0.7590  0.1511 -0.0434
  349MOL   C13649552   6.357   4.341   0.159 -0.0811 -0.1694  0.0196
  349MOL   O13749553   6.261   4.296   0.067 -1.1246 -0.4337 -0.1945
  349MOL   H13849554   6.508   4.495   0.176  1.0264 -2.4586 -0.6248
  349MOL   H13949555   6.352   4.531   0.085  0.4295  1.3338 -0.6919
  349MOL   H14049556   6.312   4.373   0.253  3.6045  1.1837  1.4378
  349MOL   H14149557   6.422   4.259   0.189 -0.2471 -0.5752 -0.7297
  349MOL   H14249558   6.304   4.250   7.767 -0.9015 -0.8556  0.2062
  350MOL     C149559   0.756   3.183   5.392  0.3468 -0.0206 -0.1277
  350MOL     C249560   0.691   3.068   5.475 -0.0886 -0.4946  0.0799
  350MOL     O349561   0.605   2.994   5.392  0.1744 -0.0016  0.2399
  350MOL     H449562   0.823   3.236   5.459  2.1980 -0.0397 -1.9310
  350MOL     H549563   0.678   3.246   5.349 -0.1087 -0.6380 -0.2303
  350MOL     H649564   0.638   3.116   5.557  0.4520  1.7639 -0.8485
  350MOL     H749565   0.767   3.004   5.519  1.5959  1.6885  0.4759
  350MOL     H849566   0.821   3.160   5.307  1.7501  0.3747  0.8282
  350MOL     C949567   0.548   2.886   5.458 -0.2320 -0.1286 -0.8148
  350MOL    C1049568   0.425   2.819   5.389 -0.1239  0.2273  0.2497
  350MOL    O1149569   0.316   2.907   5.375  0.1596  0.1613 -0.1588
  350MOL    H1249570   0.626   2.812   5.479  0.6367  0.4185 -2.0803
  350MOL    H1349571   0.514   2.927   5.554 -2.5560 -1.3126 -1.1064
  350MOL    H1449572   0.405   2.728   5.445  1.5628 -0.0823  0.3725
  350MOL    H1549573   0.449   2.780   5.290  0.8700 -0.0283  0.5844
  350MOL    C1649574   0.203   2.838   5.316  0.2782 -0.5728  0.9532
  350MOL    C1749575   0.096   2.927   5.269 -0.2555  0.0517  0.1050
  350MOL    O1849576   7.760   2.954   5.366 -0.0900 -0.0426  0.1501
  350MOL    H1949577   0.242   2.781   5.233  0.1353  0.0071  0.4852
  350MOL    H2049578   0.160   2.775   5.394  1.4942 -2.6514 -0.0199
  350MOL    H2149579   0.047   2.880   5.184  0.3524 -0.2660 -0.0732
  350MOL    H2249580   0.148   3.013   5.227  0.9423 -0.8329 -0.2613
  350MOL    C2349581   7.641   2.999   5.301 -0.0463 -0.0135  0.1834
  350MOL    C2449582   7.539   3.062   5.399  0.4803  0.4373  0.5958
  350MOL    O2549583   7.609   3.161   5.475 -0.2456  0.3695  0.2913
  350MOL    H2649584   7.687   3.075   5.237 -0.8683 -0.1092 -0.5297
  350MOL    H2749585   7.590   2.920   5.245  0.3287 -0.1032 -0.0329
  350MOL    H2849586   7.488   2.994   5.468  0.3508 -1.5882 -1.4401
  350MOL    H2949587   7.457   3.103   5.340  1.4228 -0.4771 -1.3945
  350MOL    C3049588   7.523   3.242   5.560 -0.0571 -0.2045  0.2537
  350MOL    C3149589   7.450   3.354   5.488 -0.0364 -0.7473 -0.5172
  350MOL    O3249590   7.347   3.299   5.412  0.0551 -0.3613  0.9411
  350MOL    H3349591   7.448   3.178   5.606  0.6990  0.0729  1.9201
  350MOL    H3449592   7.589   3.290   5.633 -0.4267  0.7507 -0.0398
  350MOL    H3549593   7.522   3.414   5.433  2.7307 -0.8346  2.8227
  350MOL    H3649594   7.391   3.417   5.554 -0.4810 -2.1811  0.4886
  350MOL    C3749595   7.310   3.377   5.298  0.2392  0.2859  0.3714
  350MOL    C3849596   7.250   3.512   5.343 -0.6060  0.5993  1.4741
  350MOL    O3949597   7.187   3.581   5.235 -0.6114  0.1559 -0.0379
  350MOL    H4049598   7.397   3.399   5.235  0.8520 -0.1505  1.0566
  350MOL    H4149599   7.254   3.322   5.223  0.7012  0.8809 -0.4198
  350MOL    H4249600   7.334   3.561   5.392  0.1369  2.9404 -1.9653
  350MOL    H4349601   7.183   3.496   5.427 -0.7207 -0.3673  1.2020
  350MOL    C4449602   7.104   3.680   5.277 -0.4779 -0.1953 -0.3112
  350MOL    C4549603   7.072   3.764   5.160  0.6795 -0.3461 -0.2773
  350MOL    O4649604   7.105   3.898   5.189  0.3955 -0.1173  0.5344
  350MOL    H4749605   7.018   3.647   5.335  0.5766 -0.3574  1.2158
  350MOL    H4849606   7.158   3.744   5.347 -0.7890  1.1159 -1.2707
  350MOL    H4949607   6.965   3.749   5.142  0.4398  1.5036 -0.5180
  350MOL    H5049608   7.123   3.728   5.071  0.7963  1.0749 -0.7920
  350MOL    C5149609   7.015   3.967   5.263  0.2371 -0.4876  0.3645
  350MOL    C5249610   7.076   4.109   5.276  0.5218  0.6262 -0.5779
  350MOL    O5349611   7.069   4.186   5.157  0.9071 -0.0144 -0.0981
  350MOL    H5449612   6.915   3.971   5.219  0.4960  0.0526 -0.1825
  350MOL    H5549613   7.011   3.918   5.360 -2.1078 -1.4038 -0.1575
  350MOL    H5649614   7.177   4.103   5.318 -0.3036  2.4148  1.7651
  350MOL    H5749615   7.019   4.157   5.356 -3.4600 -2.4448 -1.3714
  350MOL    C5849616   7.162   4.294   5.161  0.0677 -0.3011 -0.6227
  350MOL    C5949617   7.132   4.407   5.065  0.3223  0.1273  0.0860
  350MOL    O6049618   7.013   4.486   5.106  0.1173  0.5300  0.2892
  350MOL    H6149619   7.146   4.333   5.262  4.2020 -0.5904  0.2306
  350MOL    H6249620   7.262   4.253   5.146  0.1160 -0.7120  0.7530
  350MOL    H6349621   7.104   4.349   4.978 -1.2774  0.6781  0.2087
  350MOL    H6449622   7.226   4.458   5.045  0.4468  0.6926  1.9824
  350MOL    C6549623   7.002   4.606   5.033 -0.5279  0.5176 -0.6893
  350MOL    C6649624   6.895   4.684   5.102  0.0150  0.0625  0.3706
  350MOL    O6749625   6.920   4.716   5.242  0.1391 -0.4008  0.6465
  350MOL    H6849626   7.094   4.664   5.037  0.3898 -0.6295 -3.5449
  350MOL    H6949627   6.967   4.588   4.931  1.0340 -3.6300 -0.5767
  350MOL    H7049628   6.796   4.639   5.090 -0.9036  1.7132  1.4939
  350MOL    H7149629   6.894   4.778   5.047 -0.0537 -2.3764 -4.0250
  350MOL    C7249630   6.840   4.824   5.292  0.1086 -0.0027  0.7014
  350MOL    C7349631   6.880   4.873   5.435 -0.4778 -0.5605 -0.0738
  350MOL    O7449632   6.770   4.938   5.500 -0.0059  0.0207  0.6707
  350MOL    H7549633   6.844   4.915   5.232 -0.6302 -0.5569 -0.2091
  350MOL    H7649634   6.735   4.793   5.286  0.4477 -1.0430  0.0765
  350MOL    H7749635   6.970   4.934   5.435 -0.1285 -0.9593  3.6930
  350MOL    H7849636   6.904   4.785   5.494 -2.9841 -2.1482 -1.3422
  350MOL    C7949637   6.791   4.959   5.636 -0.5547  1.1225 -0.4688
  350MOL    C8049638   6.661   4.997   5.709  0.1877 -0.1549 -0.1132
  350MOL    O8149639   6.670   5.016   5.847  0.5567 -0.0080 -0.2355
  350MOL    H8249640   6.826   4.872   5.691 -1.1106  1.1734 -0.0361
  350MOL    H8349641   6.857   5.045   5.630 -0.4510  1.0189 -0.8546
  350MOL    H8449642   6.587   4.920   5.689 -0.6234  0.9348 -1.3552
  350MOL    H8549643   6.622   5.086   5.660 -3.7358 -0.8854  1.4753
  350MOL    C8649644   6.564   5.091   5.902  0.5200  0.3810 -0.3852
  350MOL    C8749645   6.594   5.116   6.058 -0.5300  0.2485  0.2946
  350MOL    O8849646   6.587   4.995   6.131 -0.6017  0.2241  0.8559
  350MOL    H8949647   6.542   5.180   5.843 -0.5044 -1.0956 -2.2827
  350MOL    H9049648   6.475   5.028   5.902  2.3462 -2.2741  0.1654
  350MOL    H9149649   6.516   5.175   6.107 -0.3377 -0.5565  1.5904
  350MOL    H9249650   6.689   5.169   6.066 -0.1124 -0.2967 -0.9649
  350MOL    C9349651   6.705   4.924   6.133 -0.2364  0.4568 -0.3101
  350MOL    C9449652   6.720   4.865   6.279 -0.3847  0.3101 -0.1247
  350MOL    O9549653   6.633   4.753   6.311 -0.3611 -0.1536 -0.3750
  350MOL    H9649654   6.716   4.851   6.053  1.3693 -0.1682  0.4469
  350MOL    H9749655   6.790   4.992   6.135 -0.7343  1.0772  2.6095
  350MOL    H9849656   6.706   4.943   6.353 -1.2935 -0.7525  0.8323
  350MOL    H9949657   6.822   4.826   6.277 -1.0320 -1.3928 -1.4038
  350MOL   C10049658   6.623   4.729   6.450 -0.4038  0.5206 -0.3747
  350MOL   C10149659   6.737   4.638   6.504 -0.0969 -0.0743  0.0654
  350MOL   O10249660   6.850   4.719   6.501  0.2167  0.0657  0.2039
  350MOL   H10349661   6.625   4.822   6.506 -0.0713 -0.6237  1.5793
  350MOL   H10449662   6.529   4.680   6.476  0.1467  0.5825  1.8189
  350MOL   H10549663   6.756   4.552   6.440 -2.5288 -0.4958 -0.1533
  350MOL   H10649664   6.723   4.609   6.609  0.9854  2.2758  0.8916
  350MOL   C10749665   6.965   4.654   6.555  0.3860  0.3018  0.8919
  350MOL   C10849666   7.053   4.574   6.453 -0.2328  0.5637  0.2011
  350MOL   O10949667   7.091   4.649   6.341  0.3442  0.1703 -0.0312
  350MOL   H11049668   7.010   4.743   6.599  0.8122  0.4624  0.1495
  350MOL   H11149669   6.950   4.591   6.642 -1.6644  2.1658  1.9150
  350MOL   H11249670   6.992   4.494   6.411  0.3632 -0.5363  1.3693
  350MOL   H11349671   7.139   4.536   6.508  0.1513  0.6248 -0.3639
  350MOL   C11449672   7.192   4.743   6.360 -0.7044 -0.3029 -0.0083
  350MOL   C11549673   7.254   4.794   6.223  0.6673  0.1143  0.3547
  350MOL   O11649674   7.168   4.880   6.145 -0.5977 -0.1283 -0.0914
  350MOL   H11749675   7.171   4.825   6.428  0.7465 -0.0035  0.0884
  350MOL   H11849676   7.274   4.692   6.411 -0.1601  0.4785 -0.1068
  350MOL   H11949677   7.286   4.704   6.171 -1.8004 -0.4641 -0.2143
  350MOL   H12049678   7.350   4.846   6.228 -0.8174  3.1475 -1.4196
  350MOL   C12149679   7.184   4.891   6.006  0.0979  0.3295 -0.7208
  350MOL   C12249680   7.067   4.971   5.943 -0.0644 -0.0035  0.0956
  350MOL   O12349681   7.067   5.102   5.988 -0.5048  0.5662  0.1702
  350MOL   H12449682   7.286   4.920   5.982  0.0680  1.8560  0.8848
  350MOL   H12549683   7.182   4.790   5.964  2.3363 -0.3740  0.7526
  350MOL   H12649684   6.969   4.925   5.955 -0.1102 -0.5481 -2.1479
  350MOL   H12749685   7.072   4.967   5.834 -2.7199  1.7734 -0.1414
  350MOL   C12849686   6.980   5.188   5.925  0.5633 -1.3048 -0.3722
  350MOL   C12949687   7.061   5.295   5.847 -0.3872  0.3547 -0.6424
  350MOL   O13049688   7.113   5.244   5.722 -0.4371 -0.1940  0.2549
  350MOL   H13149689   6.918   5.140   5.849 -2.5201  0.5191  0.8865
  350MOL   H13249690   6.922   5.238   6.003  2.5594  0.2413  0.1472
  350MOL   H13349691   7.137   5.339   5.913 -0.0322 -1.0471 -0.0960
  350MOL   H13449692   6.994   5.378   5.826 -1.3577 -0.1392  0.4506
  350MOL   C13549693   7.211   5.319   5.657 -0.3972  0.4311  0.3423
  350MOL   C13649694   7.273   5.228   5.543  0.8862 -0.8324  0.3588
  350MOL   O13749695   7.182   5.190   5.446  0.1326  0.1007 -0.5530
  350MOL   H13849696   7.161   5.399   5.603  0.1025  2.7401  3.1905
  350MOL   H13949697   7.290   5.349   5.725  0.5095  1.5934 -1.1776
  350MOL   H14049698   7.309   5.135   5.588  1.0263  0.6004  3.3405
  350MOL   H14149699   7.360   5.276   5.499  0.0749  0.2754 -0.0855
  350MOL   H14249700   7.125   5.135   5.498 -0.0213  1.3628  0.6205
  351MOL     C149701   1.203   1.292   0.445  0.7776 -0.7283 -0.0629
  351MOL     C249702   1.045   1.285   0.433  0.9817 -0.2368  0.0772
  351MOL     O349703   1.003   1.156   0.465 -0.1258 -0.6148 -0.2082
  351MOL     H449704   1.257   1.246   0.362 -0.2754 -1.0362 -0.5763
  351MOL     H549705   1.240   1.263   0.544  0.9316  1.7947  0.6438
  351MOL     H649706   1.016   1.314   0.332  1.3479  2.3380  0.6792
  351MOL     H749707   1.008   1.351   0.512  1.5054  1.8273 -1.3395
  351MOL     H849708   1.235   1.396   0.441 -0.7753 -0.2301  0.3357
  351MOL     C949709   0.862   1.138   0.447  0.5854 -0.0649 -0.3866
  351MOL    C1049710   0.819   0.998   0.475  0.4560 -0.3820 -0.2777
  351MOL    O1149711   0.692   1.000   0.427 -0.0826  0.1277  0.2664
  351MOL    H1249712   0.801   1.209   0.504 -0.5907  1.7168 -3.7305
  351MOL    H1349713   0.837   1.166   0.345 -1.6389 -0.2007  0.1018
  351MOL    H1449714   0.817   0.982   0.583  1.4680  2.0997  0.1555
  351MOL    H1549715   0.876   0.927   0.415  0.0129  0.5501 -1.8250
  351MOL    C1649716   0.609   0.894   0.468 -0.2296  0.1310  0.3517
  351MOL    C1749717   0.474   0.897   0.402  0.0666 -0.1505 -0.3171
  351MOL    O1849718   0.390   0.791   0.453 -0.0715  0.2719 -0.1737
  351MOL    H1949719   0.658   0.799   0.444 -1.3416 -0.2088 -0.6255
  351MOL    H2049720   0.603   0.897   0.577  1.9881  0.3998  0.4876
  351MOL    H2149721   0.471   0.890   0.293  2.2041 -0.9605 -0.3327
  351MOL    H2249722   0.421   0.988   0.431 -1.0078 -1.7528  2.9234
  351MOL    C2349723   0.270   0.759   0.381 -0.3936 -0.1398  0.7920
  351MOL    C2449724   0.174   0.881   0.370  0.1131 -0.6032 -0.5961
  351MOL    O2549725   0.214   0.970   0.265 -0.1592 -0.3344 -0.2041
  351MOL    H2649726   0.291   0.718   0.282 -2.4272  0.4165  0.1166
  351MOL    H2749727   0.222   0.677   0.434 -0.1053 -0.8006  0.0405
  351MOL    H2849728   0.165   0.942   0.460 -2.3352 -2.5396  0.5259
  351MOL    H2949729   0.073   0.845   0.349 -0.3144  0.1635  0.0906
  351MOL    C3049730   0.162   1.100   0.270 -0.1928 -0.5953  0.4834
  351MOL    C3149731   0.114   1.143   0.133  0.1224 -0.7067 -0.5616
  351MOL    O3249732   7.756   1.091   0.111  0.2226  0.3677  0.2251
  351MOL    H3349733   0.096   1.120   0.355 -0.4267 -1.6793  0.5630
  351MOL    H3449734   0.258   1.149   0.285 -0.1626 -0.1997 -0.9029
  351MOL    H3549735   0.178   1.118   0.049  0.3853 -1.2741 -0.1998
  351MOL    H3649736   0.118   1.251   0.121  2.2853 -0.7445 -0.3095
  351MOL    C3749737   7.686   1.126   7.758  0.6017  0.1020 -0.1550
  351MOL    C3849738   7.546   1.065   0.008  0.7241 -0.3417  0.0481
  351MOL    O3949739   7.470   1.159   0.085  0.1178  0.4901 -0.2498
  351MOL    H4049740   7.674   1.233   7.742 -0.6937 -0.1768 -1.1213
  351MOL    H4149741   7.735   1.080   7.673  0.8972 -0.8704  0.5351
  351MOL    H4249742   7.561   0.970   0.059  1.4346 -0.2961 -0.0716
  351MOL    H4349743   7.496   1.048   7.683  0.0001 -1.1830  0.5635
  351MOL    C4449744   7.332   1.124   0.079  0.4916 -0.3464  0.2244
  351MOL    C4549745   7.246   1.234   0.142  0.0565 -0.3428 -0.4321
  351MOL    O4649746   7.261   1.217   0.280  0.5144 -0.9065  0.4276
  351MOL    H4749747   7.313   1.108   7.744 -0.2873  0.5903  0.2260
  351MOL    H4849748   7.298   1.028   0.119 -0.9442  0.7303  1.5934
  351MOL    H4949749   7.140   1.230   0.117  0.3924 -1.5440 -1.7613
  351MOL    H5049750   7.278   1.331   0.105 -0.8356  0.7263  1.5180
  351MOL    C5149751   7.197   1.330   0.345 -0.1702  0.2678  0.0679
  351MOL    C5249752   7.233   1.305   0.500 -0.2884  0.5646 -0.1383
  351MOL    O5349753   7.368   1.341   0.515  0.5816 -0.1867 -0.4648
  351MOL    H5449754   7.234   1.425   0.306 -1.2379  1.0456  0.8871
  351MOL    H5549755   7.088   1.326   0.333  0.0639 -0.1589 -1.9597
  351MOL    H5649756   7.211   1.199   0.516  1.9747  0.4027  2.1292
  351MOL    H5749757   7.168   1.358   0.569 -2.3486 -0.4002 -1.2651
  351MOL    C5849758   7.413   1.392   0.641  0.5090 -0.4118 -0.7010
  351MOL    C5949759   7.532   1.488   0.627 -0.3797 -0.2245  0.5066
  351MOL    O6049760   7.571   1.553   0.743 -0.6018 -0.4212 -0.0514
  351MOL    H6149761   7.333   1.447   0.691  0.7568 -3.0114  2.7491
  351MOL    H6249762   7.446   1.310   0.705 -0.3472 -0.5349 -0.4119
  351MOL    H6349763   7.495   1.557   0.551 -0.7659 -1.3142 -0.3122
  351MOL    H6449764   7.612   1.438   0.573 -0.4130 -1.3723  1.5113
  351MOL    C6549765   7.678   1.651   0.723  0.0255 -0.0125  0.1773
  351MOL    C6649766   7.710   1.720   0.857 -0.4352 -0.5632  0.4117
  351MOL    O6749767   7.611   1.824   0.877  0.2402  0.6159  0.1453
  351MOL    H6849768   7.764   1.594   0.686 -1.3131 -1.3867 -0.8975
  351MOL    H6949769   7.658   1.727   0.648 -0.2470  0.5372  0.8051
  351MOL    H7049770   0.039   1.761   0.854 -0.2197 -1.1892 -1.5746
  351MOL    H7149771   7.703   1.655   0.945  0.5992 -2.7169 -1.0416
  351MOL    C7249772   7.622   1.902   0.993 -0.0726  0.0699 -0.3744
  351MOL    C7349773   7.542   2.031   0.962 -0.1005 -0.2707  0.1248
  351MOL    O7449774   7.631   2.118   0.889 -0.0838 -0.0211 -0.2248
  351MOL    H7549775   7.579   1.853   1.081  0.5873 -0.8905 -0.5810
  351MOL    H7649776   7.725   1.935   1.002  0.2313 -0.0800 -2.9624
  351MOL    H7749777   7.494   2.085   1.043  2.0619  1.4416  0.2899
  351MOL    H7849778   7.464   2.009   0.889 -0.0461  3.5371 -1.1801
  351MOL    C7949779   7.711   2.196   0.985  0.7608 -0.9108 -0.1945
  351MOL    C8049780   0.041   2.258   0.895  0.0162 -0.3991  0.2359
  351MOL    O8149781   7.762   2.386   0.848 -0.4139  0.1259 -0.6336
  351MOL    H8249782   7.650   2.274   1.030 -0.2696 -0.8898 -1.5767
  351MOL    H8349783   7.768   2.151   1.066  0.5858  0.8152  0.9051
  351MOL    H8449784   0.061   2.209   0.800  2.2058  0.4173  0.2511
  351MOL    H8549785   0.133   2.264   0.953 -0.4030 -1.0789  0.9714
  351MOL    C8649786   0.102   2.465   0.797  0.6759 -0.6677  0.5408
  351MOL    C8749787   0.047   2.600   0.757  0.0459  0.4168  0.9690
  351MOL    O8849788   0.157   2.686   0.723 -0.4484  0.5092 -0.2740
  351MOL    H8949789   0.190   2.468   0.861  0.6317 -3.3421  0.7894
  351MOL    H9049790   0.138   2.408   0.711  1.2946  1.1957 -0.4612
  351MOL    H9149791   7.764   2.644   0.840  1.7496  2.0228  1.2562
  351MOL    H9249792   7.747   2.598   0.674 -0.0367  1.1092  1.0264
  351MOL    C9349793   0.113   2.819   0.686  0.6488  0.4288  0.3320
  351MOL    C9449794   0.088   2.893   0.818  0.3111  0.4972  0.3584
  351MOL    O9549795   7.717   2.886   0.843 -0.0345 -0.3718 -0.9085
  351MOL    H9649796   0.183   2.877   0.626  0.8228 -0.6481 -0.5045
  351MOL    H9749797   0.023   2.815   0.624  0.7043 -1.0770  0.3240
  351MOL    H9849798   0.125   2.995   0.807  1.5686  0.0319  0.1799
  351MOL    H9949799   0.148   2.858   0.902  2.3718  0.8024 -0.9479
  351MOL   C10049800   7.674   2.937   0.966 -0.7467 -0.8117  0.2742
  351MOL   C10149801   7.531   2.905   0.998  0.2642 -0.0408  0.0847
  351MOL   O10249802   7.526   2.783   1.067 -0.3115  0.4579 -0.2377
  351MOL   H10349803   7.742   2.908   1.046 -0.9812 -0.5346  0.5757
  351MOL   H10449804   7.689   3.044   0.980 -0.4212 -1.0589  1.9376
  351MOL   H10549805   7.482   2.910   0.901 -4.3656  0.5705  2.2945
  351MOL   H10649806   7.487   2.978   1.066 -1.6400 -2.0172  1.0134
  351MOL   C10749807   7.409   2.707   1.029  0.1354  0.5352  0.1572
  351MOL   C10849808   7.404   2.573   1.103 -0.7942 -0.1968  0.2766
  351MOL   O10949809   7.387   2.616   1.237  0.2520 -0.2544  0.1324
  351MOL   H11049810   7.320   2.764   1.054 -1.6704 -1.7482 -0.9423
  351MOL   H11149811   7.410   2.690   0.922 -0.2370 -1.2279  0.4339
  351MOL   H11249812   7.495   2.513   1.097  0.0079  1.0200  0.0725
  351MOL   H11349813   7.317   2.514   1.072  0.4657 -0.9294 -2.0149
  351MOL   C11449814   7.401   2.523   1.336 -0.1211  0.8614  0.2064
  351MOL   C11549815   7.268   2.452   1.363  0.9541 -0.1596  0.5332
  351MOL   O11649816   7.260   2.338   1.270 -0.3603  0.4163  0.2683
  351MOL   H11749817   7.487   2.457   1.325 -1.1588 -0.2040 -1.8189
  351MOL   H11849818   7.426   2.567   1.433 -0.2587 -1.9639  1.5657
  351MOL   H11949819   7.183   2.519   1.352 -0.5143 -1.7062  2.2032
  351MOL   H12049820   7.266   2.411   1.464  0.2212 -0.0184  0.5756
  351MOL   C12149821   7.150   2.257   1.289 -0.5835  0.5755  0.6499
  351MOL   C12249822   7.153   2.148   1.192  0.1666 -0.7833  0.1319
  351MOL   O12349823   7.139   2.198   1.060 -0.2051 -0.0510 -0.4115
  351MOL   H12449824   7.156   2.215   1.390 -0.9198 -1.5392 -0.1823
  351MOL   H12549825   7.058   2.314   1.282 -0.7391  0.1080 -1.2927
  351MOL   H12649826   7.082   2.072   1.224  0.2636 -1.1808 -0.6024
  351MOL   H12749827   7.256   2.112   1.204  1.0032  0.7932 -2.0568
  351MOL   C12849828   7.162   2.100   0.963  0.5645  0.9040 -1.0649
  351MOL   C12949829   7.147   2.163   0.831 -0.4935 -0.5050 -0.6207
  351MOL   O13049830   7.011   2.181   0.806 -0.6136  0.1284  0.1374
  351MOL   H13149831   7.260   2.052   0.971 -0.4419 -0.8432  1.5030
  351MOL   H13249832   7.088   2.020   0.971  0.6175  0.9655  0.0839
  351MOL   H13349833   7.186   2.102   0.749 -2.8898 -2.2749 -0.5109
  351MOL   H13449834   7.199   2.258   0.822 -0.7517 -0.6494 -4.3071
  351MOL   C13549835   6.968   2.312   0.838 -0.2129 -0.1120  0.3806
  351MOL   C13649836   6.827   2.329   0.794 -0.4814 -0.0210 -0.1086
  351MOL   O13749837   6.812   2.349   0.649 -0.1266  0.6038 -0.3144
  351MOL   H13849838   6.967   2.329   0.946  1.2190 -0.7538  0.5026
  351MOL   H13949839   7.015   2.397   0.789  0.2190  0.3570  1.6045
  351MOL   H14049840   6.791   2.421   0.838  0.5405 -0.8657  2.5559
  351MOL   H14149841   6.763   2.253   0.840  0.9360 -0.4317  1.1792
  351MOL   H14249842   6.864   2.276   0.617  0.6553  0.3085  1.5440
  352MOL     C149843   1.853   0.160   0.731 -0.1592  0.2244  0.8348
  352MOL     C249844   1.833   0.025   0.790 -1.3097 -0.2248  0.8040
  352MOL     O349845   1.823   7.700   0.681 -0.0561  0.3710 -0.2117
  352MOL     H449846   1.852   0.229   0.815 -0.6959 -0.1548  1.1451
  352MOL     H549847   1.767   0.180   0.667  1.0825 -1.5816 -1.5084
  352MOL     H649848   1.749   0.022   0.861 -1.1485 -0.0745  1.0021
  352MOL     H749849   1.922   0.010   0.851 -0.3647  0.3405 -0.4227
  352MOL     H849850   1.938   0.166   0.663 -0.8660 -1.0706 -0.2053
  352MOL     C949851   1.831   7.573   0.731 -0.2470 -0.5771  0.3141
  352MOL    C1049852   1.862   7.478   0.616  0.6104  0.3350 -0.0311
  352MOL    O1149853   2.004   7.448   0.616 -0.1061 -0.0909 -0.2314
  352MOL    H1249854   1.913   7.562   0.802  1.4908  0.9930 -1.4194
  352MOL    H1349855   1.737   7.563   0.786  0.2300 -1.3185  1.0096
  352MOL    H1449856   1.827   7.518   0.521 -2.0491  1.0429  1.2084
  352MOL    H1549857   1.796   7.397   0.646 -0.1990  0.7026 -0.8274
  352MOL    C1649858   2.037   7.353   0.522 -0.4283  0.3214  0.1572
  352MOL    C1749859   2.004   7.380   0.374  0.0709 -0.0259  0.7818
  352MOL    O1849860   1.873   7.335   0.343  0.5240  0.4406 -0.3294
  352MOL    H1949861   2.146   7.352   0.525 -0.3925  1.2893 -0.5097
  352MOL    H2049862   1.999   7.256   0.554  0.1869  0.2730  0.7426
  352MOL    H2149863   2.071   7.323   0.309 -0.3992  0.1167  0.1718
  352MOL    H2249864   2.005   7.488   0.356  0.5820  0.3464  2.8901
  352MOL    C2349865   1.812   7.399   0.230  0.5074 -0.4573 -0.6028
  352MOL    C2449866   1.697   7.312   0.181 -0.3075 -0.1538  0.4607
  352MOL    O2549867   1.573   7.339   0.242 -0.2639 -0.2891  0.0517
  352MOL    H2649868   1.770   7.497   0.251  1.7476  0.1757 -1.0399
  352MOL    H2749869   1.886   7.403   0.150  0.6017 -1.3976 -0.5668
  352MOL    H2849870   1.723   7.206   0.178 -0.3660 -0.1332 -4.4594
  352MOL    H2949871   1.680   7.341   0.077  0.6844  1.5405  0.7445
  352MOL    C3049872   1.563   7.281   0.367  0.0097 -0.8341  0.2474
  352MOL    C3149873   1.535   7.129   0.371  0.5925 -0.0093 -0.7766
  352MOL    O3249874   1.417   7.093   0.302  0.0016 -0.3065 -0.0508
  352MOL    H3349875   1.649   7.310   0.427 -0.2842 -1.9764  1.2499
  352MOL    H3449876   1.480   7.329   0.418  0.5945 -0.0774  0.4887
  352MOL    H3549877   1.525   7.108   0.478 -0.9021 -1.4173 -1.1784
  352MOL    H3649878   1.623   7.078   0.331 -0.2898  0.3536 -3.2158
  352MOL    C3749879   1.399   6.958   0.273  0.6288  0.5123  0.3991
  352MOL    C3849880   1.334   6.881   0.390 -0.4764 -0.0713  0.0471
  352MOL    O3949881   1.440   6.847   0.474  0.1228 -0.3202  0.4328
  352MOL    H4049882   1.329   6.945   0.191  1.0753  2.7244 -0.3473
  352MOL    H4149883   1.496   6.913   0.253 -0.3029 -0.8560 -1.1874
  352MOL    H4249884   1.292   6.789   0.349 -0.8860  0.2868 -0.3437
  352MOL    H4349885   1.259   6.943   0.439  0.5319  0.7416  0.5644
  352MOL    C4449886   1.404   6.779   0.589  0.5413  0.6360  0.3266
  352MOL    C4549887   1.525   6.725   0.669 -0.4294  0.3046 -0.1555
  352MOL    O4649888   1.500   6.618   0.767 -0.3946 -0.6130 -0.0670
  352MOL    H4749889   1.349   6.843   0.658  0.8063  1.3679 -0.1405
  352MOL    H4849890   1.332   6.700   0.568 -0.7616  0.9606  3.2638
  352MOL    H4949891   1.580   6.801   0.725  0.5587  1.0141 -2.0261
  352MOL    H5049892   1.594   6.672   0.604  1.1113 -1.4398  2.8268
  352MOL    C5149893   1.515   6.673   0.902  0.6827 -0.7298 -0.0116
  352MOL    C5249894   1.473   6.558   0.993  0.3103  0.6798  0.6022
  352MOL    O5349895   1.329   6.538   1.026  0.4974  0.1372  0.2853
  352MOL    H5449896   1.621   6.697   0.916  0.4771 -1.0729  2.4141
  352MOL    H5549897   1.453   6.762   0.909  0.9742 -0.6338  1.8176
  352MOL    H5649898   1.509   6.574   1.095  2.5842 -0.1394 -0.0294
  352MOL    H5749899   1.509   6.463   0.955  0.1614  0.6305  0.5881
  352MOL    C5849900   1.243   6.535   0.908 -0.2157  0.0658 -0.2151
  352MOL    C5949901   1.090   6.513   0.948  0.5479 -0.5241  0.1790
  352MOL    O6049902   1.007   6.520   0.837  0.4685  0.2727  0.3885
  352MOL    H6149903   1.257   6.624   0.846 -3.3194 -1.4231 -3.1944
  352MOL    H6249904   1.279   6.443   0.861 -0.7137  0.4605 -1.3832
  352MOL    H6349905   1.065   6.589   1.022  4.6230  1.1564 -0.0133
  352MOL    H6449906   1.083   6.415   0.996 -0.2745 -0.3007  0.5137
  352MOL    C6549907   0.869   6.501   0.865 -0.0115  0.2968  0.2906
  352MOL    C6649908   0.779   6.504   0.745 -0.1967 -0.6749  0.4688
  352MOL    O6749909   0.739   6.381   0.700 -0.3417 -0.5624  0.5817
  352MOL    H6849910   0.860   6.399   0.902  0.9400 -0.2845 -1.0508
  352MOL    H6949911   0.827   6.563   0.945  0.1118 -0.9477  1.3424
  352MOL    H7049912   0.824   6.551   0.657  0.6408 -0.9844  0.7276
  352MOL    H7149913   0.699   6.573   0.773  0.0949 -0.0719 -0.1676
  352MOL    C7249914   0.670   6.383   0.575  0.4080  0.3243 -0.7230
  352MOL    C7349915   0.518   6.408   0.610 -0.3011  0.1568 -0.4704
  352MOL    O7449916   0.499   6.545   0.643  0.1097  0.0058  0.3342
  352MOL    H7549917   0.709   6.454   0.502 -1.3865  1.9790 -0.1234
  352MOL    H7649918   0.672   6.282   0.535  0.7362 -0.2472  0.7121
  352MOL    H7749919   0.483   6.339   0.687  0.7628 -0.5210 -0.5667
  352MOL    H7849920   0.453   6.389   0.525 -0.3327  0.0845 -0.4303
  352MOL    C7949921   0.368   6.567   0.703 -0.2127 -0.4654  0.3169
  352MOL    C8049922   0.362   6.715   0.723 -0.4135  0.5491 -0.3010
  352MOL    O8149923   0.329   6.781   0.603 -0.0073 -0.3449 -0.3696
  352MOL    H8249924   0.290   6.522   0.641 -2.3672  1.3557  1.6080
  352MOL    H8349925   0.355   6.505   0.792 -2.9961 -1.5095 -0.7557
  352MOL    H8449926   0.460   6.754   0.751  1.2668 -3.2217 -0.5275
  352MOL    H8549927   0.289   6.744   0.799 -1.2877  1.2320 -1.4044
  352MOL    C8649928   0.328   6.920   0.617 -0.2520  0.5897 -0.6007
  352MOL    C8749929   0.294   6.972   0.474  0.5836 -0.4305  0.6056
  352MOL    O8849930   0.166   6.928   0.427  0.1047 -0.2477 -0.2830
  352MOL    H8949931   0.257   6.955   0.692  0.6487  1.7681 -0.2691
  352MOL    H9049932   0.429   6.949   0.648  0.1937 -1.2359 -0.2791
  352MOL    H9149933   0.373   6.937   0.406  0.5594 -2.1637  1.4231
  352MOL    H9249934   0.301   7.080   0.485  1.8325 -0.4344 -0.0633
  352MOL    C9349935   0.130   6.985   0.301 -0.4690  0.2460 -0.8473
  352MOL    C9449936   7.756   6.968   0.274  0.3897 -0.1901  0.1455
  352MOL    O9549937   7.735   6.828   0.249  0.4703  0.3060 -0.1883
  352MOL    H9649938   0.157   7.091   0.306 -1.4440  0.5671 -2.2170
  352MOL    H9749939   0.185   6.938   0.220 -3.1081 -1.4820 -1.6791
  352MOL    H9849940   7.736   7.022   0.182  1.7667  0.2334  0.0950
  352MOL    H9949941   7.694   7.004   0.356 -0.6175  2.7848 -1.8218
  352MOL   C10049942   7.596   6.787   0.246  0.1582  1.1767 -0.1764
  352MOL   C10149943   7.597   6.640   0.207 -0.2242  0.2881  0.3907
  352MOL   O10249944   7.630   6.602   0.068  0.0458 -0.3365 -0.2186
  352MOL   H10349945   7.549   6.791   0.344  1.1120 -0.1042  0.3566
  352MOL   H10449946   7.534   6.849   0.181  0.6762  1.4197 -0.4450
  352MOL   H10549947   7.500   6.592   0.224  0.2991 -0.5566  1.0318
  352MOL   H10649948   7.663   6.588   0.277 -0.0214 -0.7673 -0.5832
  352MOL   C10749949   7.755   6.663   0.028  0.1615  0.3329  0.3473
  352MOL   C10849950   0.045   6.586   7.682 -0.2550  1.8549  0.1963
  352MOL   O10949951   7.742   6.605   7.563 -0.2584 -0.2779 -0.1851
  352MOL   H11049952   7.729   6.763   7.765  1.1584  0.0059 -1.4506
  352MOL   H11149953   0.065   6.650   0.100  0.8100 -0.0087 -0.4330
  352MOL   H11249954   0.055   6.480   7.707 -0.2907  2.1389  1.4485
  352MOL   H11349955   0.148   6.614   7.664 -0.0868 -0.3453 -2.6888
  352MOL   C11449956   7.767   6.718   7.485 -0.2583  0.0944  0.4259
  352MOL   C11549957   7.698   6.711   7.346 -0.3634  0.4194 -0.4689
  352MOL   O11649958   7.758   6.801   7.250  0.1591 -0.9764 -0.4989
  352MOL   H11749959   7.732   6.805   7.540 -0.0915 -0.2342  1.0503
  352MOL   H11849960   0.104   6.720   7.470 -0.1909 -0.3403  0.8458
  352MOL   H11949961   7.591   6.723   7.365 -0.1929  2.5166 -0.7863
  352MOL   H12049962   7.710   6.611   7.304  0.4873 -1.0025  2.9756
  352MOL   C12149963   7.673   6.815   7.139 -0.2940  0.5481  0.3105
  352MOL   C12249964   7.707   6.941   7.058 -0.2744 -0.4521 -0.1245
  352MOL   O12349965   7.717   7.047   7.143 -0.3416  0.5610 -0.1163
  352MOL   H12449966   7.650   6.728   7.076 -1.7248  0.4006  1.0067
  352MOL   H12549967   7.572   6.824   7.180 -0.5478 -0.9851  0.0579
  352MOL   H12649968   7.626   6.968   6.989 -0.7256 -0.6641  0.3158
  352MOL   H12749969   0.018   6.939   6.987  1.4036  0.6103  1.7128
  352MOL   C12849970   0.073   7.116   7.139  0.0407  0.3240  1.0385
  352MOL   C12949971   0.072   7.237   7.230 -0.2414 -0.1574  0.3864
  352MOL   O13049972   7.747   7.228   7.335  0.0200 -0.0302  0.2064
  352MOL   H13149973   0.150   7.039   7.145 -1.7646 -1.3674  3.5033
  352MOL   H13249974   0.090   7.158   7.040 -0.7738  0.0564  0.7805
  352MOL   H13349975   0.025   7.315   7.170 -0.5347 -0.3831  0.3173
  352MOL   H13449976   0.166   7.270   7.273 -1.6470  3.0483  1.1304
  352MOL   C13549977   0.012   7.135   7.428 -0.1363 -0.2984  0.2000
  352MOL   C13649978   0.127   7.171   7.520  0.0191 -0.1216 -0.1828
  352MOL   O13749979   0.129   7.093   7.635  0.0264 -0.2781 -0.2426
  352MOL   H13849980   7.704   7.129   7.503 -1.8284  1.7410 -1.3856
  352MOL   H13949981   0.032   7.034   7.390  0.5717  0.2369 -0.8683
  352MOL   H14049982   0.124   7.275   7.552  4.0507 -0.3503  1.2252
  352MOL   H14149983   0.215   7.166   7.456 -0.9427 -0.3192 -1.5351
  352MOL   H14249984   0.214   7.107   7.672 -0.0841 -1.5338  0.5293
   7.77105   7.77105   7.77105
