Control file title. For DL_FIELD 4.10
49910
    1MOL     C1    1   7.461   7.903   4.705  0.3259  0.9039 -0.6043
    1MOL     C2    2   7.588   7.841   4.765 -0.0773 -0.2968  0.4179
    1MOL     C3    3   7.564   7.744   4.874  0.0680  0.5980  0.4569
    1MOL     C4    4   7.612   7.764   5.005  0.0828  1.2857  0.1225
    1MOL     C5    5   7.593   7.675   5.107 -0.0896 -0.3760 -0.2337
    1MOL     C6    6   7.513   7.560   5.081 -0.0221  0.6532  0.6349
    1MOL     C7    7   7.471   7.529   4.948  0.0450  0.2565 -0.2840
    1MOL     C8    8   7.499   7.620   4.843  0.0510  0.1578 -0.6351
    1MOL     H9    9   7.495   7.985   4.642  0.8507 -0.2201 -1.8228
    1MOL    H10   10   7.415   7.830   4.639  0.7684  0.5009 -0.4700
    1MOL    H11   11   7.648   7.920   4.811  0.7167 -1.5006  1.4712
    1MOL    H12   12   7.669   7.852   5.029 -0.0958  1.6252 -0.6760
    1MOL    H13   13   7.612   7.685   5.213 -0.3208 -1.2570 -0.1048
    1MOL    H14   14   7.489   7.488   5.157  1.2641 -0.3954  0.0740
    1MOL    H15   15   7.419   7.435   4.936  1.0461 -0.1361 -1.7647
    1MOL    H16   16   7.474   7.588   4.743 -1.3847 -2.4029  0.4991
    1MOL    H17   17   7.390   7.950   4.773 -1.6488 -1.5327 -0.8874
    1MOL    C18   18   7.695   7.791   4.656 -0.7410  0.6239  0.9953
    1MOL    C19   19   7.838   7.757   4.710  0.7080  0.0986 -0.3715
    1MOL    C20   20   7.916   7.666   4.618 -0.0611 -0.4069  0.3359
    1MOL    C21   21   8.003   7.575   4.680 -0.0964  0.5764 -0.3264
    1MOL    C22   22   8.068   7.482   4.595 -0.9094 -0.4350  0.3232
    1MOL    C23   23   8.062   7.482   4.455  0.6222  0.2412  0.1455
    1MOL    C24   24   7.977   7.570   4.392  0.2498  0.7014  0.0177
    1MOL    C25   25   7.903   7.661   4.470  1.2877  0.5638 -0.6778
    1MOL    H26   26   7.725   7.869   4.585 -0.4846  0.4325  0.8951
    1MOL    H27   27   7.663   7.716   4.583  0.9454 -0.5613  1.4485
    1MOL    H28   28   7.813   7.691   4.792 -3.0546  2.1211  0.2161
    1MOL    H29   29   8.012   7.567   4.787  1.2541  1.9045 -0.3386
    1MOL    H30   30   0.022   7.416   4.644  0.3662 -0.1523 -1.0733
    1MOL    H31   31   0.006   7.407   4.404  1.0833 -0.6528  1.9571
    1MOL    H32   32   7.967   7.565   4.285  1.2121 -0.5989 -0.0276
    1MOL    H33   33   7.841   7.742   4.436 -0.6014 -0.2822  0.6442
    1MOL    C34   34   7.925   7.873   4.773  0.3835 -0.4303 -0.2583
    1MOL    C35   35   8.019   7.948   4.673  0.3267 -0.2251 -0.3524
    1MOL    C36   36   7.955   8.059   4.595 -0.1357 -0.2503 -0.3232
    1MOL    C37   37   7.889   8.040   4.465 -0.5172  0.6964  0.0870
    1MOL    C38   38   7.813   0.024   4.399  0.4980 -0.1174  0.4574
    1MOL    C39   39   7.816   0.152   4.461  0.3345 -0.0999  0.1312
    1MOL    C40   40   7.881   0.179   4.584  0.0400 -0.1560 -0.0540
    1MOL    C41   41   7.946   0.073   4.653 -0.2389  0.0411 -0.1853
    1MOL    H42   42   7.980   7.826   4.855 -0.2076 -0.7936 -0.0706
    1MOL    H43   43   7.863   7.943   4.829  0.5248 -2.5138  2.6230
    1MOL    H44   44   8.053   7.884   4.591  0.8849  1.4005 -1.4201
    1MOL    H45   45   7.896   7.943   4.418 -2.4151 -0.3819  1.9388
    1MOL    H46   46   7.773   8.105   4.305  1.1022 -0.8898  0.4803
    1MOL    H47   47   7.762   0.237   4.425 -0.3678 -0.1010  1.1517
    1MOL    H48   48   7.873   0.275   4.632 -1.5475 -0.8669  1.1564
    1MOL    H49   49   7.993   0.098   4.747 -3.6049 -0.1446  1.6023
    1MOL    C50   50   0.027   7.997   4.758 -0.0243  0.8428  0.1990
    1MOL    C51   51   0.140   7.893   4.783  0.2941  0.2932 -0.1114
    1MOL    C52   52   0.235   7.878   4.665  0.1234  0.3471 -0.5628
    1MOL    C53   53   0.310   7.984   4.612  0.6445  0.0026 -0.3938
    1MOL    C54   54   0.389   7.967   4.503  0.0530 -0.2756  1.0736
    1MOL    C55   55   0.399   7.840   4.445  0.3811  0.8995 -0.8384
    1MOL    C56   56   0.324   7.735   4.491 -0.4037 -0.1499 -0.2400
    1MOL    C57   57   0.240   7.746   4.608  0.1470 -0.1856 -0.2323
    1MOL    H58   58   8.102   8.045   4.847  0.9274  1.7630  0.1382
    1MOL    H59   59   0.073   8.080   4.704  2.5601 -1.1413 -0.7285
    1MOL    H60   60   0.100   7.792   4.787  2.4152 -0.8972 -5.0788
    1MOL    H61   61   0.294   8.085   4.648 -0.3471 -1.0934  2.3751
    1MOL    H62   62   0.431   8.051   4.450  1.0008 -1.3242  0.1330
    1MOL    H63   63   0.457   7.819   4.356 -1.1071 -2.8287 -1.0115
    1MOL    H64   64   0.337   7.640   4.441  0.5788  0.0759 -0.4141
    1MOL    H65   65   0.184   7.663   4.647  0.2818 -0.0597  0.2322
    1MOL    C66   66   0.222   7.925   4.912 -0.3138 -0.1372  1.0429
    1MOL    C67   67   0.158   7.875   5.037  0.1889 -0.5059 -0.5106
    1MOL    C68   68   0.275   7.872   5.135 -0.0210  0.2510 -0.3331
    1MOL    C69   69   0.309   7.755   5.202  0.2588  0.1191  0.7194
    1MOL    C70   70   0.404   7.759   5.303 -0.6193 -0.0401 -0.3649
    1MOL    C71   71   0.476   7.877   5.332  0.2079 -0.3530 -0.2427
    1MOL    C72   72   0.451   7.992   5.261 -0.0041  0.2462 -0.5352
    1MOL    C73   73   0.361   7.987   5.157 -0.1995  0.1892 -0.1781
    1MOL    H74   74   0.227   8.034   4.910 -1.8164 -0.0542 -2.9205
    1MOL    H75   75   0.325   7.896   4.894 -1.3779 -1.7358 -3.0241
    1MOL    H76   76   0.116   7.775   5.028  1.1188 -0.9871  0.3215
    1MOL    H77   77   0.243   7.672   5.181 -1.1410  1.8891 -2.2489
    1MOL    H78   78   0.433   7.676   5.364 -0.9085  0.6093  0.6633
    1MOL    H79   79   0.560   7.888   5.399  0.7543  1.9113 -1.2279
    1MOL    H80   80   0.515   8.074   5.286  0.9298 -0.4048 -0.7815
    1MOL    H81   81   0.346   8.088   5.120 -0.3693  0.2059 -0.0625
    1MOL    C82   82   0.047   7.966   5.099 -0.9223 -0.4184  0.0244
    1MOL    C83   83   0.010   7.947   5.245  0.0425 -0.2589 -0.0908
    1MOL    C84   84   8.046   8.056   5.309  0.7473 -0.3933 -0.2214
    1MOL    C85   85   7.912   8.062   5.284  0.0172 -0.6116 -0.2807
    1MOL    C86   86   7.833   0.052   5.344  0.3411 -0.3044  0.2366
    1MOL    C87   87   7.894   0.141   5.436 -0.6127  0.1995 -0.8715
    1MOL    C88   88   8.031   0.131   5.459 -0.3570  0.2836 -0.5102
    1MOL    C89   89   8.109   0.042   5.392  0.0465  0.4301 -0.2692
    1MOL    H90   90   8.069   7.959   5.043 -0.5411 -0.6154 -0.5931
    1MOL    H91   91   0.081   8.068   5.083 -0.2432 -1.0678 -3.0635
    1MOL    H92   92   0.107   7.954   5.296  0.0839 -1.3063 -0.0106
    1MOL    H93   93   7.866   7.993   5.215 -0.2041  0.4740 -1.2436
    1MOL    H94   94   7.730   0.066   5.316  0.0825 -2.7565 -0.1304
    1MOL    H95   95   7.839   0.219   5.485  2.1532 -0.4488  3.4626
    1MOL    H96   96   8.084   0.203   5.520  1.5372 -1.1584 -0.3914
    1MOL    H97   97   0.098   0.032   5.421 -0.6044 -0.1846  1.9053
    1MOL    C98   98   8.077   7.800   5.279  0.3008  0.1325 -0.1278
    1MOL    C99   99   8.015   7.767   5.419  0.0379 -0.2671 -0.1137
    1MOL   C100  100   7.910   7.653   5.408  0.0292  0.1936  0.2864
    1MOL   C101  101   7.786   7.672   5.476  0.7292 -0.1064 -0.2386
    1MOL   C102  102   7.684   7.575   5.471  0.0280  0.8033 -0.5979
    1MOL   C103  103   7.708   7.450   5.408 -0.5415  0.0920 -0.4068
    1MOL   C104  104   7.830   7.438   5.326 -0.1978 -0.1708  0.0469
    1MOL   C105  105   7.935   7.532   5.335  0.3007  0.1297  0.9790
    1MOL   H106  106   0.030   7.721   5.244  0.3362  0.6013 -1.1355
    1MOL   H107  107   7.991   7.786   5.213 -0.5847  1.3440  0.7640
    1MOL   H108  108   7.964   7.854   5.459  2.0219  0.3290  1.1607
    1MOL   H109  109   7.760   7.765   5.525 -0.8277 -0.8871  0.4549
    1MOL   H110  110   7.595   7.610   5.521 -0.5064 -1.8755  0.3913
    1MOL   H111  111   7.635   7.370   5.407 -0.8265  0.3205 -3.3475
    1MOL   H112  112   7.863   7.347   5.277  0.8995 -0.0658  0.5685
    1MOL   H113  113   8.026   7.530   5.277  0.9145  1.3462  1.8959
    1MOL   C114  114   0.002   7.721   5.528 -0.0127 -0.0267 -0.2452
    1MOL   C115  115   0.060   7.837   5.620  0.0942  1.2282  0.3132
    1MOL   C116  116   8.071   7.859   5.732  0.3663  0.2452 -0.4406
    1MOL   C117  117   7.996   7.979   5.728 -0.0388  1.0117  0.2521
    1MOL   C118  118   7.891   7.999   5.821  0.0253  0.6794  0.3866
    1MOL   C119  119   7.873   7.909   5.924 -0.0981  0.8407 -0.9927
    1MOL   C120  120   7.951   7.793   5.935 -0.0647  0.5267 -0.4100
    1MOL   C121  121   8.052   7.769   5.840  0.6739 -0.1026  0.2102
    1MOL   H122  122   0.087   7.674   5.479  0.6184 -0.4096  1.1721
    1MOL   H123  123   8.087   7.634   5.587  2.0136 -2.4783 -2.7131
    1MOL   H124  124   0.061   7.921   5.551 -1.6978 -0.1748 -1.4857
    1MOL   H125  125   8.020   8.051   5.652 -1.2459 -2.2855 -3.4151
    1MOL   H126  126   7.847   8.097   5.828  0.6385  1.0200 -0.4161
    1MOL   H127  127   7.791   7.915   5.994 -0.1938  3.9828 -1.2857
    1MOL   H128  128   7.929   7.720   6.011 -0.2177  0.2107 -0.7565
    1MOL   H129  129   8.111   7.679   5.853  0.0661 -0.2335  2.1886
    1MOL   C130  130   0.202   7.811   5.677  0.3613  0.1253 -0.7295
    1MOL   C131  131   0.270   7.926   5.751  0.1280  0.1457  0.7379
    1MOL   C132  132   0.391   7.871   5.827  0.6628  0.1914  0.0684
    1MOL   C133  133   0.378   7.807   5.947  0.3585  0.2406 -1.0876
    1MOL   C134  134   0.496   7.756   6.007  0.4350 -0.0229 -0.2851
    1MOL   C135  135   0.624   7.779   5.953  0.9472  0.1688  0.4025
    1MOL   C136  136   0.630   7.839   5.827  0.1188 -0.1132  0.1705
    1MOL   C137  137   0.515   7.883   5.763 -0.1415 -0.2298 -0.0620
    1MOL   H138  138   0.274   7.778   5.602  3.3005 -0.5282  2.2961
    1MOL   H139  139   0.188   7.729   5.748  0.8886  0.1948 -0.5474
    1MOL   H140  140   0.208   7.967   5.831  1.3285 -1.6047  2.6111
    1MOL   H141  141   0.276   7.792   5.979  0.4710  0.2153 -0.7402
    1MOL   H142  142   0.482   7.697   6.097 -1.9948  1.1599  0.1618
    1MOL   H143  143   0.706   7.735   6.007 -0.9450 -0.7432  2.6494
    1MOL   H144  144   0.721   7.845   5.770  0.2044  0.4742  0.3667
    1MOL   H145  145   0.522   7.931   5.667 -0.3282 -1.7596 -0.8531
    1MOL   C146  146   0.283   8.052   5.669 -0.1244 -0.0769 -0.5675
    1MOL   C147  147   0.365   0.057   5.729 -0.7115  0.4849 -0.0482
    1MOL   C148  148   0.435   0.138   5.615  0.7446  0.5255 -0.2165
    1MOL   C149  149   0.362   0.229   5.535 -0.0817  0.1633  0.1180
    1MOL   C150  150   0.423   0.299   5.429  0.7216 -0.3157 -0.5898
    1MOL   C151  151   0.559   0.279   5.404 -0.1280  0.2997  0.2585
    1MOL   C152  152   0.635   0.181   5.478 -0.6454  0.0782 -0.0904
    1MOL   C153  153   0.570   0.113   5.586  0.6698  0.0149 -0.0843
    1MOL   H154  154   0.196   8.097   5.621 -0.0599  1.4888  0.7641
    1MOL   H155  155   0.338   8.011   5.583 -2.2037 -2.4192 -0.8554
    1MOL   H156  156   0.450   0.017   5.786 -0.4615  2.8048  1.2705
    1MOL   H157  157   0.255   0.239   5.539  0.0826  1.6282  1.2824
    1MOL   H158  158   0.360   0.360   5.366 -0.3566 -1.0037 -0.1961
    1MOL   H159  159   0.612   0.335   5.328 -0.1442  0.6250  0.4893
    1MOL   H160  160   0.737   0.166   5.448 -0.8189  0.0424 -0.6564
    1MOL   H161  161   0.632   0.050   5.648  0.7008 -0.1978 -0.3323
    1MOL   C162  162   0.267   0.146   5.810  0.3119 -0.0364 -0.2499
    1MOL   C163  163   0.336   0.269   5.869 -0.0592  0.1657  0.2217
    1MOL   C164  164   0.263   0.397   5.833  0.4860  0.1695 -0.0380
    1MOL   C165  165   0.302   0.481   5.725  0.5801 -0.3805 -0.7654
    1MOL   C166  166   0.226   0.596   5.699  0.1620  0.0388  0.4246
    1MOL   C167  167   0.112   0.626   5.771  0.3849  0.2392 -0.5519
    1MOL   C168  168   0.074   0.540   5.870  0.1211 -0.4524 -0.2911
    1MOL   C169  169   0.146   0.427   5.904  0.8385 -0.7451 -0.0568
    1MOL   H170  170   0.216   0.079   5.879  0.6756 -0.0445  0.0120
    1MOL   H171  171   0.193   0.182   5.738 -2.0428 -0.2467  2.0053
    1MOL   H172  172   0.437   0.278   5.828  0.6144 -0.0506  1.7774
    1MOL   H173  173   0.384   0.457   5.659  2.3909 -2.2993  2.0703
    1MOL   H174  174   0.240   0.656   5.611  0.4267  0.1887  0.5684
    1MOL   H175  175   0.058   0.716   5.746  2.5516  2.0273  0.9811
    1MOL   H176  176   8.108   0.571   5.936  0.7044 -0.7964  0.5962
    1MOL   H177  177   0.119   0.373   5.994 -1.5190 -0.3746 -0.5071
    1MOL   C178  178   0.347   0.265   6.024 -0.3266  0.2795  0.8163
    1MOL   C179  179   0.461   0.176   6.081  0.3091  0.8911  0.5020
    1MOL   C180  180   0.591   0.170   5.995  0.2353 -0.3063  0.1482
    1MOL   C181  181   0.659   0.290   5.968 -0.3006 -0.3217 -0.3224
    1MOL   C182  182   0.782   0.293   5.892 -0.6309  0.0126 -0.6599
    1MOL   C183  183   0.837   0.171   5.854  0.1675 -0.0357 -0.1272
    1MOL   C184  184   0.775   0.047   5.889 -0.2053 -0.7051 -0.2601
    1MOL   C185  185   0.650   0.048   5.957  0.6625 -0.8185  0.0020
    1MOL   H186  186   0.257   0.239   6.079 -0.4249  1.2387  1.1121
    1MOL   H187  187   0.375   0.363   6.064 -1.3718  0.4670  1.0857
    1MOL   H188  188   0.422   0.075   6.072 -1.6602  1.8019 -1.6091
    1MOL   H189  189   0.615   0.383   6.001 -0.4815  0.4192 -2.5639
    1MOL   H190  190   0.832   0.389   5.888 -1.8167  0.6631 -0.0186
    1MOL   H191  191   0.934   0.170   5.807 -0.4486 -2.1338 -1.4046
    1MOL   H192  192   0.821   8.069   5.856  1.5908  0.2185 -0.3916
    1MOL   H193  193   0.593   8.076   5.987 -2.4668  1.1371 -0.0113
    1MOL   C194  194   0.491   0.218   6.227 -0.2680  0.3326  0.1898
    1MOL   C195  195   0.591   0.119   6.298  0.1588  0.0909 -0.4554
    1MOL   C196  196   0.607   0.159   6.447  0.0090  0.0676 -0.5586
    1MOL   C197  197   0.699   0.086   6.524  0.3450 -0.2863  0.9886
    1MOL   C198  198   0.721   0.120   6.657  0.3288 -0.0671 -0.0047
    1MOL   C199  199   0.644   0.211   6.725  0.1414 -0.3834  0.5627
    1MOL   C200  200   0.529   0.268   6.659 -0.4898  0.4282 -0.4731
    1MOL   C201  201   0.522   0.253   6.518 -0.0099  0.2276  0.0268
    1MOL   H202  202   0.394   0.226   6.276 -0.1721 -1.5877  0.7237
    1MOL   H203  203   0.548   0.311   6.219  2.4980 -1.5273 -3.6527
    1MOL   H204  204   0.690   0.141   6.257  0.5041  0.7870  0.7555
    1MOL   H205  205   0.762   0.016   6.472  1.0909  0.4556  0.8630
    1MOL   H206  206   0.793   0.062   6.713 -0.0027  0.5170  1.0295
    1MOL   H207  207   0.652   0.221   6.832 -0.3847  3.0377  0.3324
    1MOL   H208  208   0.463   0.341   6.704  0.6861  1.0794  0.2156
    1MOL   H209  209   0.442   0.304   6.466 -1.3021 -0.2214  1.5257
    1MOL   C210  210   0.555   8.080   6.284 -0.1847  0.2414 -0.0593
    1MOL   C211  211   0.440   8.028   6.376 -0.7261  0.4597 -0.3839
    1MOL   C212  212   0.310   8.097   6.345 -0.3941 -0.2645  0.0062
    1MOL   C213  213   0.243   0.064   6.444  0.0415  0.1893 -0.0699
    1MOL   C214  214   0.116   0.119   6.416  0.3957  0.2973  0.1173
    1MOL   C215  215   0.050   0.102   6.291  0.5632 -0.9523  0.7710
    1MOL   C216  216   0.118   0.023   6.194 -0.7624  0.3153 -0.1883
    1MOL   C217  217   0.245   8.078   6.220 -0.1328 -0.0589 -0.4188
    1MOL   H218  218   0.648   8.028   6.307 -0.7655 -0.8758 -0.1876
    1MOL   H219  219   0.528   8.045   6.184 -2.1214 -3.4330  1.6575
    1MOL   H220  220   0.465   8.055   6.478  0.0783  2.7787 -1.1621
    1MOL   H221  221   0.303   0.078   6.533  1.0355 -0.5788 -0.6056
    1MOL   H222  222   0.074   0.176   6.498  1.2397  0.8966  0.1447
    1MOL   H223  223   8.060   0.127   6.281  0.9856  2.2209  3.3605
    1MOL   H224  224   0.068   0.001   6.100 -1.3863 -1.7985  0.6108
    1MOL   H225  225   0.306   8.021   6.151 -0.1152  0.7614 -1.1012
    1MOL   C226  226   0.429   7.867   6.381  0.2436 -0.5646  0.0733
    1MOL   C227  227   0.551   7.805   6.443 -0.1196  0.1228 -0.2232
    1MOL   C228  228   0.516   7.726   6.562  0.2757  0.5197 -0.5221
    1MOL   C229  229   0.578   7.762   6.683 -0.1119  0.0713 -0.4943
    1MOL   C230  230   0.554   7.689   6.800 -0.3912  0.6109  0.5360
    1MOL   C231  231   0.460   7.584   6.798  0.3562  0.5730  0.1043
    1MOL   C232  232   0.394   7.548   6.681  0.1311  0.2841  0.1738
    1MOL   C233  233   0.433   7.611   6.563  0.4878 -0.1234  0.2939
    1MOL   H234  234   0.401   7.817   6.289  1.5143  1.7569 -1.6032
    1MOL   H235  235   0.339   7.849   6.441 -0.4666 -0.6994 -1.0152
    1MOL   H236  236   0.630   7.876   6.466  0.1215 -0.0358 -0.5484
    1MOL   H237  237   0.652   7.840   6.682 -0.6387  0.6057  1.4286
    1MOL   H238  238   0.618   7.709   6.885  0.3207  1.7864 -0.2652
    1MOL   H239  239   0.443   7.534   6.891 -1.8056  0.0616 -0.5481
    1MOL   H240  240   0.339   7.456   6.686  1.1505 -0.2903  0.8307
    1MOL   H241  241   0.379   7.583   6.474 -0.1249  2.4249 -0.1712
    1MOL   C242  242   0.622   7.716   6.335  0.3415  0.0307 -0.0971
    1MOL   C243  243   0.762   7.672   6.362  0.1523  0.1651 -0.0016
    1MOL   C244  244   0.861   7.787   6.391  0.2725 -0.0708 -0.2342
    1MOL   C245  245   0.878   7.884   6.294 -0.7309 -0.2259 -0.5521
    1MOL   C246  246   0.962   7.993   6.320 -0.2453  0.0678 -0.1490
    1MOL   C247  247   1.016   8.018   6.446 -1.1747 -0.1070  0.1036
    1MOL   C248  248   0.995   7.922   6.544 -0.1113  0.9381  0.3671
    1MOL   C249  249   0.919   7.805   6.519 -0.8078 -0.5616 -0.4693
    1MOL   H250  250   0.621   7.783   6.249 -1.6841  0.7099  0.4232
    1MOL   H251  251   0.557   7.634   6.304  0.3824  0.0444 -0.2183
    1MOL   H252  252   0.809   7.626   6.275  0.0068 -1.5722  0.8184
    1MOL   H253  253   0.828   7.883   6.198 -0.5714 -4.3839 -0.7200
    1MOL   H254  254   0.966   8.075   6.250  1.2064  0.5476  0.4776
    1MOL   H255  255   1.074   8.106   6.471  1.0139 -1.6801  0.7155
    1MOL   H256  256   1.028   7.934   6.646 -3.8153 -0.1229  1.7751
    1MOL   H257  257   0.896   7.740   6.602  0.9732 -0.1723  0.3584
    1MOL   C258  258   0.771   7.540   6.459  0.8327  0.0427 -0.2780
    1MOL   C259  259   0.702   7.408   6.419  0.1632  0.3360  0.0399
    1MOL   C260  260   0.709   7.375   6.270  0.6017 -0.0842 -0.4897
    1MOL   C261  261   0.587   7.360   6.194  0.0702 -0.3981  0.0312
    1MOL   C262  262   0.591   7.334   6.058  0.7621  0.6130 -0.1223
    1MOL   C263  263   0.716   7.340   5.996 -0.2143  0.4984 -0.3753
    1MOL   C264  264   0.834   7.349   6.069 -0.0849  0.6705 -0.0260
    1MOL   C265  265   0.829   7.374   6.205  0.4055 -0.4071  0.0553
    1MOL   H266  266   0.734   7.561   6.559  1.4018 -2.4599  0.5033
    1MOL   H267  267   0.879   7.526   6.458  0.8911  0.5268 -1.3411
    1MOL   H268  268   0.594   7.424   6.424 -0.0731 -1.8632  3.0192
    1MOL   H269  269   0.488   7.361   6.237 -0.7908 -0.6105 -1.8872
    1MOL   H270  270   0.500   7.309   6.005  1.9789 -0.5535 -1.6972
    1MOL   H271  271   0.726   7.329   5.889 -1.8334 -1.0964 -0.3864
    1MOL   H272  272   0.928   7.338   6.016 -0.3615  1.0494 -0.5938
    1MOL   H273  273   0.923   7.393   6.255  0.0671  4.2487 -0.8449
    1MOL   C274  274   0.749   7.289   6.507 -0.7582 -0.0009 -0.8020
    1MOL   C275  275   0.699   7.280   6.657 -0.1135 -0.3118 -0.1695
    1MOL   C276  276   0.550   7.243   6.672 -0.4473 -0.7015 -0.0803
    1MOL   C277  277   0.473   7.185   6.562 -0.1029  0.4467 -0.1150
    1MOL   C278  278   0.342   7.143   6.591  0.7634 -0.5113  0.1135
    1MOL   C279  279   0.282   7.166   6.718 -0.2194  0.0463 -0.4251
    1MOL   C280  280   0.356   7.227   6.824 -0.2803  0.1106  0.4000
    1MOL   C281  281   0.488   7.257   6.800  0.5127 -0.1965 -0.6871
    1MOL   H282  282   0.857   7.278   6.498 -0.2969  3.3807 -0.2454
    1MOL   H283  283   0.712   7.200   6.457  0.6198 -1.0946  0.0867
    1MOL   H284  284   0.716   7.379   6.700 -0.8228 -0.3376  0.1799
    1MOL   H285  285   0.520   7.165   6.467  0.5770  0.7690  0.1499
    1MOL   H286  286   0.287   7.078   6.524 -0.4007  0.3680  0.2008
    1MOL   H287  287   0.183   7.142   6.751 -0.0730 -1.1587 -0.8648
    1MOL   H288  288   0.313   7.247   6.921  2.4522  1.7106  1.3225
    1MOL   H289  289   0.548   7.309   6.874 -1.1222  1.4449 -0.4801
    1MOL   C290  290   0.776   7.185   6.752  0.0800  0.5616 -0.3963
    1MOL   C291  291   0.926   7.219   6.775  0.0059  0.2827 -0.1088
    1MOL   C292  292   0.938   7.369   6.808 -0.1164 -0.6442  0.2378
    1MOL   C293  293   0.874   7.429   6.916 -0.3018  0.2576  0.0984
    1MOL   C294  294   0.889   7.560   6.953  0.2955 -0.3657 -0.4319
    1MOL   C295  295   0.968   7.640   6.869  0.2777 -0.6396 -0.2586
    1MOL   C296  296   1.027   7.589   6.749 -0.1373 -0.5715  0.1639
    1MOL   C297  297   1.014   7.449   6.720  0.2359 -0.7133  0.0952
    1MOL   H298  298   0.765   7.081   6.719  1.7260 -0.1450  1.2228
    1MOL   H299  299   0.736   7.177   6.853  1.0206 -1.4122 -0.1518
    1MOL   H300  300   0.991   7.198   6.690  1.7883  1.8448  0.8336
    1MOL   H301  301   0.828   7.364   6.989  2.3830 -0.8970  0.8209
    1MOL   H302  302   0.839   7.595   7.043 -3.0738 -0.1434 -2.3016
    1MOL   H303  303   0.991   7.739   6.905 -0.4126 -0.7305  0.4349
    1MOL   H304  304   1.090   7.653   6.689 -0.3601  0.5268  1.0775
    1MOL   H305  305   1.051   7.414   6.625 -0.0000  0.4929 -0.4490
    1MOL   C306  306   0.991   7.127   6.883  0.1348  1.0566 -0.0376
    1MOL   C307  307   1.136   7.172   6.916 -0.3354  0.3332 -0.1153
    1MOL   C308  308   1.200   7.107   7.037 -0.9125  0.3460 -0.1919
    1MOL   C309  309   1.305   7.008   7.019  0.4153 -0.0437 -0.2776
    1MOL   C310  310   1.383   6.959   7.124  0.5771  0.4442 -0.3346
    1MOL   C311  311   1.364   7.017   7.256  0.1934  0.0148  0.0185
    1MOL   C312  312   1.266   7.114   7.272 -0.0013  0.2096  0.1020
    1MOL   C313  313   1.185   7.162   7.166  0.0418 -0.0901  1.1460
    1MOL   H314  314   0.995   7.021   6.859 -1.4265  0.3298  2.6890
    1MOL   H315  315   0.924   7.121   6.969 -1.1940 -0.8531 -1.1688
    1MOL   H316  316   1.140   7.278   6.939  0.3305 -0.0572  1.6881
    1MOL   H317  317   1.308   6.956   6.924 -1.6054  1.2719 -1.0976
    1MOL   H318  318   1.467   6.893   7.109  1.0027  1.1075 -0.8814
    1MOL   H319  319   1.421   7.000   7.346  2.7495  1.8575 -1.2071
    1MOL   H320  320   1.258   7.169   7.364  1.5056  0.8535 -0.1320
    1MOL   H321  321   1.112   7.240   7.173 -2.2137 -1.6822 -2.7543
    1MOL   H322  322   1.195   7.152   6.827  1.1829  1.9465  0.4948
    2MOL     C1  323   6.811   6.457   2.370  0.0739 -0.2809 -0.4212
    2MOL     C2  324   6.876   6.433   2.226 -0.0070 -0.3604  1.0512
    2MOL     C3  325   6.840   6.297   2.166 -0.3837 -0.4158 -0.3748
    2MOL     C4  326   6.942   6.213   2.111 -0.2872  0.1628 -0.7122
    2MOL     C5  327   6.911   6.101   2.034  0.2712 -0.5858 -0.5726
    2MOL     C6  328   6.777   6.064   2.021 -0.5198  0.0998 -0.1682
    2MOL     C7  329   6.678   6.134   2.090  0.6098 -0.1465  1.1069
    2MOL     C8  330   6.711   6.255   2.158 -0.1447  0.3589  0.6908
    2MOL     H9  331   6.703   6.452   2.357  0.1034  0.5623 -1.0020
    2MOL    H10  332   6.848   6.389   2.446  2.9846  1.1528 -0.4758
    2MOL    H11  333   6.984   6.436   2.243  0.4121 -2.6385 -0.9484
    2MOL    H12  334   7.043   6.246   2.127 -0.3341  0.2950 -0.6870
    2MOL    H13  335   6.988   6.033   2.001 -0.8014 -2.3420  0.4453
    2MOL    H14  336   6.753   5.969   1.975  4.0981 -1.1455 -0.2677
    2MOL    H15  337   6.576   6.104   2.072  0.7962 -0.2524  0.2068
    2MOL    H16  338   6.634   6.316   2.201 -0.5153 -0.7403  1.5990
    2MOL    H17  339   6.822   6.556   2.414  0.5465 -0.2514 -0.5962
    2MOL    C18  340   6.838   6.545   2.123 -0.4183  0.2358 -0.0960
    2MOL    C19  341   6.887   6.689   2.147 -0.2270 -0.2459 -0.2029
    2MOL    C20  342   7.045   6.704   2.135 -0.0833 -0.5810 -0.1393
    2MOL    C21  343   7.118   6.645   2.025  0.3162  0.4189 -0.0908
    2MOL    C22  344   7.261   6.657   2.017  0.4030 -0.1866 -0.5593
    2MOL    C23  345   7.330   6.723   2.119 -0.1578  0.2298  0.2464
    2MOL    C24  346   7.256   6.781   2.228  0.0443 -0.2241  0.6525
    2MOL    C25  347   7.117   6.765   2.239  0.0152 -0.5855 -0.3278
    2MOL    H26  348   6.729   6.553   2.114 -0.2219  1.0285 -1.8622
    2MOL    H27  349   6.851   6.510   2.021 -0.2879 -2.4701  0.7998
    2MOL    H28  350   6.860   6.718   2.249  0.0139  1.0183 -0.4963
    2MOL    H29  351   7.072   6.591   1.943 -0.7776 -0.1576  0.8800
    2MOL    H30  352   7.305   6.606   1.933 -0.9832 -1.1222 -0.7285
    2MOL    H31  353   7.437   6.726   2.106  0.0732  1.8191  2.3633
    2MOL    H32  354   7.321   6.823   2.303  0.9298 -1.6569  0.7061
    2MOL    H33  355   7.067   6.799   2.328  1.2927  2.7962 -0.8402
    2MOL    C34  356   6.818   6.791   2.052 -0.4822  0.6358  0.5674
    2MOL    C35  357   6.671   6.817   2.058  0.1487  0.0163  0.7220
    2MOL    C36  358   6.614   6.848   2.201  0.5464 -0.5423 -0.4106
    2MOL    C37  359   6.515   6.765   2.259  0.8571  0.1128 -0.2915
    2MOL    C38  360   6.464   6.793   2.381 -0.2165  0.2098 -0.3154
    2MOL    C39  361   6.506   6.908   2.455  0.8357 -0.0544  0.0270
    2MOL    C40  362   6.600   6.996   2.397  0.5335  0.4265 -0.3835
    2MOL    C41  363   6.658   6.967   2.270 -0.0389  1.1164 -0.3872
    2MOL    H42  364   6.853   6.760   1.953  0.1469  1.4337  0.5398
    2MOL    H43  365   6.875   6.879   2.079 -0.5628  1.2855 -1.2832
    2MOL    H44  366   6.627   6.723   2.026  0.3814  0.9642 -2.5190
    2MOL    H45  367   6.468   6.681   2.210  0.7469  1.4686 -2.5899
    2MOL    H46  368   6.377   6.738   2.414 -0.6594 -0.4194 -2.4593
    2MOL    H47  369   6.455   6.939   2.545  1.2984  1.9581 -0.3988
    2MOL    H48  370   6.632   7.084   2.450 -1.6057 -0.2893  2.2264
    2MOL    H49  371   6.732   7.026   2.219 -1.2363  1.3803 -1.8797
    2MOL    C50  372   6.624   6.912   1.949 -0.1912 -0.3857  0.2333
    2MOL    C51  373   6.475   6.959   1.955 -0.3025 -0.0699 -0.2055
    2MOL    C52  374   6.447   7.078   1.870  1.0002  0.3681  0.2458
    2MOL    C53  375   6.493   7.087   1.736  0.1541 -0.4801  0.0205
    2MOL    C54  376   6.480   7.212   1.663  0.3003  0.5752  0.4163
    2MOL    C55  377   6.399   7.313   1.722  0.2117  0.6846  0.9604
    2MOL    C56  378   6.339   7.299   1.851 -0.7199 -0.1402  0.6133
    2MOL    C57  379   6.358   7.179   1.919  0.6409  0.2665 -0.2088
    2MOL    H58  380   6.664   6.862   1.861  1.6929 -1.0231  1.4226
    2MOL    H59  381   6.686   7.001   1.942 -1.0629  0.1078 -1.7435
    2MOL    H60  382   6.465   6.995   2.057  1.0137 -0.1885 -0.0307
    2MOL    H61  383   6.539   6.996   1.701  1.9684 -0.7469  3.0029
    2MOL    H62  384   6.518   7.232   1.564  0.1983  1.0780  0.4802
    2MOL    H63  385   6.383   7.407   1.673  2.9824  0.9382  0.4747
    2MOL    H64  386   6.264   7.360   1.898 -0.4169 -0.1543  1.1161
    2MOL    H65  387   6.312   7.174   2.016 -0.8908  3.7307 -0.6958
    2MOL    C66  388   6.381   6.834   1.924 -0.2714 -0.4103 -0.1589
    2MOL    C67  389   6.229   6.851   1.946  1.2109  0.0104 -0.2370
    2MOL    C68  390   6.146   6.754   1.860  0.0483  0.6810 -0.5027
    2MOL    C69  391   6.088   6.790   1.731 -0.2897 -0.2294 -0.5814
    2MOL    C70  392   6.051   6.691   1.641 -0.4563  0.4742  0.6563
    2MOL    C71  393   6.053   6.555   1.688 -0.0303  0.0882  0.4675
    2MOL    C72  394   6.097   6.522   1.818 -0.1917 -0.2048 -0.0899
    2MOL    C73  395   6.149   6.619   1.898  0.7131 -0.2082  0.0852
    2MOL    H74  396   6.425   6.748   1.973  0.7546 -0.4888 -1.2004
    2MOL    H75  397   6.396   6.818   1.817  1.3315  1.1966 -0.2012
    2MOL    H76  398   6.210   6.948   1.899  0.7006  0.7186  1.3874
    2MOL    H77  399   6.091   6.893   1.699 -0.9351 -0.0026  0.0557
    2MOL    H78  400   6.026   6.726   1.542 -2.2688  1.9841  1.5957
    2MOL    H79  401   6.010   6.475   1.630 -0.7652 -0.4650  1.7514
    2MOL    H80  402   6.085   6.422   1.857 -0.4150 -0.4775 -0.8354
    2MOL    H81  403   6.206   6.583   1.982  2.9963  2.1837 -0.3804
    2MOL    C82  404   6.190   6.835   2.097  0.0525  0.1258  0.1889
    2MOL    C83  405   6.045   6.830   2.139 -0.3151 -0.3348  0.6983
    2MOL    C84  406   6.037   6.743   2.264 -0.2319  0.0684 -0.2962
    2MOL    C85  407   6.087   6.791   2.385  0.5200 -0.0480  0.2016
    2MOL    C86  408   6.085   6.710   2.496 -0.0266  0.5902 -0.0809
    2MOL    C87  409   6.040   6.580   2.485 -0.4052  0.1563  0.0052
    2MOL    C88  410   5.985   6.527   2.367  0.0096 -0.4117  0.2554
    2MOL    C89  411   5.980   6.609   2.253  0.5154 -0.1325  0.7424
    2MOL    H90  412   6.234   6.914   2.158 -2.1051  1.2575  0.2998
    2MOL    H91  413   6.237   6.742   2.130 -0.8600 -0.8958 -1.3177
    2MOL    H92  414   5.995   6.770   2.063  0.7651  0.6899 -0.8561
    2MOL    H93  415   6.127   6.891   2.385  1.4992 -0.4180  1.8262
    2MOL    H94  416   6.133   6.732   2.590  0.2659  0.7416 -0.2656
    2MOL    H95  417   6.038   6.515   2.571  1.5678  0.4862  0.3200
    2MOL    H96  418   5.957   6.423   2.365  0.9168 -0.6347 -1.2349
    2MOL    H97  419   5.948   6.571   2.157  0.4451  1.8126 -0.0328
    2MOL    C98  420   5.983   6.978   2.146  0.9289 -0.3212 -0.2440
    2MOL    C99  421   5.832   7.003   2.143  0.0713  0.1916  0.0195
    2MOL   C100  422   5.778   6.936   2.014  1.4747 -0.7828  0.0429
    2MOL   C101  423   5.707   6.808   1.998 -0.1950  1.2324  0.3486
    2MOL   C102  424   5.663   6.758   1.872  0.5066  0.4575 -0.1493
    2MOL   C103  425   5.688   6.833   1.761 -0.7279  0.5987  0.0252
    2MOL   C104  426   5.763   6.952   1.770 -0.4019  0.6846 -0.1530
    2MOL   C105  427   5.811   6.996   1.893 -0.4642 -1.1547 -0.9980
    2MOL   H106  428   6.014   7.040   2.062  0.8682  2.6689  1.8900
    2MOL   H107  429   6.034   7.029   2.227 -0.2837 -0.4811  0.6236
    2MOL   H108  430   5.819   7.110   2.131  0.3686  0.6010  3.0341
    2MOL   H109  431   5.689   6.748   2.086  0.4882 -0.7813 -0.8519
    2MOL   H110  432   5.603   6.669   1.864  0.7910  0.3115 -0.6702
    2MOL   H111  433   5.648   6.796   1.668 -0.1010  2.0743 -0.8585
    2MOL   H112  434   5.788   6.994   1.674  2.0144  1.9290  0.9698
    2MOL   H113  435   5.869   7.087   1.893 -1.5006 -0.4803 -0.8414
    2MOL   C114  436   5.760   6.959   2.264  0.7534  0.5275 -0.5181
    2MOL   C115  437   5.806   7.026   2.393 -0.0439 -0.2074 -0.1138
    2MOL   C116  438   5.760   7.171   2.403 -0.4322 -0.5082  0.5244
    2MOL   C117  439   5.626   7.211   2.378 -0.1451 -0.0861 -0.4410
    2MOL   C118  440   5.581   7.346   2.395 -0.1898  0.2705  1.3576
    2MOL   C119  441   5.666   7.440   2.448 -0.8893  0.5311  0.6223
    2MOL   C120  442   5.799   7.400   2.478 -0.0317  0.0156 -0.0022
    2MOL   C121  443   5.843   7.270   2.453  0.3500 -0.7396 -0.2793
    2MOL   H122  444   5.778   6.852   2.266  0.5603  0.5065  0.4529
    2MOL   H123  445   5.652   6.973   2.250  0.6542 -0.5821 -0.8882
    2MOL   H124  446   5.915   7.028   2.390 -0.0640 -0.6969 -1.7300
    2MOL   H125  447   5.562   7.133   2.340  1.6536 -2.4121  1.1890
    2MOL   H126  448   5.485   7.388   2.368  0.0039 -0.8869 -1.3076
    2MOL   H127  449   5.648   7.547   2.442 -0.2408  0.5023 -3.5113
    2MOL   H128  450   5.870   7.479   2.501  0.9541 -0.9754  0.4134
    2MOL   H129  451   5.944   7.244   2.481 -0.0159 -0.9747  0.8546
    2MOL   C130  452   5.784   6.941   2.523 -0.0259 -0.7997  0.3884
    2MOL   C131  453   5.641   6.895   2.570 -0.7985  0.1187  0.0953
    2MOL   C132  454   5.575   6.796   2.470 -0.6169  0.5520  0.2930
    2MOL   C133  455   5.657   6.695   2.412 -0.8715  0.1495 -0.7870
    2MOL   C134  456   5.611   6.610   2.310 -0.8591  0.0035  0.4206
    2MOL   C135  457   5.475   6.615   2.281 -0.4824  0.1115  0.0225
    2MOL   C136  458   5.385   6.708   2.342 -0.6326 -0.1087  0.0943
    2MOL   C137  459   5.438   6.804   2.434  0.3087  0.4316  0.0466
    2MOL   H138  460   5.825   7.010   2.596  0.6693  0.2136 -0.9468
    2MOL   H139  461   5.853   6.856   2.525  1.0964 -0.0437 -2.9056
    2MOL   H140  462   5.577   6.983   2.573  0.2877  1.0548 -2.5215
    2MOL   H141  463   5.761   6.687   2.442 -1.1934 -0.9430  0.0539
    2MOL   H142  464   5.674   6.540   2.257 -1.7572  0.5698 -1.4554
    2MOL   H143  465   5.433   6.538   2.217  0.8038  0.7788 -1.6497
    2MOL   H144  466   5.280   6.704   2.317 -0.0912 -1.7656 -2.1150
    2MOL   H145  467   5.375   6.874   2.487 -1.0437 -1.9036  1.6290
    2MOL   C146  468   5.653   6.826   2.707  0.2885  0.7967 -0.4002
    2MOL   C147  469   5.699   6.936   2.815 -0.1364  0.5392  0.7670
    2MOL   C148  470   5.611   7.063   2.810 -0.0008 -0.0644 -0.0552
    2MOL   C149  471   5.476   7.053   2.848  0.1104  0.1315  0.3956
    2MOL   C150  472   5.385   7.162   2.838  0.9039  0.5175  0.5276
    2MOL   C151  473   5.441   7.289   2.822  1.3123 -0.6414  0.1954
    2MOL   C152  474   5.580   7.304   2.796 -0.1621  0.3130 -0.0513
    2MOL   C153  475   5.664   7.189   2.785 -1.0984 -0.2519  0.6183
    2MOL   H154  476   5.724   6.744   2.697  1.5295  1.7212  0.6184
    2MOL   H155  477   5.553   6.790   2.734  1.2918 -0.3843  1.9168
    2MOL   H156  478   5.804   6.959   2.793 -0.7283  2.3046 -0.3632
    2MOL   H157  479   5.433   6.959   2.879  2.2861 -1.0810 -0.1733
    2MOL   H158  480   5.280   7.149   2.856  0.8858 -0.7188 -0.4285
    2MOL   H159  481   5.385   7.381   2.832 -1.2719 -2.1900  0.3717
    2MOL   H160  482   5.622   7.402   2.779 -0.7953  0.4037 -1.1309
    2MOL   H161  483   5.767   7.208   2.758 -2.1070  2.3012 -1.7769
    2MOL   C162  484   5.708   6.878   2.958 -0.6364  0.1159  0.1117
    2MOL   C163  485   5.764   6.983   3.069  0.0834  0.2385 -0.6024
    2MOL   C164  486   5.723   6.952   3.214 -0.1487  0.3411 -0.1418
    2MOL   C165  487   5.749   6.835   3.275  0.0537  0.7090 -0.2623
    2MOL   C166  488   5.714   6.827   3.410  0.4548 -0.1435 -0.5409
    2MOL   C167  489   5.656   6.938   3.479 -0.3360  0.0501  0.6873
    2MOL   C168  490   5.621   7.058   3.411  0.5170 -0.8053 -0.5781
    2MOL   C169  491   5.658   7.061   3.276  0.6612  0.0904 -0.5936
    2MOL   H170  492   5.760   6.783   2.947 -1.0621 -0.0895 -0.1285
    2MOL   H171  493   5.610   6.837   2.982 -0.5031 -1.8339 -2.4719
    2MOL   H172  494   5.720   7.079   3.040 -1.7629  0.6095  3.0714
    2MOL   H173  495   5.798   6.753   3.225  0.4447  0.3932  0.6250
    2MOL   H174  496   5.743   6.737   3.463  2.5829  0.2628 -0.9889
    2MOL   H175  497   5.618   6.931   3.579 -0.3953 -0.1284  0.6512
    2MOL   H176  498   5.574   7.142   3.461  0.2077 -0.8563 -0.7824
    2MOL   H177  499   5.632   7.154   3.229 -0.5527  0.6549  1.1677
    2MOL   C178  500   5.913   7.004   3.051 -0.2153 -0.1567 -0.0724
    2MOL   C179  501   5.962   7.138   2.989 -0.2894  0.7733  0.0575
    2MOL   C180  502   5.905   7.267   3.047  0.9805  0.3460 -0.1901
    2MOL   C181  503   5.863   7.276   3.182 -0.2829  0.3642  0.2301
    2MOL   C182  504   5.791   7.386   3.222 -0.7843 -0.1676 -0.2966
    2MOL   C183  505   5.767   7.491   3.134 -0.1731  0.3452 -0.4632
    2MOL   C184  506   5.807   7.486   2.995 -0.2192  0.0906  0.5298
    2MOL   C185  507   5.884   7.376   2.960 -0.4494 -0.6133 -0.5825
    2MOL   H186  508   5.955   6.911   3.013 -0.5820 -0.3836  0.0794
    2MOL   H187  509   5.952   7.023   3.151  3.1054  2.0562 -1.6699
    2MOL   H188  510   5.932   7.128   2.885 -3.5261  1.9505  0.8134
    2MOL   H189  511   5.883   7.208   3.264 -1.4003 -0.0655  0.1480
    2MOL   H190  512   5.762   7.386   3.326  0.6776  0.2083  0.1240
    2MOL   H191  513   5.722   7.573   3.188 -0.0153 -0.7055  1.3026
    2MOL   H192  514   5.766   7.567   2.938  3.3437  1.2872 -0.4803
    2MOL   H193  515   5.917   7.374   2.857 -0.8363 -1.4180 -0.6899
    2MOL   C194  516   6.116   7.152   2.989 -0.9318  0.0422  0.3698
    2MOL   C195  517   6.195   7.042   2.913  0.0140  0.5457  0.2525
    2MOL   C196  518   6.255   7.099   2.786 -0.3754  0.3928 -0.3347
    2MOL   C197  519   6.335   7.215   2.788  0.3422 -0.1949  0.0948
    2MOL   C198  520   6.381   7.276   2.667  0.0139 -0.0909 -0.2198
    2MOL   C199  521   6.346   7.210   2.544  0.0832 -0.2321 -0.0219
    2MOL   C200  522   6.260   7.095   2.541 -0.4159 -0.7683  0.4962
    2MOL   C201  523   6.223   7.040   2.665 -0.5303 -0.3756 -0.2149
    2MOL   H202  524   6.152   7.143   3.092  0.1711 -1.5808 -0.1312
    2MOL   H203  525   6.148   7.255   2.970 -0.7971  0.0340  0.5543
    2MOL   H204  526   6.130   6.958   2.887  0.0271  0.7024 -0.2882
    2MOL   H205  527   6.354   7.256   2.886 -2.4462  0.9113  0.2119
    2MOL   H206  528   6.451   7.359   2.668 -1.0043  0.7845 -0.5074
    2MOL   H207  529   6.378   7.237   2.444  0.1447 -0.0975  0.0342
    2MOL   H208  530   6.239   7.040   2.450 -1.3171  2.8214 -1.5611
    2MOL   H209  531   6.166   6.948   2.660 -2.0322  0.2639  3.7664
    2MOL   C210  532   6.309   6.984   3.005 -0.1082  0.6704  0.4004
    2MOL   C211  533   6.266   6.866   3.093 -0.5874 -0.3021  0.4937
    2MOL   C212  534   6.235   6.751   3.000  0.3078  0.5601 -0.1830
    2MOL   C213  535   6.330   6.691   2.921  0.6287  0.1009  0.3002
    2MOL   C214  536   6.293   6.601   2.818 -0.6336  0.0331 -0.3337
    2MOL   C215  537   6.167   6.542   2.814  0.1463  0.9176  0.1193
    2MOL   C216  538   6.075   6.594   2.902 -0.3163  0.3616  0.7608
    2MOL   C217  539   6.105   6.695   2.998  0.2299  0.2515  0.0322
    2MOL   H218  540   6.355   7.067   3.059  0.0697  0.3170  0.7973
    2MOL   H219  541   6.394   6.943   2.950 -0.6468 -0.9733  0.7706
    2MOL   H220  542   6.177   6.890   3.152  1.0848 -1.7221  3.7051
    2MOL   H221  543   6.434   6.719   2.932  0.0524  1.7013  1.8585
    2MOL   H222  544   6.363   6.560   2.746 -0.2267  1.8846 -1.0224
    2MOL   H223  545   6.149   6.455   2.753 -0.3948 -0.1471  1.7678
    2MOL   H224  546   5.978   6.547   2.908 -0.1296 -0.0189  0.8128
    2MOL   H225  547   6.038   6.723   3.078  1.4164 -0.8163  1.4244
    2MOL   C226  548   6.372   6.823   3.199 -0.6678  0.0672  0.1151
    2MOL   C227  549   6.333   6.706   3.288 -0.1141  0.3020 -0.9332
    2MOL   C228  550   6.455   6.643   3.350  0.2698 -0.1215  0.3504
    2MOL   C229  551   6.534   6.691   3.453  0.4208 -0.1191  0.1223
    2MOL   C230  552   6.635   6.618   3.505  0.2536  0.1179 -0.7424
    2MOL   C231  553   6.662   6.486   3.458 -0.0386  0.7601  0.5380
    2MOL   C232  554   6.599   6.443   3.341  0.0710  0.5653 -0.1147
    2MOL   C233  555   6.491   6.521   3.288 -0.0137  0.0166  0.3539
    2MOL   H234  556   6.391   6.918   3.250  1.0281  0.6713 -1.5826
    2MOL   H235  557   6.461   6.801   3.141 -1.0202  0.5974 -0.6417
    2MOL   H236  558   6.285   6.632   3.224 -2.1018  1.9086 -1.3544
    2MOL   H237  559   6.494   6.779   3.503 -0.8282 -0.4856 -0.2162
    2MOL   H238  560   6.687   6.652   3.593 -1.9523 -0.0485  0.6573
    2MOL   H239  561   6.736   6.420   3.499  0.8179  0.4322 -1.4624
    2MOL   H240  562   6.628   6.345   3.305  0.8414  1.0234 -0.7724
    2MOL   H241  563   6.433   6.479   3.207  1.2769  1.2431 -1.2433
    2MOL   C242  564   6.227   6.749   3.395 -0.3341  0.9322  0.1779
    2MOL   C243  565   6.149   6.628   3.459  0.5350 -0.2221 -0.1892
    2MOL   C244  566   6.077   6.654   3.593 -0.5350  0.1023 -0.4545
    2MOL   C245  567   6.000   6.767   3.616 -0.5556  0.4264 -0.2331
    2MOL   C246  568   5.949   6.795   3.746 -0.0670  0.0249  0.0326
    2MOL   C247  569   5.987   6.714   3.852 -0.4668  0.2822 -0.3592
    2MOL   C248  570   6.060   6.599   3.832 -0.8030  0.9182  0.1070
    2MOL   C249  571   6.106   6.569   3.702  0.5320  0.0739  0.2894
    2MOL   H250  572   6.165   6.832   3.359 -2.4538  0.4273  2.5579
    2MOL   H251  573   6.272   6.797   3.481  0.7525  0.2907 -0.0323
    2MOL   H252  574   6.228   6.553   3.470  1.6601  0.9478 -0.2826
    2MOL   H253  575   5.964   6.833   3.539 -0.7648  0.0106 -0.4945
    2MOL   H254  576   5.888   6.882   3.766  1.3977  1.3162 -1.0523
    2MOL   H255  577   5.969   6.737   3.956  1.3343 -2.5490  0.6431
    2MOL   H256  578   6.092   6.530   3.910  2.0153 -0.7163 -2.3568
    2MOL   H257  579   6.165   6.480   3.686  0.6789 -0.0920  1.6768
    2MOL   C258  580   6.041   6.565   3.357 -1.1245 -0.0528 -0.3687
    2MOL   C259  581   5.955   6.442   3.407  0.0064  0.1077 -0.1504
    2MOL   C260  582   5.821   6.447   3.337 -0.2109  0.7358  0.4057
    2MOL   C261  583   5.813   6.462   3.197  0.3108 -0.0650 -0.9014
    2MOL   C262  584   5.685   6.457   3.135 -0.3252  0.1213  0.1952
    2MOL   C263  585   5.564   6.461   3.217 -0.5958 -0.3062  0.5325
    2MOL   C264  586   5.579   6.440   3.355 -0.0497  0.1980  0.0815
    2MOL   C265  587   5.704   6.432   3.415  1.0369  0.8267  0.3448
    2MOL   H266  588   6.086   6.540   3.261 -0.4157 -2.1917  0.4977
    2MOL   H267  589   5.974   6.650   3.343  0.9244  1.6358 -0.1322
    2MOL   H268  590   5.927   6.459   3.511 -0.5015 -0.5231 -0.1828
    2MOL   H269  591   5.900   6.458   3.133  0.7657 -0.8453 -0.2458
    2MOL   H270  592   5.685   6.469   3.028  0.4447  0.7794  0.2631
    2MOL   H271  593   5.473   6.443   3.161 -1.6044 -1.9068  2.5913
    2MOL   H272  594   5.488   6.441   3.413 -0.2093  0.5160 -0.1733
    2MOL   H273  595   5.704   6.420   3.522 -1.8647  0.8437  0.3913
    2MOL   C274  596   6.034   6.310   3.396  0.0769 -0.4103  0.6240
    2MOL   C275  597   6.029   6.234   3.534 -0.4130  0.4178  0.3776
    2MOL   C276  598   5.886   6.192   3.560  0.5954 -0.6950 -0.4056
    2MOL   C277  599   5.813   6.236   3.679  0.2681  0.2264  0.3443
    2MOL   C278  600   5.678   6.216   3.689 -0.2778 -0.0206  0.0241
    2MOL   C279  601   5.615   6.152   3.584  0.0816  0.0216 -0.0239
    2MOL   C280  602   5.688   6.102   3.475 -0.0863  0.0187 -0.7549
    2MOL   C281  603   5.824   6.110   3.470  0.5055  0.1289  0.0227
    2MOL   H282  604   6.140   6.334   3.384 -0.6626  2.0632 -1.5778
    2MOL   H283  605   6.016   6.246   3.310 -0.2237  0.0152  0.3703
    2MOL   H284  606   6.063   6.298   3.615  3.5231  1.1462 -1.7125
    2MOL   H285  607   5.859   6.294   3.758  0.4926 -0.6624  0.8671
    2MOL   H286  608   5.634   6.253   3.781 -1.0279  1.5018 -0.9335
    2MOL   H287  609   5.507   6.146   3.582  0.0320  0.9995 -0.6703
    2MOL   H288  610   5.639   6.049   3.394 -0.6934 -0.7723  0.1309
    2MOL   H289  611   5.878   6.060   3.391  0.7248 -0.0625  0.2973
    2MOL   C290  612   6.125   6.116   3.539  0.2211  0.1648  0.2362
    2MOL   C291  613   6.272   6.145   3.546  0.1623  0.4098 -0.6967
    2MOL   C292  614   6.313   6.230   3.663 -0.5345 -1.2179 -0.1170
    2MOL   C293  615   6.282   6.208   3.798 -0.7634  0.0584  0.4053
    2MOL   C294  616   6.329   6.285   3.905 -0.8217 -0.4669  0.6599
    2MOL   C295  617   6.412   6.395   3.881  0.4698 -0.5079  1.2800
    2MOL   C296  618   6.435   6.430   3.749  0.5211 -0.0041  0.6646
    2MOL   C297  619   6.399   6.345   3.643  0.1853 -0.4600 -0.0407
    2MOL   H298  620   6.106   6.051   3.453 -0.2047  2.0884 -1.1638
    2MOL   H299  621   6.104   6.065   3.633 -3.3829  0.3006 -0.4094
    2MOL   H300  622   6.300   6.197   3.455 -1.4715 -0.4395 -1.6890
    2MOL   H301  623   6.220   6.121   3.817 -1.1383  0.3302  0.4349
    2MOL   H302  624   6.309   6.251   4.005 -0.6712  0.0558  0.8692
    2MOL   H303  625   6.436   6.455   3.968  0.8029 -0.0072  0.8466
    2MOL   H304  626   6.491   6.522   3.736  1.0404  0.0863  3.3450
    2MOL   H305  627   6.408   6.375   3.540  2.8911 -0.1648  0.2640
    2MOL   C306  628   6.361   6.021   3.532 -0.2261  0.2712 -0.0063
    2MOL   C307  629   6.512   6.048   3.526  0.5001 -0.9667  0.1647
    2MOL   C308  630   6.606   5.930   3.548 -0.2390  0.3860  0.4726
    2MOL   C309  631   6.720   5.904   3.473 -0.6273  0.9751  0.5486
    2MOL   C310  632   6.792   5.785   3.503 -0.1093 -0.1439  0.5854
    2MOL   C311  633   6.767   5.714   3.623 -0.4023  0.6753 -0.7982
    2MOL   C312  634   6.670   5.756   3.714  0.5547 -0.2478 -0.6014
    2MOL   C313  635   6.596   5.872   3.680 -0.3521  0.0671  0.4945
    2MOL   H314  636   6.336   5.967   3.441  0.3412 -1.0228  0.5964
    2MOL   H315  637   6.335   5.967   3.624  1.6319 -1.7015 -0.6081
    2MOL   H316  638   6.527   6.117   3.608  0.0408  0.2144 -0.7227
    2MOL   H317  639   6.742   5.962   3.385  1.3730 -0.7393 -0.1262
    2MOL   H318  640   6.883   5.750   3.457 -0.7026  0.0505 -0.7640
    2MOL   H319  641   6.828   5.633   3.659 -0.9983  0.1391 -0.9716
    2MOL   H320  642   6.647   5.708   3.808 -1.8194  1.4732 -0.2510
    2MOL   H321  643   6.522   5.908   3.751 -0.1822  1.2542  0.0863
    2MOL   H322  644   6.540   6.100   3.434  1.6063 -0.0934  0.9910
    3MOL     C1  645   3.456   7.695   6.421  0.9303  0.6786 -0.5575
    3MOL     C2  646   3.593   7.637   6.432 -0.3609 -0.6115 -0.8102
    3MOL     C3  647   3.698   7.740   6.413  0.3620 -0.4720 -0.0404
    3MOL     C4  648   3.763   7.742   6.286 -0.0735  0.2223 -0.3319
    3MOL     C5  649   3.847   7.848   6.256 -0.5015 -0.4701 -0.1088
    3MOL     C6  650   3.875   7.950   6.345  0.1287  0.1909  0.0714
    3MOL     C7  651   3.818   7.949   6.477 -0.6786 -0.2572  0.7323
    3MOL     C8  652   3.726   7.839   6.509 -0.0600  0.0433 -0.6533
    3MOL     H9  653   3.427   7.750   6.511  2.2098 -0.5323  0.6389
    3MOL    H10  654   3.462   7.755   6.331 -1.5462  1.0007 -0.5370
    3MOL    H11  655   3.619   7.564   6.355 -1.5543  0.0882 -1.8859
    3MOL    H12  656   3.738   7.666   6.213 -0.3496  2.8697 -3.0920
    3MOL    H13  657   3.892   7.856   6.158 -1.0712  0.4221 -0.3076
    3MOL    H14  658   3.924   8.044   6.324  0.6709 -0.0959  0.0393
    3MOL    H15  659   3.825   8.029   6.549  1.9467 -1.0555  1.4182
    3MOL    H16  660   3.666   7.839   6.598  1.5917  1.6003  0.5025
    3MOL    H17  661   3.373   7.625   6.419 -0.8740  2.7751 -0.2721
    3MOL    C18  662   3.623   7.551   6.562 -0.1242 -0.2760  0.0025
    3MOL    C19  663   3.573   7.403   6.561 -0.4522  0.1340 -0.3354
    3MOL    C20  664   3.659   7.309   6.478  0.6771 -0.3969  0.5305
    3MOL    C21  665   3.605   7.234   6.374  0.5522  0.2586 -0.0150
    3MOL    C22  666   3.682   7.144   6.296 -0.4304 -0.2067 -0.0400
    3MOL    C23  667   3.822   7.140   6.317 -0.1590 -0.4957  0.5466
    3MOL    C24  668   3.877   7.216   6.419  0.8049  0.4943  0.3532
    3MOL    C25  669   3.794   7.302   6.494  0.6096  0.5421  0.1219
    3MOL    H26  670   3.576   7.601   6.647 -1.2034 -1.5050  0.1477
    3MOL    H27  671   3.731   7.547   6.575 -0.2072 -1.9129  0.3051
    3MOL    H28  672   3.476   7.392   6.514 -0.8589  0.9839  0.2943
    3MOL    H29  673   3.500   7.245   6.348  0.6232 -0.1100 -0.4538
    3MOL    H30  674   3.634   7.074   6.229 -1.2218 -1.3447  1.6946
    3MOL    H31  675   3.889   7.072   6.266  1.4121  2.4683 -1.4729
    3MOL    H32  676   3.985   7.222   6.419  0.9411 -1.4759 -1.1912
    3MOL    H33  677   3.839   7.367   6.568  0.0226 -1.1653  2.0101
    3MOL    C34  678   3.573   7.335   6.704  0.0023 -0.3072  0.2839
    3MOL    C35  679   3.446   7.369   6.790  0.8313 -0.6571 -0.5062
    3MOL    C36  680   3.314   7.366   6.709 -0.0776  0.0710  0.2697
    3MOL    C37  681   3.257   7.485   6.670 -1.1755  0.5248  0.7560
    3MOL    C38  682   3.150   7.488   6.581  0.9008 -0.3936 -0.3427
    3MOL    C39  683   3.100   7.370   6.524 -0.3243  0.2508  0.0087
    3MOL    C40  684   3.148   7.245   6.572  0.1638 -0.3764 -0.2030
    3MOL    C41  685   3.262   7.248   6.655 -0.3847 -0.1330  0.5037
    3MOL    H42  686   3.663   7.350   6.764  0.9888 -0.8290 -1.0431
    3MOL    H43  687   3.561   7.228   6.692 -2.1614 -0.1670  0.8870
    3MOL    H44  688   3.462   7.470   6.827  2.7821 -0.6896 -1.2033
    3MOL    H45  689   3.316   7.570   6.703  1.8349 -1.0053 -0.4828
    3MOL    H46  690   3.115   7.582   6.542 -1.2538 -0.6481  0.8857
    3MOL    H47  691   3.020   7.379   6.452 -1.3634 -2.5679  0.7420
    3MOL    H48  692   3.110   7.149   6.539  1.5213 -0.3276 -1.9819
    3MOL    H49  693   3.309   7.154   6.681  0.5112  0.9043  2.7538
    3MOL    C50  694   3.440   7.283   6.919  0.0788 -0.0158  0.2752
    3MOL    C51  695   3.561   7.276   7.021  0.4028  0.5486 -0.0844
    3MOL    C52  696   3.605   7.409   7.085  0.0680  0.3813  0.2960
    3MOL    C53  697   3.518   7.479   7.170 -0.2388  0.5401  0.2269
    3MOL    C54  698   3.561   7.597   7.235 -0.5019 -0.7833  0.1858
    3MOL    C55  699   3.692   7.649   7.204 -0.4575 -0.0681 -0.0440
    3MOL    C56  700   3.778   7.578   7.111  0.2145 -0.0006 -0.1539
    3MOL    C57  701   3.729   7.460   7.056  0.4789 -0.1867 -0.4058
    3MOL    H58  702   3.423   7.180   6.889 -1.7047  0.6426 -1.0182
    3MOL    H59  703   3.352   7.310   6.978  0.3743 -1.3735  1.3782
    3MOL    H60  704   3.638   7.237   6.955  0.2599  1.0436 -0.5443
    3MOL    H61  705   3.417   7.443   7.187  1.2633 -2.9732  2.4348
    3MOL    H62  706   3.504   7.652   7.308  1.4809  2.2830 -0.4819
    3MOL    H63  707   3.732   7.736   7.254 -0.2494 -0.1016 -0.1572
    3MOL    H64  708   3.878   7.616   7.095  0.1984  1.0920  2.1770
    3MOL    H65  709   3.797   7.408   6.989 -2.0407 -2.2431 -1.4429
    3MOL    C66  710   3.556   7.171   7.125 -0.1366  0.0271  0.0529
    3MOL    C67  711   3.539   7.020   7.088  0.4103  0.1372 -0.6216
    3MOL    C68  712   3.616   6.971   6.961 -0.0836 -0.2348 -0.5502
    3MOL    C69  713   3.755   6.935   6.965  0.1271 -0.3539  0.4927
    3MOL    C70  714   3.817   6.880   6.850 -0.4682 -1.0708 -0.2731
    3MOL    C71  715   3.754   6.873   6.729 -0.6876 -0.4821  0.7015
    3MOL    C72  716   3.616   6.898   6.719 -0.1779  0.1143  0.4197
    3MOL    C73  717   3.552   6.949   6.835 -0.5344 -0.4402 -0.2094
    3MOL    H74  718   3.475   7.200   7.193 -1.3170 -2.2731 -0.3261
    3MOL    H75  719   3.648   7.171   7.183 -0.0670 -2.2061  0.0124
    3MOL    H76  720   3.431   7.013   7.073  0.0707  0.2675  1.4971
    3MOL    H77  721   3.806   6.939   7.060  0.7093  0.8539  0.1332
    3MOL    H78  722   3.923   6.860   6.861 -0.5377 -1.8956 -0.9817
    3MOL    H79  723   3.809   6.837   6.644  0.4794 -0.2314  1.3339
    3MOL    H80  724   3.553   6.880   6.633 -0.3304  1.8892  0.1417
    3MOL    H81  725   3.445   6.965   6.831 -0.3195  1.2038  0.1649
    3MOL    C82  726   3.565   6.929   7.206  0.4421  0.8689  0.2610
    3MOL    C83  727   3.466   6.946   7.322 -0.0439  0.0269 -0.4234
    3MOL    C84  728   3.339   6.858   7.299  0.5653 -0.8920 -0.5785
    3MOL    C85  729   3.234   6.909   7.215  0.3061  0.3556  0.8222
    3MOL    C86  730   3.130   6.822   7.183  0.2764 -0.2773  0.3306
    3MOL    C87  731   3.114   6.698   7.240  0.1230  0.3628  0.4218
    3MOL    C88  732   3.215   6.646   7.321  0.6132  0.2916  0.2893
    3MOL    C89  733   3.327   6.728   7.355  0.5839 -0.0785 -0.4178
    3MOL    H90  734   3.666   6.964   7.231  0.3622  1.2155  0.1015
    3MOL    H91  735   3.573   6.824   7.177  0.7383  1.1312 -0.6406
    3MOL    H92  736   3.435   7.051   7.325  0.2150  0.0840  0.4452
    3MOL    H93  737   3.237   7.013   7.183 -2.1123  1.0081  2.5859
    3MOL    H94  738   3.054   6.863   7.117  2.2312  0.0311 -1.7742
    3MOL    H95  739   3.028   6.637   7.221  0.9902 -0.9380  0.5968
    3MOL    H96  740   3.209   6.548   7.366 -2.8084  0.3322  0.0455
    3MOL    H97  741   3.403   6.679   7.413  1.6003  1.5141 -0.3906
    3MOL    C98  742   3.535   6.907   7.457  0.1324  0.0298  0.1425
    3MOL    C99  743   3.637   7.013   7.506  0.1363  0.0247  0.1408
    3MOL   C100  744   3.566   7.143   7.551 -0.8643  0.2054  0.1336
    3MOL   C101  745   3.467   7.134   7.648  0.6567 -0.4777 -0.0540
    3MOL   C102  746   3.398   7.245   7.693  0.3072 -0.1465 -0.4490
    3MOL   C103  747   3.436   7.377   7.641  0.0344 -0.1784 -0.7025
    3MOL   C104  748   3.537   7.386   7.541 -0.3527  0.0367  0.0035
    3MOL   C105  749   3.596   7.268   7.492  0.6463  0.4699  0.3678
    3MOL   H106  750   3.599   6.820   7.445 -0.4916 -0.1675 -1.9913
    3MOL   H107  751   3.462   6.879   7.533  0.7108 -2.3223 -0.1245
    3MOL   H108  752   3.711   7.045   7.432  0.9039  0.9117  1.2874
    3MOL   H109  753   3.436   7.040   7.690 -0.5262  0.0840  0.3387
    3MOL   H110  754   3.327   7.241   7.774  2.5201  1.7470  1.6459
    3MOL   H111  755   3.401   7.471   7.682 -3.2559 -1.2622 -0.9483
    3MOL   H112  756   3.571   7.479   7.499 -2.1587  0.8609  0.3165
    3MOL   H113  757   3.664   7.285   7.410  0.6112  0.5528  0.3561
    3MOL   C114  758   3.713   6.948   7.620 -0.1484 -0.1493 -0.8334
    3MOL   C115  759   3.843   6.853   7.592  1.0640  0.2691  0.2553
    3MOL   C116  760   3.964   6.926   7.534  0.4529 -0.0799  0.0338
    3MOL   C117  761   4.038   6.856   7.437  0.5208  0.4148  0.1016
    3MOL   C118  762   4.151   6.914   7.373  0.7121 -0.5927 -0.8186
    3MOL   C119  763   4.192   7.043   7.415 -0.1632  0.0429 -0.3339
    3MOL   C120  764   4.120   7.114   7.516 -0.8249 -0.7582  0.0449
    3MOL   C121  765   4.015   7.053   7.581  0.0229 -0.7788  0.0632
    3MOL   H122  766   3.638   6.890   7.673  1.8659 -2.0194  0.0559
    3MOL   H123  767   3.749   7.032   7.680  0.9555 -2.4186  1.8067
    3MOL   H124  768   3.819   6.780   7.515  0.6636  1.7038 -1.0104
    3MOL   H125  769   3.994   6.769   7.392 -0.6117  1.5448 -1.0240
    3MOL   H126  770   4.207   6.866   7.294  1.1758  0.4073 -1.1057
    3MOL   H127  771   4.283   7.086   7.373 -0.6194  0.4863 -0.8829
    3MOL   H128  772   4.158   7.209   7.550  1.8373 -1.5835 -0.5122
    3MOL   H129  773   3.954   7.105   7.653 -1.0196 -0.4409 -1.0332
    3MOL   C130  774   3.888   6.790   7.725  0.7873  0.2872 -0.5982
    3MOL   C131  775   3.782   6.703   7.799 -0.4059  0.5289 -0.3034
    3MOL   C132  776   3.702   6.617   7.706 -0.0103  0.0981  0.3662
    3MOL   C133  777   3.563   6.621   7.712 -0.1031 -0.1510  1.0347
    3MOL   C134  778   3.488   6.538   7.624  0.5888 -0.7762 -0.1490
    3MOL   C135  779   3.557   6.463   7.522 -0.5579  0.1907  0.5689
    3MOL   C136  780   3.698   6.460   7.512 -0.1349 -0.2747 -0.5343
    3MOL   C137  781   3.769   6.542   7.606  0.3838 -0.0056 -0.0472
    3MOL   H138  782   3.908   6.869   7.797  0.5256 -0.4301  0.2803
    3MOL   H139  783   3.982   6.737   7.712  1.5381  1.3140  0.5829
    3MOL   H140  784   3.707   6.773   7.837  0.4437  1.6362 -0.6444
    3MOL   H141  785   3.509   6.682   7.784  1.0963  2.4859 -0.2540
    3MOL   H142  786   3.380   6.527   7.620  0.4440  0.3322  0.4772
    3MOL   H143  787   3.508   6.406   7.445  2.7723  0.0232 -1.5541
    3MOL   H144  788   3.751   6.395   7.444  0.7813 -0.9255  0.7731
    3MOL   H145  789   3.876   6.551   7.609  0.2391  1.8659 -0.2391
    3MOL   C146  790   3.842   6.632   7.923 -0.4737 -0.6390  0.4456
    3MOL   C147  791   3.939   6.720   8.011 -0.4768 -0.2797 -0.5903
    3MOL   C148  792   3.877   6.852   8.045  0.2803 -0.7236  0.2728
    3MOL   C149  793   3.739   6.865   8.080 -0.2773 -0.2914  0.8814
    3MOL   C150  794   3.686   6.991   8.113  0.3920  0.6908  0.1028
    3MOL   C151  795   3.777   7.098   0.020  0.4710  0.5662  0.5874
    3MOL   C152  796   3.912   7.095   8.098  0.5919 -0.0319  0.3901
    3MOL   C153  797   3.961   6.971   8.048 -0.2613  0.4285  0.1352
    3MOL   H154  798   3.894   6.540   7.896 -1.0995 -1.5802  2.3914
    3MOL   H155  799   3.771   6.584   7.991 -2.0842 -0.2614 -0.9342
    3MOL   H156  800   4.036   6.729   7.960  0.8282 -0.3193  1.8236
    3MOL   H157  801   3.670   6.783   8.064  0.4411 -0.7471  0.0921
    3MOL   H158  802   3.579   6.996   0.010  0.1215 -2.3629 -0.5493
    3MOL   H159  803   3.736   7.194   0.049  1.6088  0.1127  3.9116
    3MOL   H160  804   3.976   7.182   8.104 -0.5547  0.7693  1.3100
    3MOL   H161  805   4.063   6.972   8.015 -0.3588  1.3309 -0.1416
    3MOL   C162  806   3.971   6.651   0.032 -0.2613 -0.1272 -0.5758
    3MOL   C163  807   4.119   6.672   0.085  0.2985 -0.0936 -0.4988
    3MOL   C164  808   4.118   6.637   0.235  0.4019 -0.2342  0.4740
    3MOL   C165  809   4.077   6.506   0.269 -0.7178 -0.3250  0.1006
    3MOL   C166  810   4.058   6.468   0.404 -0.7354 -0.7506 -0.1252
    3MOL   C167  811   4.097   6.557   0.507  0.1017  0.3041  0.4253
    3MOL   C168  812   4.145   6.686   0.470  0.0556 -0.0377  0.0901
    3MOL   C169  813   4.159   6.729   0.335 -0.1385 -0.0206 -0.3387
    3MOL   H170  814   3.944   6.546   0.021 -0.5650 -0.1728  0.5887
    3MOL   H171  815   3.894   6.682   0.103 -0.1341  1.5851 -1.1519
    3MOL   H172  816   4.133   6.780   0.086 -1.6114  0.1752 -0.6153
    3MOL   H173  817   4.069   6.433   0.189 -3.6900 -0.0571  0.0986
    3MOL   H174  818   4.037   6.366   0.430  2.1776 -1.3798 -0.1195
    3MOL   H175  819   4.092   6.521   0.609  0.5209  1.9829  1.0477
    3MOL   H176  820   4.180   6.742   0.556 -0.6458 -2.7039  2.1878
    3MOL   H177  821   4.182   6.833   0.318 -1.8961 -0.0074 -2.8639
    3MOL   C178  822   4.222   6.593   0.005 -0.2776  0.6819  0.4200
    3MOL   C179  823   4.301   6.667   8.006 -0.3718  0.1583 -0.1677
    3MOL   C180  824   4.349   6.808   8.061  0.0613  0.6710  0.0774
    3MOL   C181  825   4.337   6.918   7.974 -0.4251 -0.0063 -0.4281
    3MOL   C182  826   4.387   7.050   8.006  0.7066  0.2772 -1.1204
    3MOL   C183  827   4.455   7.058   0.019  0.4309  0.0361  0.6132
    3MOL   C184  828   4.466   6.951   0.111 -0.3009 -0.1908  0.0760
    3MOL   C185  829   4.406   6.824   0.070  0.4239 -0.5713  0.3067
    3MOL   H186  830   4.180   6.499   8.084 -1.8572  1.1361  1.0618
    3MOL   H187  831   4.296   6.565   0.079 -0.3007  1.6405  0.8160
    3MOL   H188  832   4.235   6.684   7.921  1.0656  1.2866 -1.0771
    3MOL   H189  833   4.294   6.894   7.878 -1.1092 -2.6061  0.4972
    3MOL   H190  834   4.388   7.137   7.943  2.9548  1.3549  0.3253
    3MOL   H191  835   4.493   7.157   0.040  0.3405 -0.2637  2.2331
    3MOL   H192  836   4.522   6.970   0.201 -0.0859 -0.4187 -0.0073
    3MOL   H193  837   4.404   6.749   0.149 -0.8494 -0.0301  0.8122
    3MOL   C194  838   4.434   6.584   7.974  0.4142 -0.5928  0.6598
    3MOL   C195  839   4.415   6.453   7.886 -0.9498  0.3139  0.1470
    3MOL   C196  840   4.311   6.464   7.765 -0.1131  0.5551 -0.4851
    3MOL   C197  841   4.323   6.560   7.667 -0.6387 -0.0290 -0.0315
    3MOL   C198  842   4.232   6.564   7.556 -0.1453  0.5686  0.1620
    3MOL   C199  843   4.120   6.476   7.560 -0.7182  0.3160  0.0648
    3MOL   C200  844   4.102   6.384   7.660  0.4522  0.3531 -0.7831
    3MOL   C201  845   4.197   6.382   7.766  1.2344  0.3563  0.1829
    3MOL   H202  846   4.480   6.552   8.068 -0.5939 -2.1527  0.6375
    3MOL   H203  847   4.501   6.651   7.920 -1.9533  0.8162 -0.5790
    3MOL   H204  848   4.383   6.372   7.951  0.7539 -1.2291 -0.8783
    3MOL   H205  849   4.410   6.624   7.669  0.0012 -0.8433 -1.1829
    3MOL   H206  850   4.236   6.637   7.476 -0.2229  3.1072  2.3877
    3MOL   H207  851   4.053   6.465   7.477 -2.5752  0.8001  1.4809
    3MOL   H208  852   4.011   6.325   7.664 -0.4461  1.6896 -1.2436
    3MOL   H209  853   4.175   6.327   7.856 -0.0902  1.9216  0.8266
    3MOL   C210  854   4.557   6.405   7.830 -0.1008  0.0975  0.1857
    3MOL   C211  855   4.664   6.340   7.921  0.1306 -0.5439 -0.0088
    3MOL   C212  856   4.622   6.211   7.989 -0.3812 -0.2238  0.6400
    3MOL   C213  857   4.686   6.179   8.109 -0.8358 -0.4654  0.3329
    3MOL   C214  858   4.649   6.064   0.063 -0.2989  0.2634 -0.4216
    3MOL   C215  859   4.566   5.966   8.113 -0.0278  0.3293 -0.0698
    3MOL   C216  860   4.498   5.998   8.000  0.0508 -0.1342 -0.2732
    3MOL   C217  861   4.521   6.126   7.935 -0.2798  0.4097 -0.3275
    3MOL   H218  862   4.599   6.480   7.764  0.3661 -1.0053 -0.7754
    3MOL   H219  863   4.537   6.329   7.754 -0.9337 -1.8890  2.3060
    3MOL   H220  864   4.659   6.416   7.999  0.1764  0.9380 -1.4320
    3MOL   H221  865   4.757   6.246   0.040  1.0133 -2.7058  0.8327
    3MOL   H222  866   4.687   6.036   0.161  3.7090 -2.3378 -2.5500
    3MOL   H223  867   4.537   5.875   0.048  1.5827 -0.4599 -0.5521
    3MOL   H224  868   4.434   5.924   7.954 -0.8889 -0.9267  2.2225
    3MOL   H225  869   4.469   6.144   7.842  0.9279  2.2329 -0.6593
    3MOL   C226  870   4.803   6.350   7.862 -0.7567 -0.1293 -0.0482
    3MOL   C227  871   4.847   6.247   7.756  0.0759 -0.3247  0.0995
    3MOL   C228  872   4.759   6.250   7.640 -0.2444  0.1666  0.7042
    3MOL   C229  873   4.683   6.136   7.613  0.6970 -0.4371  0.1738
    3MOL   C230  874   4.584   6.133   7.514  0.1091 -0.2817 -0.4970
    3MOL   C231  875   4.575   6.242   7.427 -0.4717  0.1869  0.5097
    3MOL   C232  876   4.667   6.348   7.437 -0.3196  0.0147  0.4560
    3MOL   C233  877   4.754   6.353   7.541 -0.1671 -0.8151 -0.3750
    3MOL   H234  878   4.877   6.341   7.941 -0.7444  1.1348  0.0987
    3MOL   H235  879   4.820   6.450   7.823 -2.0649  0.9883  2.1690
    3MOL   H236  880   4.851   6.151   7.806  0.7460  0.2603  1.1983
    3MOL   H237  881   4.689   6.054   7.683  0.6201  1.4484  2.4814
    3MOL   H238  882   4.533   6.041   7.489  3.5457 -3.4829  3.6124
    3MOL   H239  883   4.497   6.252   7.353 -1.3120  2.9729  1.7340
    3MOL   H240  884   4.676   6.436   7.375 -1.0568  0.2771  0.7076
    3MOL   H241  885   4.815   6.442   7.551  0.3013 -1.1997  0.2050
    3MOL   C242  886   4.992   6.268   7.701  0.8474 -0.2822  0.1112
    3MOL   C243  887   5.104   6.213   7.797  0.2080 -0.5736  0.1069
    3MOL   C244  888   5.098   6.059   7.803  0.2768  0.2316  0.5628
    3MOL   C245  889   5.116   5.986   7.683  0.2945 -0.6802  0.4654
    3MOL   C246  890   5.111   5.841   7.688  0.5913  0.0506 -0.2747
    3MOL   C247  891   5.069   5.775   7.809 -0.3256  0.1965  0.3507
    3MOL   C248  892   5.047   5.850   7.926  0.3472 -0.9189  0.0751
    3MOL   C249  893   5.070   5.991   7.924  0.2061  0.2566  0.3681
    3MOL   H250  894   4.991   6.377   7.689  0.7567 -0.2887  0.0567
    3MOL   H251  895   5.007   6.231   7.600  0.5687  2.6679 -1.0797
    3MOL   H252  896   5.085   6.248   7.899 -0.2785  0.2913 -0.2815
    3MOL   H253  897   5.141   6.038   7.592  1.2840 -0.2481  0.9757
    3MOL   H254  898   5.130   5.783   7.598  1.1632 -1.9566  1.0990
    3MOL   H255  899   5.066   5.667   7.814 -0.4350  0.2666  2.1331
    3MOL   H256  900   5.016   5.796   8.014 -0.6334 -1.9183 -0.8753
    3MOL   H257  901   5.050   6.049   8.013 -1.0676  3.9650 -2.1986
    3MOL   C258  902   5.246   6.257   7.765 -0.4727  0.5565 -0.2800
    3MOL   C259  903   5.269   6.403   7.811  0.3332  0.0863 -0.2759
    3MOL   C260  904   5.258   6.425   7.966 -0.2881  0.7666 -0.5089
    3MOL   C261  905   5.361   6.385   8.048 -0.4960 -0.3628 -0.4522
    3MOL   C262  906   5.350   6.406   0.073 -0.2203  0.0426 -0.1644
    3MOL   C263  907   5.249   6.492   0.126 -0.5149  0.4105  0.2281
    3MOL   C264  908   5.151   6.533   0.033  0.7336 -0.2504 -0.1279
    3MOL   C265  909   5.148   6.497   8.017 -0.0971  0.2519  0.5481
    3MOL   H266  910   5.270   6.248   7.659 -1.3740 -0.2212 -0.4324
    3MOL   H267  911   5.323   6.197   7.813  1.6142  1.9094 -1.8823
    3MOL   H268  912   5.182   6.460   7.776  0.9620  1.0703 -0.2569
    3MOL   H269  913   5.446   6.327   8.013 -0.6638 -1.3122  0.6993
    3MOL   H270  914   5.427   6.370   0.140 -0.1194 -1.3609 -1.0311
    3MOL   H271  915   5.246   6.527   0.228 -0.7832  0.0449  0.3448
    3MOL   H272  916   5.074   6.599   0.069  1.5455 -0.4607  2.0894
    3MOL   H273  917   5.069   6.530   7.950 -0.6783  1.3611  1.7520
    3MOL   C274  918   5.391   6.479   7.743  0.2237 -0.0420 -0.5680
    3MOL   C275  919   5.367   6.516   7.598  0.0753  1.0371  0.1442
    3MOL   C276  920   5.260   6.625   7.592  0.0657  0.6732  0.1242
    3MOL   C277  921   5.140   6.580   7.533 -0.0409 -0.5423  0.6442
    3MOL   C278  922   5.039   6.674   7.504 -0.0243  0.6576  0.1329
    3MOL   C279  923   5.056   6.806   7.548 -0.0207  0.3593 -0.5511
    3MOL   C280  924   5.172   6.854   7.618 -0.7830  0.0764  0.4169
    3MOL   C281  925   5.279   6.762   7.632 -0.0467  0.5090 -0.3073
    3MOL   H282  926   5.483   6.424   7.763  0.4455  1.2213  2.1537
    3MOL   H283  927   5.392   6.576   7.793 -0.0629  1.2086 -2.9122
    3MOL   H284  928   5.335   6.426   7.545 -0.4399  0.7837  0.8627
    3MOL   H285  929   5.142   6.483   7.486  0.4973 -1.3941  2.3856
    3MOL   H286  930   4.960   6.643   7.438 -0.3951  0.7401  0.5405
    3MOL   H287  931   4.987   6.888   7.534 -1.0271 -0.3004  0.4154
    3MOL   H288  932   5.183   6.958   7.643  2.0559 -0.2181  0.5255
    3MOL   H289  933   5.371   6.791   7.680 -0.6581  1.5232  0.2696
    3MOL   C290  934   5.503   6.565   7.533 -0.8035 -0.6212  0.5226
    3MOL   C291  935   5.612   6.464   7.478  0.4297  0.0167  0.3404
    3MOL   C292  936   5.642   6.335   7.567  0.2092 -0.3006  0.1925
    3MOL   C293  937   5.590   6.204   7.552 -0.1008  0.0251 -0.1306
    3MOL   C294  938   5.610   6.098   7.647 -0.3151  0.4586 -0.1123
    3MOL   C295  939   5.703   6.118   7.754  0.5158  0.2460  0.1811
    3MOL   C296  940   5.766   6.242   7.761 -0.0645 -0.2340 -0.1897
    3MOL   C297  941   5.734   6.356   7.677 -0.8081 -0.1953  0.3706
    3MOL   H298  942   5.554   6.629   7.605  0.0346 -1.5218  0.7397
    3MOL   H299  943   5.480   6.619   7.441  1.0107 -0.9016 -0.1124
    3MOL   H300  944   5.705   6.520   7.484  0.7774 -0.7177  2.2194
    3MOL   H301  945   5.514   6.201   7.474 -0.5729 -0.5887  0.3514
    3MOL   H302  946   5.549   6.009   7.654 -0.2529  0.4731  0.6603
    3MOL   H303  947   5.721   6.034   7.820 -1.3124 -0.1163  0.2486
    3MOL   H304  948   5.833   6.256   7.844 -0.4810  2.1328 -0.2192
    3MOL   H305  949   5.790   6.447   7.694  1.3444 -1.2759 -0.7147
    3MOL   C306  950   5.592   6.440   7.330 -0.1614 -0.3325  0.4630
    3MOL   C307  951   5.704   6.358   7.260 -0.0485 -0.1505  0.2976
    3MOL   C308  952   5.729   6.388   7.114 -0.2977  0.5967 -0.1289
    3MOL   C309  953   5.736   6.518   7.062  0.0897 -0.1880 -0.3058
    3MOL   C310  954   5.771   6.538   6.925  0.0180 -0.4801  0.9517
    3MOL   C311  955   5.781   6.432   6.837  0.4830 -0.0350  0.1121
    3MOL   C312  956   5.772   6.302   6.883  0.1484 -0.9434 -0.2991
    3MOL   C313  957   5.742   6.281   7.022  0.5198  0.6653  0.4822
    3MOL   H314  958   5.599   6.543   7.295  0.6093 -0.9652 -1.3178
    3MOL   H315  959   5.496   6.391   7.315  1.0109 -2.5246 -0.2072
    3MOL   H316  960   5.689   6.252   7.282 -0.5924  0.5182  3.4475
    3MOL   H317  961   5.720   6.601   7.129  1.0593  1.2420 -1.8065
    3MOL   H318  962   5.784   6.633   6.876  0.5660 -1.7113 -1.3220
    3MOL   H319  963   5.798   6.453   6.732  1.2664 -0.9211  0.0503
    3MOL   H320  964   5.789   6.217   6.818  2.2350 -2.1699  1.7490
    3MOL   H321  965   5.735   6.178   7.056 -0.4472  0.9569  1.1902
    3MOL   H322  966   5.804   6.377   7.300 -1.4886  3.8629  2.3238
    4MOL     C1  967   3.770   4.901   3.993 -0.3019 -0.6510  0.1092
    4MOL     C2  968   3.809   5.026   4.075  0.5042  0.5680  0.6973
    4MOL     C3  969   3.958   5.043   4.075  0.0122  0.1311  0.5513
    4MOL     C4  970   4.035   5.022   4.188 -0.3876 -0.3608  0.2855
    4MOL     C5  971   4.178   5.027   4.174  0.4837 -0.0170 -0.6813
    4MOL     C6  972   4.234   5.059   4.046 -0.2293 -0.9562 -0.2294
    4MOL     C7  973   4.153   5.083   3.934  0.1088 -0.2791  0.2732
    4MOL     C8  974   4.017   5.064   3.945  0.2934  0.8101 -0.6011
    4MOL     H9  975   3.783   4.892   3.885 -0.7538 -1.7902  0.1504
    4MOL    H10  976   3.817   4.812   4.033  1.9609  0.3884 -0.1064
    4MOL    H11  977   3.778   5.016   4.180  0.6670  0.8455  0.7720
    4MOL    H12  978   3.996   4.999   4.286 -3.7683 -0.4841 -1.0030
    4MOL    H13  979   4.235   5.007   4.263 -0.9294 -0.0410  0.2401
    4MOL    H14  980   4.341   5.055   4.034 -0.4160  1.8139 -3.4527
    4MOL    H15  981   4.195   5.106   3.838 -0.6600 -0.8417 -0.2032
    4MOL    H16  982   3.957   5.066   3.856  2.3221 -0.7422 -2.0383
    4MOL    H17  983   3.664   4.895   4.015 -0.6660 -1.4945 -1.8149
    4MOL    C18  984   3.733   5.156   4.029 -0.7547 -0.1512 -0.4711
    4MOL    C19  985   3.762   5.280   4.113 -0.0652  0.4052 -0.2604
    4MOL    C20  986   3.729   5.401   4.029  0.7625 -0.4636  0.0013
    4MOL    C21  987   3.814   5.448   3.923 -0.2569 -0.7644  0.1787
    4MOL    C22  988   3.784   5.563   3.851 -1.2999  0.0550  0.5984
    4MOL    C23  989   3.669   5.632   3.877  0.6339  0.6002  0.0151
    4MOL    C24  990   3.578   5.588   3.975  0.2766  0.4656 -0.7305
    4MOL    C25  991   3.607   5.472   4.054  0.2902 -0.6380  0.4120
    4MOL    H26  992   3.626   5.140   4.038 -0.5558 -0.5215  1.5103
    4MOL    H27  993   3.739   5.189   3.925  1.4290  0.4111 -0.1936
    4MOL    H28  994   3.870   5.283   4.119 -0.0232  0.5926 -1.0003
    4MOL    H29  995   3.908   5.400   3.897 -0.1077 -0.6499  0.4986
    4MOL    H30  996   3.848   5.582   3.766 -2.8762  0.1909 -0.5911
    4MOL    H31  997   3.652   5.711   3.806  0.2304 -1.7724 -2.6485
    4MOL    H32  998   3.481   5.631   3.998  0.1766  0.1070 -0.4724
    4MOL    H33  999   3.531   5.447   4.127 -0.0052  1.3194  0.8105
    4MOL    C34 1000   3.702   5.281   4.251  0.2711  0.3233  0.2105
    4MOL    C35 1001   3.744   5.397   4.342  0.1301  0.2026  0.7991
    4MOL    C36 1002   3.619   5.438   4.421 -0.0100 -0.1055 -0.1335
    4MOL    C37 1003   3.579   5.571   4.412 -0.3202  0.9814 -0.2908
    4MOL    C38 1004   3.478   5.628   4.493  0.1550  0.2393  0.2283
    4MOL    C39 1005   3.401   5.538   4.573  0.1409  0.1394  0.3086
    4MOL    C40 1006   3.437   5.404   4.579 -0.6999 -0.2327  0.0251
    4MOL    C41 1007   3.542   5.352   4.497  0.1475  0.3296 -0.4137
    4MOL    H42 1008   3.732   5.189   4.303 -0.4080 -0.7416 -1.2410
    4MOL    H43 1009   3.594   5.273   4.237 -0.0588 -2.3851  3.4702
    4MOL    H44 1010   3.778   5.482   4.283 -0.4611  1.3780  2.1304
    4MOL    H45 1011   3.645   5.638   4.359  0.6860  0.3256  0.1124
    4MOL    H46 1012   3.455   5.733   4.496 -1.6584 -0.0528 -2.1665
    4MOL    H47 1013   3.329   5.584   4.639 -0.6677  0.4149 -0.7424
    4MOL    H48 1014   3.389   5.331   4.643 -0.4034  1.2124  1.9525
    4MOL    H49 1015   3.571   5.249   4.501  2.0449  0.8847  0.5824
    4MOL    C50 1016   3.863   5.351   4.430 -0.0468  0.4496  0.7488
    4MOL    C51 1017   3.895   5.456   4.548  0.0310 -0.1583  0.1771
    4MOL    C52 1018   3.988   5.407   4.655 -0.3886 -0.0553  0.2668
    4MOL    C53 1019   4.131   5.413   4.636 -0.0837 -0.7365 -0.2814
    4MOL    C54 1020   4.212   5.378   4.741  0.0919 -0.5726 -0.9123
    4MOL    C55 1021   4.153   5.326   4.856 -0.3163  0.7123 -0.1089
    4MOL    C56 1022   4.017   5.320   4.879 -0.4108 -0.7768  0.3502
    4MOL    C57 1023   3.938   5.354   4.777  0.5865 -0.2807  0.8128
    4MOL    H58 1024   3.959   5.323   4.386 -1.1788  0.1571 -1.6254
    4MOL    H59 1025   3.835   5.263   4.487 -0.5259 -0.0625 -0.2555
    4MOL    H60 1026   3.804   5.472   4.606  0.6422 -0.0571  1.1212
    4MOL    H61 1027   4.174   5.451   4.544  1.1957 -0.0526  0.5905
    4MOL    H62 1028   4.319   5.383   4.727  0.0771  0.4902 -0.6860
    4MOL    H63 1029   4.212   5.299   4.942 -0.1897 -1.8647 -0.9778
    4MOL    H64 1030   3.971   5.279   4.968 -0.4473 -1.4912  0.0036
    4MOL    H65 1031   3.831   5.344   4.789  0.3991 -0.0117 -0.4948
    4MOL    C66 1032   3.930   5.603   4.500 -0.0247  0.3893  0.0925
    4MOL    C67 1033   3.943   5.704   4.621  0.3290 -0.3382 -0.0197
    4MOL    C68 1034   4.056   5.804   4.588 -0.1239  0.5098 -0.0740
    4MOL    C69 1035   4.043   5.912   4.501 -0.1609 -0.6064  0.1696
    4MOL    C70 1036   4.153   5.994   4.468 -0.4510 -0.8217 -0.6477
    4MOL    C71 1037   4.270   5.977   4.534  0.4662  0.8330 -0.5910
    4MOL    C72 1038   4.281   5.883   4.633 -0.2645  0.3471 -0.8765
    4MOL    C73 1039   4.178   5.789   4.656  0.0724  0.5845  0.1889
    4MOL    H74 1040   3.857   5.630   4.424  0.3942  0.4072 -0.3072
    4MOL    H75 1041   4.028   5.606   4.452 -0.1996 -0.8460 -0.3695
    4MOL    H76 1042   3.982   5.648   4.706  1.3564 -1.2464 -1.0709
    4MOL    H77 1043   3.947   5.942   4.461 -0.3144  0.0404  1.0013
    4MOL    H78 1044   4.141   6.078   4.400  0.5531 -0.2053 -0.0709
    4MOL    H79 1045   4.343   6.056   4.520  0.2045  1.3486  0.7916
    4MOL    H80 1046   4.376   5.871   4.682 -0.0346  2.1739 -0.8291
    4MOL    H81 1047   4.187   5.701   4.718  1.3900 -0.8060 -1.8983
    4MOL    C82 1048   3.812   5.768   4.663 -0.5913  0.4077 -0.0231
    4MOL    C83 1049   3.804   5.866   4.776 -0.3852  0.0404  0.5818
    4MOL    C84 1050   3.666   5.929   4.764  0.2098  0.6478 -0.1357
    4MOL    C85 1051   3.651   6.065   4.740  0.2487 -0.1528 -0.2106
    4MOL    C86 1052   3.525   6.126   4.722  0.1169 -0.6786  0.4398
    4MOL    C87 1053   3.405   6.054   4.730  0.1941 -0.1617  0.0800
    4MOL    C88 1054   3.418   5.917   4.759  0.4668  0.2717 -0.5618
    4MOL    C89 1055   3.548   5.854   4.770 -0.2040  0.0789  0.0632
    4MOL    H90 1056   3.744   5.684   4.679 -0.7172  0.6847  0.9131
    4MOL    H91 1057   3.788   5.820   4.570  1.4031 -0.8995 -1.3228
    4MOL    H92 1058   3.865   5.946   4.735  0.4865 -1.3295 -0.8651
    4MOL    H93 1059   3.740   6.125   4.753  0.6349 -0.5087 -1.1221
    4MOL    H94 1060   3.514   6.234   4.726  0.4618 -0.6164 -0.2175
    4MOL    H95 1061   3.312   6.108   4.736 -0.0175 -0.6503  1.2411
    4MOL    H96 1062   3.334   5.849   4.768 -1.5943  2.2805 -3.6786
    4MOL    H97 1063   3.551   5.748   4.791  0.1235 -0.5339 -2.9793
    4MOL    C98 1064   3.842   5.812   4.917 -0.1735  0.7698  0.2266
    4MOL    C99 1065   3.986   5.859   4.969  0.3483  0.0725  0.6086
    4MOL   C100 1066   3.996   6.013   4.982 -0.1107 -0.2184 -0.1807
    4MOL   C101 1067   4.052   6.087   4.876  0.5411  0.2150 -0.2542
    4MOL   C102 1068   4.066   6.228   4.889 -0.2081 -0.3736  0.0976
    4MOL   C103 1069   4.024   6.295   5.004  0.1360 -0.1697  0.8737
    4MOL   C104 1070   3.966   6.223   5.111 -0.7327  0.0993  0.3297
    4MOL   C105 1071   3.954   6.087   5.098  0.4428 -0.1177  0.7630
    4MOL   H106 1072   3.843   5.703   4.917  1.5002  0.7344 -1.7359
    4MOL   H107 1073   3.772   5.846   4.992 -2.0381 -0.8745 -0.7098
    4MOL   H108 1074   4.048   5.835   4.883  0.6720 -1.0833  1.1552
    4MOL   H109 1075   4.081   6.026   4.791  3.0809  1.6507 -0.4468
    4MOL   H110 1076   4.108   6.274   4.801 -1.4573  2.5605  1.0054
    4MOL   H111 1077   4.027   6.403   5.008 -1.3440 -0.0454 -0.9384
    4MOL   H112 1078   3.920   6.287   5.184  0.5778  1.4054  0.0302
    4MOL   H113 1079   3.905   6.031   5.175  0.4291 -0.8854  0.2026
    4MOL   C114 1080   4.026   5.773   5.096 -0.4738 -0.5011  0.0835
    4MOL   C115 1081   4.168   5.813   5.152 -0.4554  0.1894 -0.8493
    4MOL   C116 1082   4.186   5.775   5.295  0.1877  0.5124  0.3362
    4MOL   C117 1083   4.268   5.862   5.377  0.5683  0.1021  0.2236
    4MOL   C118 1084   4.301   5.828   5.507 -0.6703  0.0492  0.0846
    4MOL   C119 1085   4.263   5.704   5.557 -0.8201 -0.1725 -0.7379
    4MOL   C120 1086   4.179   5.615   5.483 -0.1839 -0.1701  0.2227
    4MOL   C121 1087   4.146   5.650   5.351  0.0713  0.2359  0.5396
    4MOL   H122 1088   4.013   5.666   5.080  0.0704 -0.6967  0.9688
    4MOL   H123 1089   3.959   5.804   5.176 -1.7980  1.0475 -1.5886
    4MOL   H124 1090   4.180   5.922   5.149  2.4294 -0.0568  0.3206
    4MOL   H125 1091   4.305   5.957   5.342 -1.7807  0.7254 -0.6869
    4MOL   H126 1092   4.353   5.903   5.564 -2.5285 -0.5878  2.6632
    4MOL   H127 1093   4.282   5.676   5.660  1.5484 -0.7270 -1.3167
    4MOL   H128 1094   4.139   5.525   5.526 -2.7879 -0.2056 -2.1933
    4MOL   H129 1095   4.080   5.591   5.290  0.2867  0.7324 -0.1792
    4MOL   C130 1096   4.280   5.761   5.055  0.1140  0.6455  0.4941
    4MOL   C131 1097   4.410   5.842   5.064 -1.3275 -0.4727 -0.1815
    4MOL   C132 1098   4.537   5.766   5.010 -0.6484 -0.6057  0.3595
    4MOL   C133 1099   4.655   5.753   5.086 -0.8212  0.4168  0.0501
    4MOL   C134 1100   4.755   5.664   5.037  0.6176 -0.4506  0.9351
    4MOL   C135 1101   4.741   5.603   4.910  0.7302  0.0317  0.1053
    4MOL   C136 1102   4.634   5.634   4.831 -0.0481  0.0230  0.1445
    4MOL   C137 1103   4.537   5.721   4.878 -0.1831 -0.1760  0.2189
    4MOL   H138 1104   4.236   5.763   4.956 -1.9014 -1.4567  1.3005
    4MOL   H139 1105   4.285   5.654   5.077  1.9840  1.0012  1.9404
    4MOL   H140 1106   4.438   5.864   5.166 -1.7681  2.6389 -0.6846
    4MOL   H141 1107   4.658   5.786   5.189  0.3586  1.8790 -0.4374
    4MOL   H142 1108   4.841   5.643   5.099  1.8060  2.2175  0.2496
    4MOL   H143 1109   4.818   5.536   4.877  0.2955  0.6543 -2.2378
    4MOL   H144 1110   4.645   5.606   4.727 -0.2064  0.9858 -0.1361
    4MOL   H145 1111   4.456   5.748   4.812  0.4224  0.5084 -0.2479
    4MOL   C146 1112   4.394   5.981   4.994 -0.3930  0.1861 -0.5784
    4MOL   C147 1113   4.521   6.061   4.972 -0.6667  0.3004  0.3990
    4MOL   C148 1114   4.489   6.172   4.872 -0.0926 -0.3752  0.1136
    4MOL   C149 1115   4.516   6.152   4.732 -0.2737  0.3182  0.3091
    4MOL   C150 1116   4.484   6.253   4.636  0.1152 -0.4186  0.2323
    4MOL   C151 1117   4.415   6.366   4.682  0.5986 -0.1538 -0.6327
    4MOL   C152 1118   4.383   6.387   4.816  0.0209  0.8181  0.2394
    4MOL   C153 1119   4.411   6.284   4.904 -0.3187  0.2613 -0.5945
    4MOL   H154 1120   4.326   6.044   5.051 -3.0762 -1.6269 -1.7007
    4MOL   H155 1121   4.356   5.958   4.895 -0.5821 -0.8075 -0.2728
    4MOL   H156 1122   4.584   5.989   4.920  2.1953  1.6693  1.8557
    4MOL   H157 1123   4.562   6.059   4.703  0.5401  1.0175 -0.6343
    4MOL   H158 1124   4.509   6.232   4.533  1.9747  1.2062  0.3286
    4MOL   H159 1125   4.381   6.443   4.614  0.6805 -0.4184 -0.9737
    4MOL   H160 1126   4.314   6.465   4.843 -1.7450 -0.2270 -1.1384
    4MOL   H161 1127   4.381   6.300   5.006  0.9494  2.0320 -0.4764
    4MOL   C162 1128   4.593   6.115   5.100  0.7670 -0.2209  0.0540
    4MOL   C163 1129   4.727   6.183   5.077  0.1591  0.3970  0.0864
    4MOL   C164 1130   4.770   6.256   5.201 -0.5506 -1.3166 -0.7213
    4MOL   C165 1131   4.812   6.178   5.312  0.2929 -0.5541  0.2131
    4MOL   C166 1132   4.868   6.242   5.421  0.4394  0.3129  0.3569
    4MOL   C167 1133   4.866   6.380   5.433 -0.5169 -0.5717 -0.3060
    4MOL   C168 1134   4.818   6.456   5.323  0.3444 -0.1141 -0.1810
    4MOL   C169 1135   4.777   6.397   5.206  0.7119  0.6153 -0.0022
    4MOL   H170 1136   4.601   6.031   5.169  0.8214 -0.7496 -0.5933
    4MOL   H171 1137   4.521   6.175   5.156  0.2322 -0.2686 -0.5799
    4MOL   H172 1138   4.699   6.266   5.011  4.0082 -0.3948 -2.7665
    4MOL   H173 1139   4.820   6.070   5.316 -1.8432 -0.6886  1.5948
    4MOL   H174 1140   4.897   6.188   5.511 -0.7730  0.8494  1.0771
    4MOL   H175 1141   4.903   6.434   5.519 -0.4128 -2.1493  0.6691
    4MOL   H176 1142   4.830   6.562   5.337  2.8326 -0.4483  0.5842
    4MOL   H177 1143   4.745   6.459   5.123 -0.8744 -0.7997 -0.4804
    4MOL   C178 1144   4.838   6.102   5.017 -0.2015  0.5798  0.3198
    4MOL   C179 1145   4.933   6.194   4.929 -0.0324 -0.2716  0.2895
    4MOL   C180 1146   5.071   6.135   4.911  0.0785  0.5446 -0.2928
    4MOL   C181 1147   5.107   6.056   4.800 -0.2844  0.5074 -0.0347
    4MOL   C182 1148   5.242   6.012   4.787 -0.4281  0.1847 -0.4823
    4MOL   C183 1149   5.332   6.037   4.895 -0.6723 -0.1720 -0.1345
    4MOL   C184 1150   5.294   6.122   5.006 -0.0792  0.0011 -0.3921
    4MOL   C185 1151   5.164   6.170   5.009 -0.2445  0.2254  0.0300
    4MOL   H186 1152   4.802   6.013   4.965 -2.2680  1.2718  0.5092
    4MOL   H187 1153   4.900   6.056   5.094  1.4336 -0.0086 -1.3166
    4MOL   H188 1154   4.962   6.285   4.982 -2.7572  0.5020  0.4866
    4MOL   H189 1155   5.041   6.036   4.717 -0.0669 -0.7870  0.0917
    4MOL   H190 1156   5.268   5.948   4.704  2.2165  0.4941  0.0785
    4MOL   H191 1157   5.428   5.987   4.888 -0.0908  0.4470  2.9566
    4MOL   H192 1158   5.361   6.140   5.088 -0.0591 -2.6309  0.2189
    4MOL   H193 1159   5.128   6.236   5.087  0.3644  0.8667 -0.2228
    4MOL   C194 1160   4.868   6.232   4.793 -0.1787  0.1274 -0.1014
    4MOL   C195 1161   4.957   6.328   4.711 -0.4094 -0.3279 -0.0932
    4MOL   C196 1162   4.904   6.321   4.567  0.1455  0.3099 -0.5365
    4MOL   C197 1163   4.776   6.371   4.537 -0.2324 -0.2199  0.0236
    4MOL   C198 1164   4.722   6.365   4.405  0.8244 -0.7211  0.0587
    4MOL   C199 1165   4.792   6.291   4.309  0.3414  0.1833 -0.0655
    4MOL   C200 1166   4.911   6.226   4.340 -0.6718  0.1515 -0.4087
    4MOL   C201 1167   4.975   6.251   4.464  0.1872  0.3926 -0.0511
    4MOL   H202 1168   4.770   6.279   4.803  0.8104  2.4642 -0.8425
    4MOL   H203 1169   4.848   6.141   4.737 -1.9928  1.3108 -1.4360
    4MOL   H204 1170   5.059   6.288   4.712  0.0515  0.8462  1.4523
    4MOL   H205 1171   4.726   6.429   4.614 -0.9715  0.0866 -0.6727
    4MOL   H206 1172   4.632   6.421   4.386  0.0752 -1.7465  0.5833
    4MOL   H207 1173   4.755   6.285   4.208 -2.6260 -0.0328  1.0049
    4MOL   H208 1174   4.963   6.169   4.265 -0.6184 -0.1568 -0.1384
    4MOL   H209 1175   5.073   6.212   4.487  0.3051  1.2946  0.9998
    4MOL   C210 1176   4.977   6.473   4.762  0.1848  0.6441 -0.6338
    4MOL   C211 1177   5.066   6.557   4.663 -0.3343  0.3756 -0.9605
    4MOL   C212 1178   4.987   6.628   4.551 -0.7258 -1.0470 -0.0464
    4MOL   C213 1179   4.860   6.691   4.573 -0.8196 -0.6151 -0.0441
    4MOL   C214 1180   4.805   6.770   4.474 -0.1454 -0.0959  0.1764
    4MOL   C215 1181   4.875   6.799   4.358 -0.3423 -0.6254  0.1590
    4MOL   C216 1182   4.985   6.725   4.332  0.4267 -0.3773  0.0531
    4MOL   C217 1183   5.044   6.640   4.425 -1.1071 -0.1422 -0.0712
    4MOL   H218 1184   5.025   6.463   4.859  2.9748 -2.9345 -2.2793
    4MOL   H219 1185   4.878   6.515   4.782  0.4837 -0.4006  3.3384
    4MOL   H220 1186   5.144   6.491   4.626  0.0696 -0.1022  0.6841
    4MOL   H221 1187   4.802   6.675   4.662 -2.0043  1.7020 -0.3580
    4MOL   H222 1188   4.714   6.823   4.498  0.9924  1.1235  1.9272
    4MOL   H223 1189   4.838   6.877   4.293 -0.7423  0.7027  1.9357
    4MOL   H224 1190   5.037   6.738   4.238  0.2339  0.6540  0.0922
    4MOL   H225 1191   5.130   6.577   4.410 -1.0089  0.0335 -0.2418
    4MOL   C226 1192   5.146   6.671   4.740  0.2540 -0.1764  0.1875
    4MOL   C227 1193   5.266   6.621   4.821 -0.2701  0.2629  0.4042
    4MOL   C228 1194   5.374   6.575   4.730 -0.0596 -0.1123  0.4334
    4MOL   C229 1195   5.408   6.438   4.731 -1.0804  0.3729 -0.5950
    4MOL   C230 1196   5.524   6.401   4.664  0.2041  0.5304  0.0445
    4MOL   C231 1197   5.594   6.489   4.584 -0.7743 -0.1544  0.0227
    4MOL   C232 1198   5.565   6.629   4.581  0.4437 -0.3770 -0.2156
    4MOL   C233 1199   5.450   6.668   4.654  0.3247  0.0646  0.6612
    4MOL   H234 1200   5.081   6.725   4.809  1.8513 -0.0058  1.5887
    4MOL   H235 1201   5.187   6.749   4.676  0.1818  0.2004  0.5954
    4MOL   H236 1202   5.236   6.540   4.887 -3.2415  1.6651  0.8666
    4MOL   H237 1203   5.361   6.367   4.797  0.0335  0.2542  0.0793
    4MOL   H238 1204   5.555   6.298   4.669 -2.4112 -0.1854  2.3631
    4MOL   H239 1205   5.681   6.458   4.527 -0.3273 -4.2091  2.7406
    4MOL   H240 1206   5.629   6.699   4.528 -0.1856  1.2136  1.0769
    4MOL   H241 1207   5.426   6.773   4.657 -1.9601 -0.3884 -0.6797
    4MOL   C242 1208   5.319   6.733   4.918 -0.0224  0.0640  0.1306
    4MOL   C243 1209   5.244   6.714   5.054 -0.4487 -0.1526 -0.5557
    4MOL   C244 1210   5.293   6.602   5.149 -0.5008  0.1567  0.1833
    4MOL   C245 1211   5.229   6.586   5.274 -0.4504  1.1708 -0.1864
    4MOL   C246 1212   5.272   6.482   5.361 -0.0803  0.0864 -0.2769
    4MOL   C247 1213   5.384   6.403   5.322 -0.5641 -0.2047  0.2932
    4MOL   C248 1214   5.450   6.422   5.201  0.8783  0.2450  0.0992
    4MOL   C249 1215   5.412   6.527   5.115  0.0123  0.2261 -0.7379
    4MOL   H250 1216   5.294   6.832   4.879 -0.1625 -0.1064 -0.2119
    4MOL   H251 1217   5.426   6.732   4.939 -0.4544  0.9703  2.5608
    4MOL   H252 1218   5.142   6.687   5.028 -0.7200  0.2869  0.0465
    4MOL   H253 1219   5.143   6.646   5.302 -0.2431  0.7901  1.2944
    4MOL   H254 1220   5.215   6.461   5.450 -0.1792  3.1783  0.4383
    4MOL   H255 1221   5.415   6.321   5.385  1.5689  1.2076  1.1120
    4MOL   H256 1222   5.533   6.359   5.173  0.5898 -0.2457  0.3302
    4MOL   H257 1223   5.461   6.551   5.022 -1.3012 -1.0508 -1.7876
    4MOL   C258 1224   5.243   6.849   5.128  0.5030 -0.7195 -0.0305
    4MOL   C259 1225   5.135   6.947   5.076  0.2509  0.1206  1.2113
    4MOL   C260 1226   4.991   6.900   5.106 -0.4978  0.2477 -0.3994
    4MOL   C261 1227   4.947   6.886   5.242  0.1097  0.5883 -0.2097
    4MOL   C262 1228   4.819   6.849   5.272  0.0103  0.2537 -0.0795
    4MOL   C263 1229   4.730   6.817   5.170 -0.1214 -0.1330 -0.1697
    4MOL   C264 1230   4.767   6.832   5.034 -0.1824 -0.4946  0.0664
    4MOL   C265 1231   4.899   6.879   5.002  0.6907 -0.0329 -0.3638
    4MOL   H266 1232   5.342   6.894   5.116  0.3221 -0.1769  0.5168
    4MOL   H267 1233   5.221   6.848   5.235 -1.0606  1.4998 -0.3059
    4MOL   H268 1234   5.138   6.945   4.967 -1.7271 -1.0417  1.1634
    4MOL   H269 1235   5.008   6.905   5.329  0.4747  0.6195 -0.4717
    4MOL   H270 1236   4.799   6.833   5.377 -1.7239  1.4867 -0.2030
    4MOL   H271 1237   4.631   6.779   5.191 -1.2333  3.1478  0.8768
    4MOL   H272 1238   4.704   6.804   4.950 -1.3574  1.6925  0.1667
    4MOL   H273 1239   4.924   6.888   4.897 -2.2345 -0.3046 -1.1410
    4MOL   C274 1240   5.156   7.098   5.118  0.0254  0.7252  0.0986
    4MOL   C275 1241   5.284   7.168   5.071 -0.4412  0.0002 -0.4611
    4MOL   C276 1242   5.300   7.151   4.915 -0.1725 -0.4893 -0.1010
    4MOL   C277 1243   5.395   7.064   4.869  0.1138  0.2251  0.2389
    4MOL   C278 1244   5.425   7.058   4.732  0.1853  0.6924 -0.5197
    4MOL   C279 1245   5.342   7.129   4.639 -0.7819  0.5399 -0.0461
    4MOL   C280 1246   5.242   7.214   4.686 -0.0094  0.0425  0.0675
    4MOL   C281 1247   5.220   7.226   4.825  0.9100 -0.6931 -0.2395
    4MOL   H282 1248   5.160   7.107   5.226 -0.5113  0.6041  0.1285
    4MOL   H283 1249   5.070   7.160   5.090 -1.0882 -1.0401 -0.5070
    4MOL   H284 1250   5.373   7.122   5.114 -0.2917 -1.5076 -2.3117
    4MOL   H285 1251   5.468   7.015   4.932 -0.0737  0.8156  0.9251
    4MOL   H286 1252   5.511   7.001   4.700  1.9493  3.2997 -0.5326
    4MOL   H287 1253   5.363   7.129   4.533  1.5450 -0.3265  0.3870
    4MOL   H288 1254   5.177   7.260   4.613 -2.0160  1.0586  2.3872
    4MOL   H289 1255   5.150   7.299   4.864 -0.6185 -1.6320 -1.1502
    4MOL   C290 1256   5.293   7.315   5.116  0.4935  0.5228  0.4284
    4MOL   C291 1257   5.415   7.407   5.084  0.0543 -0.8973  0.2002
    4MOL   C292 1258   5.383   7.561   5.112  0.0606 -0.0116 -0.3552
    4MOL   C293 1259   5.344   7.647   5.008 -0.4117 -0.0405 -0.1421
    4MOL   C294 1260   5.334   7.787   5.034  0.4022 -0.0088 -0.3227
    4MOL   C295 1261   5.362   7.835   5.165 -0.2901 -0.0087  0.7229
    4MOL   C296 1262   5.397   7.746   5.266 -0.1573 -0.3587  0.1372
    4MOL   C297 1263   5.415   7.610   5.244 -0.1138  0.0974  0.8699
    4MOL   H298 1264   5.282   7.313   5.225 -0.1547 -1.0521  0.3589
    4MOL   H299 1265   5.200   7.358   5.081 -1.1981 -3.6281 -0.4819
    4MOL   H300 1266   5.422   7.396   4.976  0.9217 -2.6877  0.4170
    4MOL   H301 1267   5.308   7.604   4.915  0.7850  0.7673 -0.9873
    4MOL   H302 1268   5.291   7.858   4.965 -2.8442 -2.0098 -0.4754
    4MOL   H303 1269   5.341   7.938   5.192 -0.1476 -0.0549  1.0106
    4MOL   H304 1270   5.405   7.781   5.368  1.0342  2.5345 -0.8909
    4MOL   H305 1271   5.433   7.540   5.324 -0.3189 -1.6040 -0.5285
    4MOL   C306 1272   5.550   7.346   5.138  0.5950  0.0701 -0.2380
    4MOL   C307 1273   5.673   7.438   5.118 -0.0736 -0.5051  0.3951
    4MOL   C308 1274   5.787   7.420   5.207  0.4061 -0.2492 -0.1617
    4MOL   C309 1275   5.783   7.469   5.334  0.2834  0.1786  0.1056
    4MOL   C310 1276   5.885   7.423   5.424  0.3582 -0.8689 -0.7451
    4MOL   C311 1277   5.989   7.341   5.380 -0.1892  0.4647  0.0841
    4MOL   C312 1278   6.004   7.317   5.243  0.2732  0.2286  0.2878
    4MOL   C313 1279   5.894   7.353   5.160  0.5699 -0.7834  0.4952
    4MOL   H314 1280   5.573   7.247   5.099 -3.4498 -0.5840 -1.1916
    4MOL   H315 1281   5.536   7.333   5.245  0.9127 -0.8802 -0.3123
    4MOL   H316 1282   5.653   7.544   5.133 -1.7027 -1.3937  5.1684
    4MOL   H317 1283   5.702   7.533   5.366  0.1038  0.3320 -0.6573
    4MOL   H318 1284   5.866   7.442   5.529 -1.3417 -0.3065 -1.1340
    4MOL   H319 1285   6.065   7.311   5.451  0.6211 -0.5856 -1.2171
    4MOL   H320 1286   6.082   7.250   5.208  0.2862 -0.7814  2.2061
    4MOL   H321 1287   5.886   7.308   5.062 -3.3106  0.6587  0.0483
    4MOL   H322 1288   5.712   7.417   5.018 -0.7673  1.5553 -0.3375
    5MOL     C1 1289   5.860   5.569   7.260  0.5431  0.0001 -0.5345
    5MOL     C2 1290   5.752   5.659   7.325 -0.3275 -0.2771 -0.0727
    5MOL     C3 1291   5.811   5.794   7.354 -0.6673  0.1391 -0.5639
    5MOL     C4 1292   5.833   5.828   7.490 -0.0507 -0.4852 -0.1675
    5MOL     C5 1293   5.897   5.950   7.523  0.1566  0.6923  0.0549
    5MOL     C6 1294   5.928   6.041   7.420  0.0818 -1.0258  0.7055
    5MOL     C7 1295   5.908   6.008   7.290 -0.2614  0.0588 -0.3623
    5MOL     C8 1296   5.846   5.883   7.253  0.4259 -0.1571 -0.1176
    5MOL     H9 1297   5.872   5.598   7.156 -1.0254 -0.2030 -0.7724
    5MOL    H10 1298   5.952   5.558   7.319  0.4835 -3.4908 -0.9567
    5MOL    H11 1299   5.734   5.595   7.412  1.9766 -1.8257 -0.6889
    5MOL    H12 1300   5.808   5.769   7.577 -0.8266 -0.1846 -0.1818
    5MOL    H13 1301   5.898   5.974   7.628  1.3350  1.0529 -0.0285
    5MOL    H14 1302   5.964   6.139   7.450  1.1827 -0.3843 -2.4919
    5MOL    H15 1303   5.945   6.077   7.215  1.6826 -0.6079 -0.0385
    5MOL    H16 1304   5.838   5.858   7.149 -0.5688 -1.1169  0.1834
    5MOL    H17 1305   5.826   5.467   7.242  0.7415 -0.2337  0.3747
    5MOL    C18 1306   5.623   5.674   7.242  0.2917 -0.5110  0.3462
    5MOL    C19 1307   5.509   5.569   7.256 -0.9153 -0.1905 -0.5253
    5MOL    C20 1308   5.467   5.553   7.400 -0.2138  0.5635  0.1941
    5MOL    C21 1309   5.445   5.665   7.487  0.4871  0.0549  0.2580
    5MOL    C22 1310   5.403   5.646   7.619  0.1407  0.0025 -0.2965
    5MOL    C23 1311   5.393   5.514   7.666 -0.2555 -0.2717 -0.7939
    5MOL    C24 1312   5.421   5.405   7.581 -0.5002 -0.1206  0.1638
    5MOL    C25 1313   5.442   5.426   7.446  0.1651 -0.1130  0.9762
    5MOL    H26 1314   5.645   5.681   7.135  1.9496  0.0720  0.7159
    5MOL    H27 1315   5.586   5.776   7.257 -2.5394 -1.7705  2.3869
    5MOL    H28 1316   5.562   5.476   7.235 -0.6096 -0.4825  1.4118
    5MOL    H29 1317   5.460   5.768   7.457  1.2088 -0.0754  0.1587
    5MOL    H30 1318   5.385   5.725   7.691  1.1671  0.0228 -0.0543
    5MOL    H31 1319   5.365   5.500   7.769  2.1459  1.6097  0.1702
    5MOL    H32 1320   5.422   5.302   7.613  0.6888 -0.2104 -0.1577
    5MOL    H33 1321   5.454   5.340   7.381  1.8539  0.6345  0.2677
    5MOL    C34 1322   5.385   5.595   7.162 -0.1002  0.6430  0.2558
    5MOL    C35 1323   5.420   5.612   7.010  0.3153  0.4816  0.0870
    5MOL    C36 1324   5.500   5.501   6.951 -0.7286  0.4776  0.4857
    5MOL    C37 1325   5.452   5.369   6.953  0.2198  0.0056  0.2806
    5MOL    C38 1326   5.517   5.258   6.887 -0.8239 -0.2596  0.3515
    5MOL    C39 1327   5.635   5.290   6.830  0.3325 -0.0596  0.1895
    5MOL    C40 1328   5.679   5.419   6.813 -0.1510  0.4301 -0.1448
    5MOL    C41 1329   5.608   5.529   6.867 -0.3395 -0.2336 -0.1688
    5MOL    H42 1330   5.336   5.687   7.195  0.0888  2.3851 -3.9613
    5MOL    H43 1331   5.308   5.519   7.174 -0.9646  1.7407  1.8869
    5MOL    H44 1332   5.485   5.699   6.999  1.6543 -0.6521 -1.3222
    5MOL    H45 1333   5.364   5.353   7.015  0.3385  0.7918  0.6633
    5MOL    H46 1334   5.485   5.155   6.891 -1.1033 -0.4056 -3.5664
    5MOL    H47 1335   5.693   5.202   6.808  1.0299  0.5439 -0.4016
    5MOL    H48 1336   5.775   5.432   6.765  1.0328 -0.2700  1.9868
    5MOL    H49 1337   5.638   5.632   6.850 -2.0256  0.7259  2.3047
    5MOL    C50 1338   5.288   5.635   6.932 -0.2346 -0.6640  0.5418
    5MOL    C51 1339   5.199   5.759   6.975  0.3760 -0.0840  0.0193
    5MOL    C52 1340   5.278   5.890   6.996 -0.7600 -0.3249  1.0747
    5MOL    C53 1341   5.348   5.946   6.891  0.1280 -0.1427  0.3527
    5MOL    C54 1342   5.422   6.060   6.910 -0.5327 -0.1096 -0.0200
    5MOL    C55 1343   5.404   6.128   7.029 -0.2732  0.4780  0.7309
    5MOL    C56 1344   5.335   6.079   7.141  0.1193 -0.5779  0.4568
    5MOL    C57 1345   5.270   5.957   7.121  0.5456 -0.4304 -0.0846
    5MOL    H58 1346   5.221   5.549   6.937  0.0483 -0.7677  3.0746
    5MOL    H59 1347   5.313   5.647   6.826  1.1292 -1.0757  0.8090
    5MOL    H60 1348   5.150   5.733   7.068 -0.6588 -0.4889 -0.6252
    5MOL    H61 1349   5.347   5.892   6.797  1.9119  1.5953 -0.7116
    5MOL    H62 1350   5.472   6.104   6.825 -0.0361  1.6862  1.1816
    5MOL    H63 1351   5.458   6.221   7.039  0.4838  0.4691 -2.5606
    5MOL    H64 1352   5.338   6.142   7.228  0.3383 -0.3773  0.3065
    5MOL    H65 1353   5.206   5.917   7.198 -0.3953  0.7746 -0.2299
    5MOL    C66 1354   5.086   5.766   6.876  0.4237  0.0115  0.4664
    5MOL    C67 1355   4.985   5.881   6.883  0.0387 -0.4399 -0.5445
    5MOL    C68 1356   4.893   5.871   6.760  0.3047  0.0338 -0.1096
    5MOL    C69 1357   4.812   5.759   6.756 -0.2755  0.1224 -0.2082
    5MOL    C70 1358   4.735   5.717   6.645 -0.3192 -0.2681 -0.8221
    5MOL    C71 1359   4.745   5.801   6.530  0.2845  0.1506  0.1996
    5MOL    C72 1360   4.825   5.919   6.534  1.5349 -0.5576 -0.2450
    5MOL    C73 1361   4.901   5.952   6.648  0.2509 -0.5394  0.5848
    5MOL    H74 1362   5.038   5.668   6.881  1.5064 -0.6310 -1.2564
    5MOL    H75 1363   5.125   5.767   6.774 -2.1185  0.9866 -0.5632
    5MOL    H76 1364   5.051   5.967   6.871 -0.9161  0.2359 -1.0951
    5MOL    H77 1365   4.811   5.690   6.839 -0.0699  0.3970  0.0250
    5MOL    H78 1366   4.688   5.621   6.656 -0.0012 -0.3343 -0.0617
    5MOL    H79 1367   4.686   5.777   6.443 -1.3689 -3.4376  2.1893
    5MOL    H80 1368   4.844   5.977   6.445 -2.4524 -2.2911 -2.3876
    5MOL    H81 1369   4.965   6.039   6.654  1.6154 -1.5477  1.1021
    5MOL    C82 1370   4.909   5.894   7.026  0.7110  0.8471 -0.2661
    5MOL    C83 1371   4.811   6.004   7.054 -0.2883  0.1641 -0.2293
    5MOL    C84 1372   4.874   6.140   7.082 -0.0930  0.1172  0.9053
    5MOL    C85 1373   4.916   6.213   6.967 -0.5400  0.1834 -1.2579
    5MOL    C86 1374   4.960   6.346   6.985  0.0977  0.1505 -1.1194
    5MOL    C87 1375   4.971   6.394   7.115 -0.0043  0.3222  0.3296
    5MOL    C88 1376   4.943   6.317   7.231 -0.2187  0.7995 -1.2722
    5MOL    C89 1377   4.889   6.188   7.211 -0.1894 -0.1583 -0.3143
    5MOL    H90 1378   4.979   5.879   7.108 -0.1970  2.4983  0.8460
    5MOL    H91 1379   4.854   5.800   7.024  1.6903  0.2891 -1.6716
    5MOL    H92 1380   4.770   5.977   7.151  0.2928 -3.7528 -1.0122
    5MOL    H93 1381   4.927   6.159   6.874 -0.5005 -1.1744 -0.4838
    5MOL    H94 1382   4.977   6.415   6.904 -1.5926  1.5937 -0.2700
    5MOL    H95 1383   4.987   6.498   7.141 -2.4964  0.5106  1.2956
    5MOL    H96 1384   4.948   6.363   7.329  0.3922  0.0108 -0.9324
    5MOL    H97 1385   4.849   6.133   7.295  2.2862 -1.2525  0.2060
    5MOL    C98 1386   4.688   5.994   6.952  0.7807 -0.8891  0.1014
    5MOL    C99 1387   4.571   6.083   6.997 -0.5628  0.0254 -0.1327
    5MOL   C100 1388   4.470   6.103   6.882  0.8058  0.1211  0.2259
    5MOL   C101 1389   4.428   6.235   6.866 -0.5338  0.5570  0.5888
    5MOL   C102 1390   4.351   6.272   6.758  0.9387  0.5817 -0.3407
    5MOL   C103 1391   4.311   6.178   6.663  0.4706 -0.3190 -0.9038
    5MOL   C104 1392   4.360   6.042   6.672 -0.2764 -0.3569  0.1813
    5MOL   C105 1393   4.434   6.004   6.785 -0.5538 -0.4259 -0.0409
    5MOL   H106 1394   4.658   5.891   6.930 -1.0839 -0.0755 -1.3039
    5MOL   H107 1395   4.718   6.034   6.855 -0.9432 -1.1028 -0.5351
    5MOL   H108 1396   4.603   6.187   7.003 -0.0952 -0.0590 -1.0808
    5MOL   H109 1397   4.461   6.317   6.928 -1.3827 -0.0399  1.8649
    5MOL   H110 1398   4.324   6.376   6.746 -1.8351 -0.1948 -1.1014
    5MOL   H111 1399   4.241   6.203   6.585  0.1822 -0.3989 -0.6697
    5MOL   H112 1400   4.337   5.971   6.594 -0.0038  3.3268 -3.3825
    5MOL   H113 1401   4.465   5.902   6.801 -2.5686 -0.8754  1.2011
    5MOL   C114 1402   4.513   6.043   7.133 -0.5312  0.5747 -0.3010
    5MOL   C115 1403   4.437   5.910   7.129 -0.2071  0.1114  0.1507
    5MOL   C116 1404   4.520   5.780   7.167  0.3469  1.2221 -0.5610
    5MOL   C117 1405   4.487   5.657   7.106  0.5860  0.3926 -0.0763
    5MOL   C118 1406   4.543   5.536   7.148  0.3927  0.0297  0.0246
    5MOL   C119 1407   4.632   5.541   7.263  0.3328  0.1054 -0.1073
    5MOL   C120 1408   4.663   5.662   7.330 -0.3483  0.0389  0.7318
    5MOL   C121 1409   4.600   5.778   7.285 -0.5914 -0.1234  0.3320
    5MOL   H122 1410   4.444   6.120   7.165 -0.7682 -0.6471  2.2094
    5MOL   H123 1411   4.587   6.055   7.212 -0.9827  1.8449 -0.0659
    5MOL   H124 1412   4.395   5.888   7.031 -0.5405  0.2157  0.2680
    5MOL   H125 1413   4.411   5.654   7.029  1.0750 -0.3651 -0.5342
    5MOL   H126 1414   4.510   5.444   7.103 -1.3125  0.1421  0.9880
    5MOL   H127 1415   4.682   5.449   7.290  1.3196  0.3692 -1.0167
    5MOL   H128 1416   4.738   5.656   7.408  1.0436  0.6880 -0.5333
    5MOL   H129 1417   4.630   5.863   7.344  0.2605 -0.6237  0.6369
    5MOL   C130 1418   4.315   5.914   7.224 -0.0835 -0.4394 -0.3555
    5MOL   C131 1419   4.181   5.966   7.162  0.5229 -0.5406 -0.1076
    5MOL   C132 1420   4.122   5.877   7.055  0.3285 -0.5194 -0.5675
    5MOL   C133 1421   4.090   5.931   6.929  0.0695  0.0617  0.0999
    5MOL   C134 1422   4.012   5.860   6.838  0.3935 -0.7535  0.1675
    5MOL   C135 1423   3.960   5.730   6.867 -0.0805  0.3495  0.1449
    5MOL   C136 1424   3.990   5.676   6.990  1.2008  0.7157  1.9639
    5MOL   C137 1425   4.068   5.745   7.083  0.0102 -0.1970  0.3380
    5MOL   H138 1426   4.346   5.962   7.316  1.8300 -0.2418 -1.0867
    5MOL   H139 1427   4.299   5.807   7.240 -0.6173 -0.4698 -1.0103
    5MOL   H140 1428   4.206   6.063   7.118  0.6418 -0.5648 -0.0925
    5MOL   H141 1429   4.122   6.032   6.909  0.7961 -0.2921 -0.5378
    5MOL   H142 1430   4.001   5.910   6.743  3.6605  1.0095  0.6240
    5MOL   H143 1431   3.895   5.681   6.795 -1.1658 -0.4478  1.6391
    5MOL   H144 1432   3.944   5.586   7.029  0.6732 -0.1439 -0.5777
    5MOL   H145 1433   4.081   5.703   7.181 -0.4368 -0.9682  0.0643
    5MOL   C146 1434   4.077   5.989   7.280  0.3061  0.1385 -0.4738
    5MOL   C147 1435   3.932   6.011   7.238 -0.5432 -0.1033  0.5068
    5MOL   C148 1436   3.838   5.992   7.355  0.1529 -0.0724  0.5968
    5MOL   C149 1437   3.743   5.886   7.349  0.1021 -0.5277 -0.0400
    5MOL   C150 1438   3.657   5.868   7.452 -0.4577  0.4243 -0.7816
    5MOL   C151 1439   3.665   5.955   7.568  0.1262 -0.0823 -0.0675
    5MOL   C152 1440   3.751   6.068   7.572 -0.8972  0.2812 -0.0224
    5MOL   C153 1441   3.840   6.090   7.461  0.1507 -0.5382 -0.2630
    5MOL   H154 1442   4.113   6.069   7.346  0.3685 -1.1522  1.0940
    5MOL   H155 1443   4.076   5.899   7.341  0.4849  0.4901  0.0524
    5MOL   H156 1444   3.911   5.930   7.168  2.0765  0.4384 -0.9613
    5MOL   H157 1445   3.737   5.824   7.261  0.4945 -0.3757 -0.1773
    5MOL   H158 1446   3.586   5.787   7.454  0.0464 -0.0207 -1.0549
    5MOL   H159 1447   3.610   5.928   7.657 -2.6351 -1.9519 -2.2750
    5MOL   H160 1448   3.752   6.128   7.661 -1.1798 -1.7764  1.4104
    5MOL   H161 1449   3.912   6.170   7.458 -1.0556  0.5363 -1.5856
    5MOL   C162 1450   3.905   6.151   7.176  0.5780  0.4814 -0.4485
    5MOL   C163 1451   3.777   6.164   7.090 -0.2044  0.7922 -0.2328
    5MOL   C164 1452   3.750   6.308   7.058  0.1500 -0.2354 -0.3869
    5MOL   C165 1453   3.639   6.378   7.111  0.0993  0.0059 -0.3852
    5MOL   C166 1454   3.619   6.510   7.076  0.3816  0.2194  0.5217
    5MOL   C167 1455   3.705   6.573   6.987  0.3110  0.3864 -0.2788
    5MOL   C168 1456   3.816   6.507   6.933 -0.1499  0.4485  0.0209
    5MOL   C169 1457   3.839   6.373   6.968  0.3047 -0.1192  0.7139
    5MOL   H170 1458   3.988   6.164   7.106  1.6320  0.5934  0.8053
    5MOL   H171 1459   3.918   6.237   7.241 -0.2769 -0.1809  0.6156
    5MOL   H172 1460   3.708   6.122   7.164 -0.7024  1.3475 -0.3825
    5MOL   H173 1461   3.576   6.343   7.191  1.2070 -1.0111  0.0539
    5MOL   H174 1462   3.550   6.574   7.128  0.4364  1.6072 -1.0645
    5MOL   H175 1463   3.686   6.676   6.960  1.3433  0.7192  0.1928
    5MOL   H176 1464   3.873   6.564   6.861 -0.2984  1.2533  0.5219
    5MOL   H177 1465   3.927   6.322   6.932  0.5525  0.1172  0.9766
    5MOL   C178 1466   3.763   6.073   6.970 -0.0524 -1.1586  0.2210
    5MOL   C179 1467   3.627   6.059   6.893 -0.7011  0.0581 -0.2862
    5MOL   C180 1468   3.640   5.979   6.762 -0.8773 -0.3567  0.4400
    5MOL   C181 1469   3.671   5.849   6.751 -0.5863  0.5760  0.1682
    5MOL   C182 1470   3.684   5.789   6.621 -0.6077  0.7497  0.2922
    5MOL   C183 1471   3.659   5.860   6.501 -0.2288  0.2264  0.2983
    5MOL   C184 1472   3.634   5.994   6.512 -0.2681 -0.4114 -0.1776
    5MOL   C185 1473   3.623   6.050   6.639  0.1975  0.8752  0.2915
    5MOL   H186 1474   3.785   5.973   7.006 -0.4899 -1.4969 -0.4331
    5MOL   H187 1475   3.850   6.084   6.906 -0.2004 -1.1407  0.0191
    5MOL   H188 1476   3.595   6.159   6.863  2.3377  0.0751 -3.8057
    5MOL   H189 1477   3.690   5.795   6.842 -1.6983 -0.0170  0.0616
    5MOL   H190 1478   3.701   5.683   6.619 -0.6026  0.7654 -2.2820
    5MOL   H191 1479   3.659   5.809   6.406 -1.3546 -0.6916  0.7726
    5MOL   H192 1480   3.607   6.055   6.426  0.9409  1.2622  0.5950
    5MOL   H193 1481   3.583   6.150   6.641 -1.4673  0.2073  0.9911
    5MOL   C194 1482   3.507   6.003   6.975 -0.3911  0.4803  0.0243
    5MOL   C195 1483   3.364   6.042   6.938  0.0269 -0.1893 -0.2432
    5MOL   C196 1484   3.267   5.960   7.012  0.1210 -0.2968  0.7375
    5MOL   C197 1485   3.286   5.904   7.138  0.7247 -0.3034  0.2642
    5MOL   C198 1486   3.188   5.812   7.191  0.0087 -0.3018  0.6279
    5MOL   C199 1487   3.068   5.782   7.113 -0.8230 -0.0591  0.7034
    5MOL   C200 1488   3.054   5.843   6.987 -0.0493  0.2804  0.0202
    5MOL   C201 1489   3.152   5.927   6.942  0.4248 -0.6358  0.6690
    5MOL   H202 1490   3.523   6.040   7.076  1.5282  0.2413 -0.1718
    5MOL   H203 1491   3.514   5.894   6.985  0.3973  0.7221  2.5165
    5MOL   H204 1492   3.350   6.009   6.835 -1.0730 -0.0544 -0.1370
    5MOL   H205 1493   3.380   5.921   7.188  0.1211 -1.2142  1.7226
    5MOL   H206 1494   3.211   5.771   7.288  3.2174 -0.9025 -0.3038
    5MOL   H207 1495   2.984   5.721   7.142 -0.5841 -0.0079  1.5089
    5MOL   H208 1496   2.974   5.813   6.921 -0.2334  0.6431  0.0774
    5MOL   H209 1497   3.143   5.955   6.837  2.2190 -1.9037  0.1640
    5MOL   C210 1498   3.331   6.193   6.964  0.0882 -1.0520  0.4361
    5MOL   C211 1499   3.237   6.258   6.856  0.2843 -0.3990 -0.0950
    5MOL   C212 1500   3.253   6.412   6.870  1.3592  0.3001 -0.2251
    5MOL   C213 1501   3.375   6.482   6.836  0.3223 -0.6078 -0.4632
    5MOL   C214 1502   3.393   6.623   6.845 -0.2368 -0.4308 -0.3975
    5MOL   C215 1503   3.282   6.698   6.891 -0.2353  0.4956 -0.7782
    5MOL   C216 1504   3.161   6.627   6.924 -0.5759 -0.2011  0.1470
    5MOL   C217 1505   3.155   6.488   6.926 -0.3011  0.4604 -0.5678
    5MOL   H218 1506   3.425   6.247   6.975 -1.2867  1.4192  0.4000
    5MOL   H219 1507   3.283   6.197   7.061 -0.0313  1.5134  0.2983
    5MOL   H220 1508   3.132   6.233   6.872 -0.0740  0.6219 -0.7927
    5MOL   H221 1509   3.450   6.427   6.781  2.0864  0.6276  0.6518
    5MOL   H222 1510   3.486   6.670   6.818 -0.3619 -0.0967 -0.2516
    5MOL   H223 1511   3.285   6.805   6.906 -0.2335  0.2632  1.0002
    5MOL   H224 1512   3.079   6.683   6.967 -0.2381 -0.0082  0.5501
    5MOL   H225 1513   3.073   6.434   6.972 -0.0606 -1.1686 -2.0153
    5MOL   C226 1514   3.263   6.209   6.708 -0.0072  0.5161 -1.4101
    5MOL   C227 1515   3.211   6.297   6.596 -0.3063  0.7361 -0.0468
    5MOL   C228 1516   3.260   6.244   6.459 -0.3837  0.1968  0.0767
    5MOL   C229 1517   3.265   6.108   6.445 -0.3362  0.3467  0.1918
    5MOL   C230 1518   3.318   6.047   6.327 -1.0345  0.0011 -0.0947
    5MOL   C231 1519   3.363   6.131   6.222 -0.1961  0.3273 -0.3304
    5MOL   C232 1520   3.361   6.267   6.243  0.9906 -0.7463  0.5082
    5MOL   C233 1521   3.311   6.326   6.356 -0.1014 -1.1788  0.2144
    5MOL   H234 1522   3.199   6.121   6.704  0.9967 -0.3962  1.3821
    5MOL   H235 1523   3.369   6.190   6.693  0.0472 -0.9217  0.6084
    5MOL   H236 1524   3.270   6.388   6.602  0.6326  0.1831 -0.5935
    5MOL   H237 1525   3.219   6.040   6.516  1.7107 -0.0820  1.1546
    5MOL   H238 1526   3.327   5.941   6.309  0.4612 -0.1638  1.6072
    5MOL   H239 1527   3.409   6.082   6.138  1.0221  0.3766  0.3006
    5MOL   H240 1528   3.400   6.330   6.164  0.1958  1.7602  2.0616
    5MOL   H241 1529   3.309   6.433   6.368 -2.6522 -1.1867  0.1173
    5MOL   C242 1530   3.057   6.331   6.607 -0.2230 -0.0932 -0.0989
    5MOL   C243 1531   3.019   6.456   6.529  0.3791  0.2167 -0.1070
    5MOL   C244 1532   2.874   6.442   6.479 -0.3172 -0.5233 -0.0363
    5MOL   C245 1533   2.845   6.434   6.342  0.1629  0.5087 -0.2604
    5MOL   C246 1534   2.706   6.432   6.303 -0.8051  0.4031 -0.5728
    5MOL   C247 1535   2.599   6.439   6.399  0.4657  0.0787 -0.3671
    5MOL   C248 1536   2.641   6.443   6.533  0.2061  0.6263 -0.5181
    5MOL   C249 1537   2.774   6.444   6.574 -0.9295  0.4201  0.1878
    5MOL   H250 1538   3.033   6.346   6.712  1.5022  0.5482  0.2249
    5MOL   H251 1539   3.001   6.247   6.565  0.9854 -0.3819 -1.1847
    5MOL   H252 1540   3.091   6.460   6.447  0.7652 -0.9301  0.1739
    5MOL   H253 1541   2.916   6.427   6.261  0.0460  0.5678 -0.3671
    5MOL   H254 1542   2.684   6.420   6.198  0.6650 -1.0892 -0.7301
    5MOL   H255 1543   2.496   6.441   6.368  0.8408  0.9214 -1.6046
    5MOL   H256 1544   2.570   6.452   6.614  0.0842  0.5585 -0.6180
    5MOL   H257 1545   2.791   6.453   6.681  1.3380  3.2784 -0.3449
    5MOL   C258 1546   3.045   6.593   6.599  0.2090 -0.2510  0.0550
    5MOL   C259 1547   3.006   6.723   6.521 -0.0754 -0.2824 -0.2161
    5MOL   C260 1548   3.000   6.837   6.616 -0.6516 -0.3140  0.5616
    5MOL   C261 1549   2.874   6.900   6.647  0.8024  0.8095  0.1226
    5MOL   C262 1550   2.850   6.991   6.750 -0.4020 -0.4934  0.4660
    5MOL   C263 1551   2.966   7.021   6.824  0.4517 -0.6444  0.3517
    5MOL   C264 1552   3.094   6.976   6.791  0.5873  0.0758 -0.7185
    5MOL   C265 1553   3.112   6.873   6.693  0.4200  0.5757  0.1014
    5MOL   H266 1554   3.152   6.604   6.615  0.0060 -0.1592  1.3996
    5MOL   H267 1555   2.986   6.600   6.690  1.0258 -0.3405  0.5868
    5MOL   H268 1556   2.900   6.707   6.501 -0.5352 -0.6841  2.4406
    5MOL   H269 1557   2.785   6.875   6.591  1.4921  0.4394 -0.8122
    5MOL   H270 1558   2.755   7.034   6.780 -1.3522 -0.5052 -2.3795
    5MOL   H271 1559   2.978   7.096   6.901  1.1587 -1.1684  0.7498
    5MOL   H272 1560   3.183   7.017   6.837 -0.0022  0.3890  0.1764
    5MOL   H273 1561   3.207   6.827   6.673  0.9564  1.0543  1.4977
    5MOL   C274 1562   3.084   6.753   6.386 -0.1800 -1.1496  0.1352
    5MOL   C275 1563   3.054   6.893   6.335 -0.3873 -0.8469  0.3396
    5MOL   C276 1564   3.165   6.942   6.243  0.4948  0.2572 -0.0415
    5MOL   C277 1565   3.230   7.065   6.265 -0.1291 -0.2521 -0.0996
    5MOL   C278 1566   3.334   7.108   6.181  0.1871 -0.7407  0.7823
    5MOL   C279 1567   3.382   7.018   6.086  0.4322 -0.3837 -0.1955
    5MOL   C280 1568   3.311   6.902   6.056  0.1711  0.1528  0.2947
    5MOL   C281 1569   3.199   6.861   6.132 -0.3075 -0.4076 -0.2175
    5MOL   H282 1570   3.059   6.687   6.303 -1.7614  0.8948 -1.0275
    5MOL   H283 1571   3.191   6.744   6.408 -0.6193  0.2244  3.1320
    5MOL   H284 1572   3.045   6.966   6.415 -3.1478  1.8322 -2.2671
    5MOL   H285 1573   3.192   7.137   6.336 -1.1130 -1.4426  0.6101
    5MOL   H286 1574   3.380   7.205   6.189  1.1370 -0.9944 -1.2268
    5MOL   H287 1575   3.478   7.037   6.040  0.2610  2.5574  0.6057
    5MOL   H288 1576   3.353   6.840   5.979 -0.0872 -0.6253  0.7714
    5MOL   H289 1577   3.148   6.773   6.097 -1.0885 -0.0240 -0.0851
    5MOL   C290 1578   2.920   6.904   6.262  0.0207  1.0547  0.3044
    5MOL   C291 1579   2.862   7.047   6.229 -0.2727  0.1573  0.3829
    5MOL   C292 1580   2.768   7.046   6.105 -0.2489 -0.2512 -0.5212
    5MOL   C293 1581   2.787   7.146   6.009 -0.2123  0.4397  0.4245
    5MOL   C294 1582   2.708   7.146   5.895  0.5709  0.5266  0.4181
    5MOL   C295 1583   2.598   7.061   5.886  0.5635  0.0175 -1.3966
    5MOL   C296 1584   2.565   6.976   5.995  0.0551 -0.6250 -0.0348
    5MOL   C297 1585   2.656   6.961   6.098  0.0936 -0.2582 -0.2316
    5MOL   H298 1586   2.843   6.842   6.306 -1.2560  0.1639 -3.0157
    5MOL   H299 1587   2.936   6.863   6.162  0.9517  2.2149 -0.0446
    5MOL   H300 1588   2.949   7.106   6.201  1.6411 -1.9849  1.7056
    5MOL   H301 1589   2.865   7.219   6.022  2.0928 -1.8427 -0.1715
    5MOL   H302 1590   2.732   7.207   5.809  0.8654 -0.1002  0.0477
    5MOL   H303 1591   2.526   7.076   5.807 -1.5441 -0.7444  0.3459
    5MOL   H304 1592   2.477   6.913   5.993 -0.1423 -0.5037  2.8734
    5MOL   H305 1593   2.628   6.885   6.168 -0.9664 -1.5979 -2.0674
    5MOL   C306 1594   2.795   7.114   6.353  0.3990 -0.5144  0.8480
    5MOL   C307 1595   2.744   7.260   6.346 -0.1972 -0.1056  0.2250
    5MOL   C308 1596   2.688   7.321   6.474 -0.0956 -0.5315  0.4237
    5MOL   C309 1597   2.753   7.298   6.600 -0.5046 -0.0707  0.1443
    5MOL   C310 1598   2.701   7.353   6.720  0.1859  0.5222  0.1294
    5MOL   C311 1599   2.585   7.436   6.720  0.0823  0.2398  0.1722
    5MOL   C312 1600   2.524   7.465   6.598  0.4138  0.0154  0.3299
    5MOL   C313 1601   2.574   7.408   6.477 -0.0496 -0.1066  0.1121
    5MOL   H314 1602   2.873   7.107   6.429  0.7529 -1.8780  0.3763
    5MOL   H315 1603   2.706   7.055   6.374 -0.3454 -0.1496 -1.1626
    5MOL   H316 1604   2.670   7.264   6.266  0.2470  2.3986 -0.1078
    5MOL   H317 1605   2.843   7.239   6.599 -0.6932 -0.3557 -2.8336
    5MOL   H318 1606   2.745   7.325   6.815 -0.9571  0.4298  0.6390
    5MOL   H319 1607   2.541   7.458   6.816  0.4533  0.7361  0.2326
    5MOL   H320 1608   2.428   7.515   6.592  0.1224 -0.4951  0.7357
    5MOL   H321 1609   2.520   7.430   6.385 -0.1607  0.1133  0.2293
    5MOL   H322 1610   2.823   7.333   6.328 -1.5493  0.7974 -2.2978
    6MOL     C1 1611   0.905   4.138   0.276  1.1170  0.3808  0.5041
    6MOL     C2 1612   0.892   4.274   0.222 -0.2774 -0.5199 -0.0529
    6MOL     C3 1613   0.751   4.331   0.248  0.2729  0.3217 -0.7937
    6MOL     C4 1614   0.733   4.424   0.355 -0.5981  0.0163  0.2064
    6MOL     C5 1615   0.603   4.478   0.381 -0.0866  0.6295 -0.4008
    6MOL     C6 1616   0.494   4.432   0.301 -1.0521 -0.6948 -0.3566
    6MOL     C7 1617   0.515   4.348   0.187  0.2655  0.2752  0.3187
    6MOL     C8 1618   0.644   4.298   0.158 -0.0499  0.3025  0.1232
    6MOL     H9 1619   1.000   4.090   0.254  1.3445  1.5689 -1.1740
    6MOL    H10 1620   0.880   4.140   0.383  0.7518 -0.7479  0.4477
    6MOL    H11 1621   0.900   4.248   0.117  2.4179 -2.2336  0.5087
    6MOL    H12 1622   0.816   4.464   0.411  0.8894  0.1193 -2.0183
    6MOL    H13 1623   0.596   4.550   0.460  0.9932 -0.5636  0.8013
    6MOL    H14 1624   0.394   4.462   0.326 -2.1187 -1.9230 -3.0253
    6MOL    H15 1625   0.426   4.319   0.133  0.5871  1.0644 -0.6373
    6MOL    H16 1626   0.662   4.235   0.072 -0.9247 -0.4968  0.5119
    6MOL    H17 1627   0.822   4.078   0.238  0.9244  2.4641 -2.5814
    6MOL    C18 1628   1.012   4.363   0.249  0.6001  0.9365 -1.3071
    6MOL    C19 1629   1.014   4.492   0.159  0.3639 -0.5868 -0.5769
    6MOL    C20 1630   1.132   4.582   0.197 -0.2809  0.3165 -0.4596
    6MOL    C21 1631   1.264   4.525   0.215  0.1700  0.2165  0.3308
    6MOL    C22 1632   1.374   4.610   0.234 -0.3201  1.0337  0.0956
    6MOL    C23 1633   1.361   4.747   0.232 -0.0546  0.3454  0.1872
    6MOL    C24 1634   1.233   4.806   0.222 -0.2957  0.0552  0.0918
    6MOL    C25 1635   1.120   4.724   0.197  0.1315 -0.2193 -0.3182
    6MOL    H26 1636   1.104   4.309   0.230  0.5134  0.1781  0.3680
    6MOL    H27 1637   1.000   4.405   0.349 -0.6738  0.6918 -1.3455
    6MOL    H28 1638   0.922   4.547   0.180  1.0443  1.5011 -2.8125
    6MOL    H29 1639   1.283   4.422   0.240  3.5983  1.3221  2.7348
    6MOL    H30 1640   1.467   4.559   0.256 -0.6352 -0.2664 -1.5012
    6MOL    H31 1641   1.446   4.812   0.251  0.2622 -0.6898  2.4665
    6MOL    H32 1642   1.229   4.914   0.215  0.4207  0.0953  0.2497
    6MOL    H33 1643   1.026   4.773   0.178 -0.7092 -1.1689  1.2635
    6MOL    C34 1644   1.018   4.460   0.005  0.1036  0.7524  0.2975
    6MOL    C35 1645   0.893   4.478   8.037  0.5868 -0.1732 -0.4153
    6MOL    C36 1646   0.829   4.612   8.067  0.8573  0.6015 -0.4384
    6MOL    C37 1647   0.898   4.728   8.025 -0.5280  0.3076  0.0540
    6MOL    C38 1648   0.846   4.854   8.055 -0.3546 -0.2883 -0.2768
    6MOL    C39 1649   0.725   4.867   0.010  0.2818 -0.0205 -0.0918
    6MOL    C40 1650   0.657   4.755   0.052  0.4888 -0.0309 -0.1585
    6MOL    C41 1651   0.708   4.624   0.025  0.0237  0.2815 -0.3376
    6MOL    H42 1652   1.042   4.354   0.013 -2.5699  0.2038  1.6912
    6MOL    H43 1653   1.103   4.515   8.079  1.5976 -0.9147  1.0444
    6MOL    H44 1654   0.822   4.401   8.067 -2.1472  1.7240 -1.7644
    6MOL    H45 1655   0.989   4.719   7.969 -0.1802  1.1062  0.4732
    6MOL    H46 1656   0.895   4.947   8.030  1.8516 -1.5570 -0.7987
    6MOL    H47 1657   0.680   4.960   0.041  2.6136  0.8829  0.7085
    6MOL    H48 1658   0.576   4.764   0.123  0.5034  0.8450 -0.2466
    6MOL    H49 1659   0.671   4.536   0.076  1.3781 -0.1212 -0.0272
    6MOL    C50 1660   0.920   4.449   7.888  0.2438  0.0825 -0.2036
    6MOL    C51 1661   0.958   4.297   7.862 -0.4267  0.0141 -0.8249
    6MOL    C52 1662   0.840   4.197   7.890  0.3018  0.3880  0.3930
    6MOL    C53 1663   0.706   4.223   7.853 -0.5021 -0.3849 -0.1427
    6MOL    C54 1664   0.595   4.142   7.891 -0.5867  0.7627 -0.5359
    6MOL    C55 1665   0.620   4.027   7.961 -1.0809 -0.2468 -0.7718
    6MOL    C56 1666   0.752   3.996   8.007 -0.5701 -0.4181  0.3643
    6MOL    C57 1667   0.863   4.075   7.964  0.0124  0.4188 -0.1284
    6MOL    H58 1668   1.001   4.513   7.852  0.0258  0.5709  0.1729
    6MOL    H59 1669   0.844   4.489   7.821 -0.4033 -0.6326  0.0991
    6MOL    H60 1670   1.034   4.273   7.937 -0.5650  1.0222 -0.3587
    6MOL    H61 1671   0.693   4.311   7.793 -0.4807  0.2275  0.7484
    6MOL    H62 1672   0.496   4.173   7.861 -1.0438  1.4233  1.5115
    6MOL    H63 1673   0.537   3.964   7.991 -1.3259  0.0879 -0.7446
    6MOL    H64 1674   0.751   3.911   8.074  1.4917  1.0967  2.3560
    6MOL    H65 1675   0.963   4.054   7.997 -0.2255 -0.6644 -0.0741
    6MOL    C66 1676   1.005   4.265   7.726  0.0677 -0.0458 -0.6259
    6MOL    C67 1677   1.143   4.326   7.686  0.0404  0.5768 -1.3806
    6MOL    C68 1678   1.242   4.360   7.805  0.3128  0.5528 -0.3427
    6MOL    C69 1679   1.284   4.496   7.824 -0.0793  0.1220 -0.1762
    6MOL    C70 1680   1.364   4.522   7.936 -0.0020 -0.1070  0.5573
    6MOL    C71 1681   1.407   4.416   8.022 -0.5369 -0.3295  0.6551
    6MOL    C72 1682   1.374   4.284   7.995  0.0624  0.5909  0.4433
    6MOL    C73 1683   1.297   4.259   7.880  0.1425  0.8911 -0.2614
    6MOL    H74 1684   0.918   4.294   7.667 -0.5451  1.3740  0.9325
    6MOL    H75 1685   1.011   4.158   7.706 -1.3155 -0.2729  0.0813
    6MOL    H76 1686   1.136   4.424   7.639 -1.1538  0.3106 -1.7768
    6MOL    H77 1687   1.262   4.574   7.752 -1.4255  0.3430  0.4631
    6MOL    H78 1688   1.396   4.625   7.943 -0.7627  0.2820 -1.3691
    6MOL    H79 1689   1.456   4.435   0.002  0.3599 -0.1949  0.1642
    6MOL    H80 1690   1.414   4.204   8.056  1.2309  0.5871 -0.3002
    6MOL    H81 1691   1.262   4.157   7.872  1.3654  0.4164  0.2398
    6MOL    C82 1692   1.215   4.235   7.577  0.0782 -0.5532  0.4447
    6MOL    C83 1693   1.149   4.235   7.440  0.0575 -0.4064 -0.0196
    6MOL    C84 1694   1.142   4.374   7.378  0.7948 -0.4508  0.1496
    6MOL    C85 1695   1.022   4.413   7.314  0.5095  0.8881  0.3838
    6MOL    C86 1696   1.011   4.543   7.257  0.1773  0.3590 -0.9939
    6MOL    C87 1697   1.129   4.624   7.266 -0.0134  0.2612  0.0216
    6MOL    C88 1698   1.252   4.590   7.326  0.6085 -0.0422  0.5131
    6MOL    C89 1699   1.255   4.462   7.386  0.5397 -0.2932 -0.6622
    6MOL    H90 1700   1.211   4.132   7.611 -3.2876 -0.4954  0.3657
    6MOL    H91 1701   1.319   4.266   7.574 -0.4478  1.4895  2.0846
    6MOL    H92 1702   1.045   4.204   7.449 -0.5252  1.6286  0.5303
    6MOL    H93 1703   0.934   4.350   7.319  0.2898  1.1723  0.1387
    6MOL    H94 1704   0.917   4.586   7.225 -0.0897  3.0227  2.9830
    6MOL    H95 1705   1.130   4.728   7.237 -1.5112  0.1033 -0.6615
    6MOL    H96 1706   1.339   4.655   7.334  1.6504 -1.2103 -1.0564
    6MOL    H97 1707   1.339   4.432   7.446 -1.3824 -1.0026  1.7743
    6MOL    C98 1708   1.233   4.149   7.339 -0.3664  0.2591 -0.0649
    6MOL    C99 1709   1.232   3.999   7.369 -0.0289  0.5799 -0.0014
    6MOL   C100 1710   1.090   3.946   7.387 -0.3154  0.5766 -0.5999
    6MOL   C101 1711   0.998   3.940   7.278  0.0834  0.1532  0.0585
    6MOL   C102 1712   0.862   3.914   7.289 -0.2613  0.6314 -0.3908
    6MOL   C103 1713   0.813   3.903   7.420 -0.0035  0.2103 -0.7273
    6MOL   C104 1714   0.896   3.899   7.529  0.1722  0.2687  0.1667
    6MOL   C105 1715   1.038   3.924   7.516  0.8503 -0.1680  0.0566
    6MOL   H106 1716   1.337   4.182   7.335 -0.5378  0.8104  0.1252
    6MOL   H107 1717   1.189   4.168   7.241  2.1846  0.1943 -1.2589
    6MOL   H108 1718   1.286   3.980   7.462 -0.4016  1.1897  0.3386
    6MOL   H109 1719   1.049   3.958   7.185 -0.6137 -1.8028 -0.7202
    6MOL   H110 1720   0.798   3.935   7.205  1.1110  0.3584 -1.5384
    6MOL   H111 1721   0.707   3.897   7.439  0.2805  2.0055  1.7210
    6MOL   H112 1722   0.860   3.882   7.629  1.0669 -1.6801  0.1803
    6MOL   H113 1723   1.096   3.934   7.607  1.2945 -0.8445 -0.1509
    6MOL   C114 1724   1.300   3.927   7.249  0.2448  0.3260  0.4239
    6MOL   C115 1725   1.313   3.772   7.271  0.3056 -0.2234 -0.4091
    6MOL   C116 1726   1.276   3.698   7.144  0.5877  0.2252 -0.9126
    6MOL   C117 1727   1.158   3.624   7.149  0.0118  0.6311  0.5751
    6MOL   C118 1728   1.117   3.564   7.029  0.7442  0.2551 -0.2904
    6MOL   C119 1729   1.197   3.560   6.911  0.0663 -0.3335  0.4106
    6MOL   C120 1730   1.316   3.633   6.913  0.1566 -0.1059 -1.0912
    6MOL   C121 1731   1.357   3.701   7.030 -0.4619  0.1960 -0.2247
    6MOL   H122 1732   1.395   3.979   7.236  1.2118 -1.8886 -1.8285
    6MOL   H123 1733   1.238   3.944   7.161 -0.5225  1.0224  1.0874
    6MOL   H124 1734   1.238   3.729   7.338  1.8190 -1.4541  0.5330
    6MOL   H125 1735   1.093   3.618   7.236 -1.0742 -1.9542 -0.3407
    6MOL   H126 1736   1.026   3.506   7.035  0.3622  1.0575  2.1557
    6MOL   H127 1737   1.184   3.497   6.824 -1.4418 -0.8292  0.9767
    6MOL   H128 1738   1.379   3.651   6.827  1.2194  2.0020  0.0913
    6MOL   H129 1739   1.449   3.758   7.024  0.7316 -1.5927  0.7235
    6MOL   C130 1740   1.463   3.745   7.313  0.3572  0.3857  0.1494
    6MOL   C131 1741   1.508   3.783   7.451 -0.7979 -0.7187 -0.4771
    6MOL   C132 1742   1.410   3.751   7.563 -0.5762  0.6155 -1.0345
    6MOL   C133 1743   1.358   3.623   7.568  0.5320  0.1964 -0.2049
    6MOL   C134 1744   1.277   3.585   7.679 -0.2458 -0.1999  0.4648
    6MOL   C135 1745   1.248   3.678   7.777  0.3220 -0.2543  0.2727
    6MOL   C136 1746   1.305   3.809   7.778 -0.4841 -0.5833  0.8389
    6MOL   C137 1747   1.382   3.844   7.670  0.1852  0.9273 -0.9686
    6MOL   H138 1748   1.520   3.787   7.229 -0.8479  0.1780 -0.7834
    6MOL   H139 1749   1.479   3.638   7.305  0.8721  0.5270 -0.8767
    6MOL   H140 1750   1.514   3.892   7.454  0.9133 -0.7807 -0.8843
    6MOL   H141 1751   1.384   3.548   7.495  1.8900 -0.3685  0.8524
    6MOL   H142 1752   1.242   3.484   7.689 -1.2418  0.1086  0.1642
    6MOL   H143 1753   1.183   3.647   7.857 -1.6552  1.4670 -0.6347
    6MOL   H144 1754   1.279   3.883   7.853 -0.5472  0.1123  0.1354
    6MOL   H145 1755   1.427   3.942   7.665  1.3760  0.4609  0.1892
    6MOL   C146 1756   1.644   3.718   7.472 -0.1688 -0.1565 -0.4936
    6MOL   C147 1757   1.721   3.769   7.595  0.2807  0.6083 -0.6955
    6MOL   C148 1758   1.771   3.656   7.685 -0.1522  0.5643  0.0336
    6MOL   C149 1759   1.679   3.574   7.753  0.0269  1.0889 -0.3397
    6MOL   C150 1760   1.728   3.472   7.830 -0.5181  0.2173  0.1585
    6MOL   C151 1761   1.873   3.448   7.841 -0.3341 -0.0857  0.1951
    6MOL   C152 1762   1.960   3.531   7.776 -0.5531  0.1441 -0.0370
    6MOL   C153 1763   1.914   3.638   7.704 -0.1278  0.2938 -0.5485
    6MOL   H154 1764   1.712   3.722   7.387  1.5750  0.8365  0.8865
    6MOL   H155 1765   1.630   3.611   7.488  3.2843 -0.5165  0.6958
    6MOL   H156 1766   1.653   3.836   7.648 -1.1232 -1.3810  0.1053
    6MOL   H157 1767   1.572   3.584   7.751 -0.0806  0.0200 -0.3919
    6MOL   H158 1768   1.654   3.419   7.887  0.4997  1.0807  2.3542
    6MOL   H159 1769   1.914   3.365   7.896  0.7454 -0.1655 -0.7140
    6MOL   H160 1770   2.067   3.526   7.783 -0.6820 -0.1913  1.8788
    6MOL   H161 1771   1.982   3.703   7.651 -1.2238  1.8155 -0.1573
    6MOL   C162 1772   1.829   3.875   7.556 -0.2304 -0.7123 -0.1563
    6MOL   C163 1773   1.787   3.999   7.481 -0.0801  0.0199 -0.1172
    6MOL   C164 1774   1.721   4.106   7.576  0.2038  0.2549  0.4875
    6MOL   C165 1775   1.667   4.218   7.508 -0.2430 -0.1489 -0.0381
    6MOL   C166 1776   1.604   4.321   7.573  0.1748  0.3375 -0.3095
    6MOL   C167 1777   1.597   4.320   7.716  0.2792  0.4441  0.1317
    6MOL   C168 1778   1.650   4.213   7.787 -0.1555  0.1472 -0.0817
    6MOL   C169 1779   1.708   4.099   7.718 -0.2769  0.5991  0.5781
    6MOL   H170 1780   1.919   3.841   7.504 -0.8925 -0.3721 -1.5329
    6MOL   H171 1781   1.888   3.909   7.642  0.8619 -1.0366 -0.7622
    6MOL   H172 1782   1.717   3.987   7.398 -0.0410  0.3988 -0.2069
    6MOL   H173 1783   1.661   4.220   7.400  1.3750 -0.9198 -0.1650
    6MOL   H174 1784   1.572   4.409   7.518 -0.8426 -0.6133 -1.2635
    6MOL   H175 1785   1.560   4.405   7.771 -0.7957 -0.2087  0.4347
    6MOL   H176 1786   1.652   4.223   7.894 -3.0994 -2.5484  0.2945
    6MOL   H177 1787   1.741   4.018   7.782  1.7447  1.6758  0.9534
    6MOL   C178 1788   1.907   4.081   7.414 -0.9264  0.3687 -0.0968
    6MOL   C179 1789   1.968   4.015   7.291 -0.3942 -0.5801  0.1514
    6MOL   C180 1790   1.871   3.999   7.174 -0.7773 -0.3273  0.8047
    6MOL   C181 1791   1.841   3.868   7.135  0.0068 -0.2380  0.0909
    6MOL   C182 1792   1.755   3.851   7.023 -0.1960 -0.7454 -0.2086
    6MOL   C183 1793   1.691   3.960   6.956  0.0169  0.4551 -0.5401
    6MOL   C184 1794   1.726   4.097   6.985  0.0162 -0.0695 -0.7648
    6MOL   C185 1795   1.822   4.115   7.092  0.0207  0.3596 -0.3474
    6MOL   H186 1796   1.973   4.088   7.501 -1.0910  0.9325 -0.0153
    6MOL   H187 1797   1.871   4.179   7.383  1.3701  1.5086  0.7505
    6MOL   H188 1798   2.015   3.922   7.322  1.8902 -0.0064 -1.4199
    6MOL   H189 1799   1.868   3.779   7.190  0.4690 -1.5010 -2.1009
    6MOL   H190 1800   1.720   3.752   6.998  0.9879 -0.7947 -1.6891
    6MOL   H191 1801   1.605   3.947   6.891 -0.5683  0.0821  0.2935
    6MOL   H192 1802   1.681   4.178   6.930  0.1554 -0.7230 -1.8708
    6MOL   H193 1803   1.855   4.209   7.132  0.2478  0.7469 -1.4147
    6MOL   C194 1804   2.091   4.099   7.244 -0.3815  0.2133 -0.6080
    6MOL   C195 1805   2.187   4.055   7.134 -0.8473  0.2107 -0.5166
    6MOL   C196 1806   2.302   4.154   7.127  0.1250  0.3625 -0.2770
    6MOL   C197 1807   2.325   4.231   7.010  0.2249  0.2678 -0.4452
    6MOL   C198 1808   2.444   4.310   6.999  0.2028 -0.3934  0.2677
    6MOL   C199 1809   2.533   4.315   7.108 -0.5627 -0.9897 -0.3882
    6MOL   C200 1810   2.517   4.231   7.217 -0.1670 -0.1959 -0.0949
    6MOL   C201 1811   2.402   4.152   7.229  0.1932 -0.4632 -0.1333
    6MOL   H202 1812   2.148   4.112   7.337 -0.3487 -0.9607 -0.4582
    6MOL   H203 1813   2.055   4.197   7.213  0.9140  0.5314 -1.1507
    6MOL   H204 1814   2.120   4.062   7.048 -1.9283  1.0567  0.3701
    6MOL   H205 1815   2.248   4.235   6.934 -1.2769 -0.1463  1.0360
    6MOL   H206 1816   2.460   4.365   6.907 -1.1808 -0.1505  0.1583
    6MOL   H207 1817   2.617   4.383   7.100 -0.8752 -0.7845 -1.9577
    6MOL   H208 1818   2.592   4.227   7.295 -0.5751 -0.6615  0.2764
    6MOL   H209 1819   2.388   4.085   7.312  0.1068 -0.1766  0.0856
    6MOL   C210 1820   2.239   3.903   7.147  0.2307  0.7727  0.3288
    6MOL   C211 1821   2.353   3.860   7.058 -0.7226  0.5281  0.7234
    6MOL   C212 1822   2.404   3.726   7.111 -0.2587 -0.2286 -0.2114
    6MOL   C213 1823   2.319   3.613   7.121  0.1536  0.0045 -0.3841
    6MOL   C214 1824   2.365   3.505   7.196 -0.8207  0.3740 -0.0206
    6MOL   C215 1825   2.494   3.501   7.246 -0.0845 -0.3437  0.4812
    6MOL   C216 1826   2.585   3.608   7.226 -0.4210  0.6044  0.4102
    6MOL   C217 1827   2.537   3.725   7.159 -0.1580 -0.5239 -0.1011
    6MOL   H218 1828   2.151   3.846   7.114 -0.0589  1.0874  0.5547
    6MOL   H219 1829   2.248   3.879   7.253  1.0789  0.8756  0.2836
    6MOL   H220 1830   2.441   3.925   7.060  0.4848 -0.9839 -1.6401
    6MOL   H221 1831   2.216   3.625   7.091  0.1490  0.8510 -0.0620
    6MOL   H222 1832   2.298   3.421   7.207  0.7104 -1.1392 -1.7486
    6MOL   H223 1833   2.535   3.415   7.298 -0.4351  0.1207  1.5450
    6MOL   H224 1834   2.680   3.609   7.277  0.5477  1.5649 -1.3457
    6MOL   H225 1835   2.604   3.807   7.142 -0.1692 -1.1105 -3.2539
    6MOL   C226 1836   2.308   3.849   6.915 -0.8080  0.1679 -0.0494
    6MOL   C227 1837   2.414   3.882   6.814 -0.7150 -0.0100 -0.4098
    6MOL   C228 1838   2.547   3.807   6.829  0.7570  0.0669  0.6708
    6MOL   C229 1839   2.669   3.875   6.863 -0.3963 -0.1188  0.4073
    6MOL   C230 1840   2.790   3.807   6.894 -0.0383 -0.7796  0.8188
    6MOL   C231 1841   2.788   3.672   6.890  0.4797  0.0769  0.2984
    6MOL   C232 1842   2.671   3.592   6.857 -0.0257 -0.1092 -0.2860
    6MOL   C233 1843   2.555   3.664   6.826 -0.2959 -0.1844  0.2371
    6MOL   H234 1844   2.223   3.915   6.898 -1.1280  0.1732  1.4980
    6MOL   H235 1845   2.265   3.753   6.885  2.1611 -0.8676 -1.2220
    6MOL   H236 1846   2.450   3.984   6.830 -0.1005 -0.2848 -0.0215
    6MOL   H237 1847   2.657   3.982   6.852 -0.9859 -0.4444 -2.3216
    6MOL   H238 1848   2.877   3.866   6.917  1.2031 -1.9162 -0.8340
    6MOL   H239 1849   2.878   3.616   6.913 -0.0289 -0.4777  0.9581
    6MOL   H240 1850   2.672   3.484   6.858 -2.1294 -0.1491 -1.0523
    6MOL   H241 1851   2.462   3.618   6.794 -0.0717 -1.3196  1.1390
    6MOL   C242 1852   2.364   3.866   6.668 -1.0064 -0.5451 -0.5561
    6MOL   C243 1853   2.234   3.938   6.630  0.3326  0.4917 -0.3934
    6MOL   C244 1854   2.232   4.092   6.655 -0.0890  0.5519  0.5379
    6MOL   C245 1855   2.345   4.166   6.629 -0.0522 -0.0366 -0.5347
    6MOL   C246 1856   2.335   4.304   6.636  0.2880  0.4344  0.5589
    6MOL   C247 1857   2.211   4.368   6.661  0.4705 -1.4076 -0.3620
    6MOL   C248 1858   2.099   4.290   6.679 -0.2887 -0.4770  0.0316
    6MOL   C249 1859   2.106   4.148   6.677  0.0943 -0.5487 -0.3272
    6MOL   H250 1860   2.356   3.758   6.654  1.3829 -0.5488 -2.0047
    6MOL   H251 1861   2.442   3.886   6.595 -0.2183 -0.1847  0.3876
    6MOL   H252 1862   2.155   3.900   6.695 -0.4035  1.6006 -0.6341
    6MOL   H253 1863   2.438   4.122   6.598  1.0185  2.8839 -1.5688
    6MOL   H254 1864   2.420   4.364   6.606  0.9539 -0.3952  0.7598
    6MOL   H255 1865   2.201   4.475   6.656 -0.1033 -1.3342  1.8771
    6MOL   H256 1866   1.999   4.332   6.690  0.6416  2.5672 -2.4178
    6MOL   H257 1867   2.025   4.082   6.705  0.3996 -0.4287  0.8463
    6MOL   C258 1868   2.176   3.906   6.486 -0.9990  0.0142 -0.6400
    6MOL   C259 1869   2.140   3.758   6.450 -0.3499 -0.0195 -0.2382
    6MOL   C260 1870   2.074   3.683   6.572  0.0066  0.4658  0.1002
    6MOL   C261 1871   2.151   3.596   6.648 -0.5260  0.6045  0.7829
    6MOL   C262 1872   2.106   3.542   6.766 -0.2151  0.0066 -0.2293
    6MOL   C263 1873   1.974   3.571   6.811 -0.3604 -0.1696  0.4435
    6MOL   C264 1874   1.897   3.659   6.733 -0.3606  0.0905 -0.0450
    6MOL   C265 1875   1.942   3.713   6.610  0.1237  0.0896 -0.3289
    6MOL   H266 1876   2.243   3.943   6.409  1.2436  1.5142  1.9259
    6MOL   H267 1877   2.080   3.957   6.479 -0.3760  1.3408  0.2067
    6MOL   H268 1878   2.241   3.722   6.433  0.1237  0.6023  1.2250
    6MOL   H269 1879   2.249   3.568   6.612 -0.7500 -1.2169  1.5474
    6MOL   H270 1880   2.159   3.462   6.815 -0.4576  0.3115  0.5447
    6MOL   H271 1881   1.939   3.527   6.903  1.7319 -0.6521  1.0470
    6MOL   H272 1882   1.792   3.669   6.757 -0.9168 -1.5202 -1.7280
    6MOL   H273 1883   1.876   3.765   6.543 -0.9685  0.8490  1.3315
    6MOL   C274 1884   2.055   3.745   6.319  0.1783  0.1794 -0.3659
    6MOL   C275 1885   2.126   3.756   6.183 -0.3643  0.0015 -0.4322
    6MOL   C276 1886   2.251   3.670   6.177  0.1102 -0.5713  0.0876
    6MOL   C277 1887   2.378   3.729   6.173  0.2988  0.4458  0.3915
    6MOL   C278 1888   2.489   3.646   6.173  0.6154 -0.5423 -0.0220
    6MOL   C279 1889   2.481   3.504   6.166 -0.0421  0.2408  0.3376
    6MOL   C280 1890   2.355   3.446   6.152  0.0725  0.0224  0.1388
    6MOL   C281 1891   2.241   3.531   6.162 -0.2447  0.0771 -0.5660
    6MOL   H282 1892   1.957   3.791   6.308  0.0940  0.9275  2.8858
    6MOL   H283 1893   2.019   3.643   6.334 -2.3636  1.1156  0.1650
    6MOL   H284 1894   2.158   3.860   6.176 -0.5253  0.0883  0.1339
    6MOL   H285 1895   2.394   3.835   6.183 -1.6904  0.8188 -0.2106
    6MOL   H286 1896   2.581   3.701   6.177 -0.4259  1.3257 -0.9949
    6MOL   H287 1897   2.576   3.452   6.163 -0.6018 -0.9626  2.4752
    6MOL   H288 1898   2.343   3.340   6.132  0.4388  0.1842 -0.9515
    6MOL   H289 1899   2.138   3.496   6.158 -0.7490  1.6049 -1.2170
    6MOL   C290 1900   2.026   3.730   6.062 -0.2393  0.1284 -0.7486
    6MOL   C291 1901   1.950   3.861   6.014 -0.0686 -0.2665 -0.1002
    6MOL   C292 1902   1.931   3.847   5.863  0.1449 -0.6479 -0.0996
    6MOL   C293 1903   2.024   3.915   5.770 -0.0286  0.1939 -0.4787
    6MOL   C294 1904   2.010   3.893   5.633 -0.1122  0.2244 -0.2232
    6MOL   C295 1905   1.916   3.802   5.581 -0.3480 -1.1948  0.0310
    6MOL   C296 1906   1.819   3.751   5.672 -0.5335 -0.0450 -0.5914
    6MOL   C297 1907   1.832   3.770   5.810 -0.0717  0.0425 -0.0852
    6MOL   H298 1908   1.954   3.653   6.090  0.8023 -0.6494 -0.1820
    6MOL   H299 1909   2.085   3.691   5.979  0.1743  0.6771 -0.7123
    6MOL   H300 1910   2.012   3.948   6.033 -1.5318  0.7992 -0.1976
    6MOL   H301 1911   2.097   3.985   5.808  0.5207 -0.1333 -0.9206
    6MOL   H302 1912   2.079   3.951   5.573  0.7106  0.8084  1.2794
    6MOL   H303 1913   1.906   3.792   5.474  0.5783 -1.1991 -0.0598
    6MOL   H304 1914   1.742   3.686   5.633 -0.4809 -0.9214  0.7414
    6MOL   H305 1915   1.756   3.733   5.877 -1.6891 -1.4115 -2.6245
    6MOL   C306 1916   1.814   3.883   6.083 -0.2007  0.6579  0.1432
    6MOL   C307 1917   1.741   4.002   6.037  0.5683 -0.4106 -0.0005
    6MOL   C308 1918   1.600   4.015   6.099 -0.0281 -0.1776  0.8815
    6MOL   C309 1919   1.513   3.905   6.096 -0.3918 -0.1026  0.6128
    6MOL   C310 1920   1.403   3.900   6.179 -0.4194  0.1586 -0.5729
    6MOL   C311 1921   1.364   4.012   6.251 -0.4493  0.3836 -0.1619
    6MOL   C312 1922   1.451   4.129   6.256 -0.1483  0.1984 -0.8738
    6MOL   C313 1923   1.569   4.127   6.178  0.1294 -0.5234 -0.8277
    6MOL   H314 1924   1.824   3.898   6.191  1.7073  1.1749 -0.0839
    6MOL   H315 1925   1.747   3.797   6.089 -0.2012  0.5955 -0.6640
    6MOL   H316 1926   1.724   4.009   5.929  0.8089  0.3182  0.0083
    6MOL   H317 1927   1.526   3.825   6.025 -1.4690  1.0269 -0.8859
    6MOL   H318 1928   1.346   3.809   6.191  1.5478 -0.6731  3.3250
    6MOL   H319 1929   1.281   4.004   6.320  0.4176 -4.9670  0.5019
    6MOL   H320 1930   1.425   4.218   6.312  2.2180 -0.2750  1.0710
    6MOL   H321 1931   1.640   4.209   6.176 -0.4124  0.0683  2.3677
    6MOL   H322 1932   1.800   4.088   6.066 -0.6103  0.2697  0.4309
    7MOL     C1 1933   6.341   7.485   0.059  0.3581  0.6960  0.1017
    7MOL     C2 1934   6.485   7.510   0.055 -0.2749 -0.2744 -0.5332
    7MOL     C3 1935   6.516   7.653   0.098  0.3350 -0.0116  0.0614
    7MOL     C4 1936   6.503   7.700   0.233  0.6622 -1.0527 -0.4832
    7MOL     C5 1937   6.517   7.833   0.268 -0.2232  0.4594 -0.8067
    7MOL     C6 1938   6.546   7.928   0.167  0.1314 -0.1099  0.3106
    7MOL     C7 1939   6.563   7.887   0.035  0.3190  0.0662 -0.1879
    7MOL     C8 1940   6.550   7.757   0.004 -0.2128  0.7110 -0.0410
    7MOL     H9 1941   6.285   7.571   0.023  0.1075  0.0431 -1.0709
    7MOL    H10 1942   6.305   7.403   8.113 -0.2298 -0.2266  1.6493
    7MOL    H11 1943   6.517   7.512   8.065  0.1018  1.8551 -0.4085
    7MOL    H12 1944   6.487   7.630   0.314 -0.8652  0.2759  0.3948
    7MOL    H13 1945   6.517   7.865   0.371  1.6777  0.5868 -0.8262
    7MOL    H14 1946   6.554   8.033   0.193  1.0693  0.0095 -0.4211
    7MOL    H15 1947   6.578   7.963   8.075  0.5174  0.2466  0.0340
    7MOL    H16 1948   6.550   7.740   8.012 -1.9441  3.8210 -0.6039
    7MOL    H17 1949   6.286   7.470   0.152 -0.8219  0.2071 -0.6669
    7MOL    C18 1950   6.575   7.404   0.130  0.6398  0.1304 -0.2594
    7MOL    C19 1951   6.581   7.268   0.056 -0.0022 -0.0201 -0.2281
    7MOL    C20 1952   6.702   7.244   8.083  0.2632 -0.2712 -0.1299
    7MOL    C21 1953   6.688   7.185   7.956 -0.3225  0.1364  0.1358
    7MOL    C22 1954   6.798   7.160   7.868 -0.0725  0.4662  0.1834
    7MOL    C23 1955   6.926   7.205   7.906  0.4724  0.3368  0.0689
    7MOL    C24 1956   6.942   7.261   8.033 -0.4011  0.7784 -0.2798
    7MOL    C25 1957   6.830   7.276   0.002 -0.0611 -0.3834 -1.0676
    7MOL    H26 1958   6.524   7.390   0.225  0.3693 -0.3920 -0.4767
    7MOL    H27 1959   6.674   7.438   0.160  0.3773  0.2091  0.5087
    7MOL    H28 1960   6.495   7.257   8.105 -1.2588  0.6296  1.2677
    7MOL    H29 1961   6.591   7.160   7.916 -0.7398  1.6832  0.1553
    7MOL    H30 1962   6.782   7.127   7.767  1.0310  0.3491  0.0450
    7MOL    H31 1963   7.012   7.205   7.842 -0.2252  0.7133 -0.8857
    7MOL    H32 1964   7.039   7.294   8.067 -0.1948 -0.2253  0.1079
    7MOL    H33 1965   6.846   7.305   0.105 -2.9738  0.5775 -0.8449
    7MOL    C34 1966   6.581   7.144   0.150  0.3783 -0.1894  0.2125
    7MOL    C35 1967   6.441   7.103   0.193 -0.0029  0.5795  0.4801
    7MOL    C36 1968   6.356   7.062   0.070  0.3602 -0.3345  0.5601
    7MOL    C37 1969   6.232   7.113   0.048  0.0370  0.0556  0.5908
    7MOL    C38 1970   6.146   7.061   8.063  0.0023  0.5591 -0.1893
    7MOL    C39 1971   6.191   6.956   7.982 -0.2041 -0.3459 -0.9124
    7MOL    C40 1972   6.326   6.918   7.992  0.1202  0.0679 -0.4969
    7MOL    C41 1973   6.403   6.953   8.106  0.8283 -0.4079 -0.0675
    7MOL    H42 1974   6.645   7.161   0.237  0.9126 -1.5689  0.0951
    7MOL    H43 1975   6.639   7.059   0.116 -2.4446 -1.3980 -1.7746
    7MOL    H44 1976   6.388   7.187   0.239 -3.3278 -1.2366  0.1564
    7MOL    H45 1977   6.195   7.199   0.102  0.2548 -0.1717  1.1003
    7MOL    H46 1978   6.050   7.110   8.066 -0.8961 -1.2145  1.6104
    7MOL    H47 1979   6.134   6.918   7.900 -1.8666  0.2447 -0.0527
    7MOL    H48 1980   6.363   6.829   7.943  0.3147 -0.7864  1.1571
    7MOL    H49 1981   6.500   6.909   0.008  1.3564 -0.3644 -2.7489
    7MOL    C50 1982   6.446   6.979   0.292 -0.1118 -0.1707  0.5845
    7MOL    C51 1983   6.477   7.028   0.436 -0.2112 -0.4257 -0.5291
    7MOL    C52 1984   6.343   7.075   0.506  0.7531 -0.6719  0.3732
    7MOL    C53 1985   6.323   7.213   0.519 -0.4360  0.1927  0.8722
    7MOL    C54 1986   6.207   7.265   0.580  0.5172 -0.7500  0.4649
    7MOL    C55 1987   6.114   7.172   0.630  0.7886  0.3596 -0.7629
    7MOL    C56 1988   6.126   7.032   0.618  0.4332  0.0839  0.3100
    7MOL    C57 1989   6.243   6.984   0.553  0.0085 -0.1125  0.2369
    7MOL    H58 1990   6.507   6.896   0.257 -0.5712 -0.0044 -0.6264
    7MOL    H59 1991   6.355   6.921   0.286  0.7311 -1.7565  2.5759
    7MOL    H60 1992   6.551   7.107   0.434  1.0332 -1.5011  1.2742
    7MOL    H61 1993   6.400   7.284   0.493 -1.2677  0.7830 -0.0119
    7MOL    H62 1994   6.196   7.373   0.583  1.1929 -0.5218 -3.0436
    7MOL    H63 1995   6.028   7.214   0.680  2.0014  0.2349  1.5029
    7MOL    H64 1996   6.058   6.965   0.669 -2.1099  0.4198 -2.5435
    7MOL    H65 1997   6.268   6.879   0.564 -1.7242 -0.3540  1.9746
    7MOL    C66 1998   6.533   6.922   0.530 -0.2432 -0.4546 -0.0333
    7MOL    C67 1999   6.579   6.963   0.671 -0.3159 -0.1046  0.5179
    7MOL    C68 2000   6.551   6.858   0.774 -0.0654 -0.3884  0.0495
    7MOL    C69 2001   6.607   6.727   0.773 -0.2772 -0.0525 -0.3681
    7MOL    C70 2002   6.576   6.638   0.880  0.3392 -0.0792  0.0244
    7MOL    C71 2003   6.478   6.673   0.976 -0.1454 -0.5825  1.2181
    7MOL    C72 2004   6.423   6.803   0.967 -0.4984  0.7908  0.4622
    7MOL    C73 2005   6.455   6.896   0.867  0.5594  0.4325  0.2308
    7MOL    H74 2006   6.617   6.872   0.480 -1.1637 -1.7935 -0.2845
    7MOL    H75 2007   6.464   6.837   0.531  0.2799 -0.8857  1.3765
    7MOL    H76 2008   6.522   7.052   0.694  0.1203  0.7505 -1.5856
    7MOL    H77 2009   6.683   6.696   0.703  0.0941 -1.6345  0.7085
    7MOL    H78 2010   6.617   6.538   0.884  0.2007 -0.1270  0.2329
    7MOL    H79 2011   6.447   6.594   1.043 -1.3286 -0.9075  0.3020
    7MOL    H80 2012   6.343   6.825   1.037 -2.9874 -2.3152 -1.2297
    7MOL    H81 2013   6.397   6.988   0.867 -2.4504 -1.3160  4.0437
    7MOL    C82 2014   6.732   7.003   0.683 -0.4635  0.4469 -0.5261
    7MOL    C83 2015   6.775   7.118   0.592 -0.7369 -0.0797 -0.1708
    7MOL    C84 2016   6.697   7.248   0.607 -0.3510  0.0644  0.3808
    7MOL    C85 2017   6.708   7.346   0.507  0.7233 -0.0635  0.2629
    7MOL    C86 2018   6.657   7.473   0.525 -0.7276  0.1988  0.5422
    7MOL    C87 2019   6.585   7.505   0.641  0.1382  0.1157  0.3930
    7MOL    C88 2020   6.577   7.412   0.744 -0.6643  0.1534 -0.0386
    7MOL    C89 2021   6.633   7.284   0.729 -0.1652 -0.4833 -0.5921
    7MOL    H90 2022   6.784   6.909   0.667 -0.4863  0.1786  0.8995
    7MOL    H91 2023   6.756   7.029   0.786 -2.4775 -0.6729  0.2544
    7MOL    H92 2024   6.765   7.082   0.489 -0.3082 -0.1013 -0.2054
    7MOL    H93 2025   6.760   7.329   0.414  0.8536  1.5864  0.0177
    7MOL    H94 2026   6.678   7.544   0.447  3.6437 -1.8080 -0.2724
    7MOL    H95 2027   6.545   7.604   0.654 -0.2741 -0.0104  0.0901
    7MOL    H96 2028   6.531   7.426   0.841  0.3118 -1.4837  0.6733
    7MOL    H97 2029   6.628   7.215   0.813 -0.4095 -1.6481 -1.5445
    7MOL    C98 2030   6.928   7.147   0.606  0.3815  0.5575 -0.1696
    7MOL    C99 2031   7.022   7.024   0.585 -0.3242 -0.0140 -0.0556
    7MOL   C100 2032   6.994   6.946   0.458  0.2893  0.0541 -0.2712
    7MOL   C101 2033   6.947   7.014   0.343 -0.7375 -0.5554 -0.2967
    7MOL   C102 2034   6.931   6.943   0.226  0.4897 -0.0433  0.5932
    7MOL   C103 2035   6.952   6.804   0.223 -0.2327 -0.4842  0.2253
    7MOL   C104 2036   6.998   6.732   0.335 -0.6747 -0.1038 -0.0440
    7MOL   C105 2037   7.020   6.805   0.453  0.2640  0.7082 -0.0989
    7MOL   H106 2038   6.951   7.182   0.707 -2.3554  3.3953 -0.4306
    7MOL   H107 2039   6.952   7.236   0.547 -3.5797  0.9797 -1.3253
    7MOL   H108 2040   7.005   6.958   0.671  0.1287  0.6423  0.5445
    7MOL   H109 2041   6.932   7.121   0.344  2.4759 -0.0359 -0.5475
    7MOL   H110 2042   6.907   7.000   0.138 -0.6926 -0.0838  0.8667
    7MOL   H111 2043   6.942   6.756   0.127 -1.2665 -2.2264  1.1937
    7MOL   H112 2044   7.025   6.628   0.331 -0.4252 -0.0373 -0.1242
    7MOL   H113 2045   7.065   6.765   0.543 -1.4098  1.7776  1.2379
    7MOL   C114 2046   7.174   7.059   0.583 -0.7506 -0.1390 -0.1023
    7MOL   C115 2047   7.238   7.125   0.709 -0.1253  0.2374  0.4290
    7MOL   C116 2048   7.216   7.036   0.838  0.0810 -0.0858  0.3766
    7MOL   C117 2049   7.131   7.084   0.935 -0.1854 -0.1886 -0.0939
    7MOL   C118 2050   7.083   7.014   1.045  0.5942 -0.5484 -0.6472
    7MOL   C119 2051   7.126   6.880   1.059  0.3205 -0.6944 -0.4407
    7MOL   C120 2052   7.219   6.827   0.968 -0.8650 -0.2576  0.5001
    7MOL   C121 2053   7.258   6.904   0.856  0.5993 -0.2296 -0.4969
    7MOL   H122 2054   7.193   7.126   0.499  0.1144  0.2850  0.4297
    7MOL   H123 2055   7.229   6.970   0.552 -3.2091 -2.5335  2.0786
    7MOL   H124 2056   7.181   7.215   0.732 -2.4759 -0.7593 -1.3276
    7MOL   H125 2057   7.086   7.181   0.917 -0.1148 -0.3340 -1.0600
    7MOL   H126 2058   7.026   7.061   1.124  0.6161 -1.1534 -0.2635
    7MOL   H127 2059   7.088   6.830   1.147  1.8715  0.4722  0.9245
    7MOL   H128 2060   7.260   6.728   0.983  3.5894  0.7805 -3.5115
    7MOL   H129 2061   7.313   6.850   0.781 -0.0306  0.4378 -1.4632
    7MOL   C130 2062   7.385   7.162   0.692 -0.1713 -0.0069  0.3389
    7MOL   C131 2063   7.472   7.218   0.809  0.2839  0.4070  0.0897
    7MOL   C132 2064   7.615   7.240   0.762  0.1833  0.1850  0.3526
    7MOL   C133 2065   7.683   7.122   0.734  0.2677 -0.0907  0.1764
    7MOL   C134 2066   7.819   7.119   0.692  0.7510  0.0352  0.5466
    7MOL   C135 2067   7.890   7.239   0.696  0.0204  0.2289 -0.2427
    7MOL   C136 2068   7.824   7.362   0.726  0.4585 -0.4257  0.0473
    7MOL   C137 2069   7.684   7.364   0.758 -0.3209 -0.2783 -0.6637
    7MOL   H138 2070   7.393   7.248   0.625 -0.8255 -2.2863 -2.7797
    7MOL   H139 2071   7.432   7.073   0.650 -0.0789  0.6255 -0.9442
    7MOL   H140 2072   7.476   7.137   0.882  0.2189  0.2385 -0.0954
    7MOL   H141 2073   7.638   7.024   0.733  0.5303 -0.2150  0.4769
    7MOL   H142 2074   7.867   7.029   0.656  0.7589  0.0246  0.5819
    7MOL   H143 2075   7.994   7.240   0.666  0.6973  0.9002  2.0683
    7MOL   H144 2076   7.873   7.457   0.737 -1.8382  0.9089 -1.0051
    7MOL   H145 2077   7.637   7.458   0.779  0.3050  0.2135 -1.4377
    7MOL   C146 2078   7.405   7.330   0.887 -0.2621 -0.0387  0.2496
    7MOL   C147 2079   7.463   7.361   1.027  0.1043  0.3136 -0.0679
    7MOL   C148 2080   7.402   7.493   1.073 -0.5909  0.2373 -0.5045
    7MOL   C149 2081   7.489   7.601   1.110 -0.0137  0.1994  0.2232
    7MOL   C150 2082   7.437   7.720   1.163  0.9537  0.1708  0.5466
    7MOL   C151 2083   7.293   7.732   1.166  0.3379  0.5054 -0.5483
    7MOL   C152 2084   7.205   7.631   1.133 -0.2082  0.4393 -0.6132
    7MOL   C153 2085   7.264   7.505   1.098 -0.2170  0.7113 -0.5336
    7MOL   H154 2086   7.300   7.305   0.902  0.4467 -1.6076  3.0463
    7MOL   H155 2087   7.408   7.419   0.824 -2.5015 -1.0939 -1.4216
    7MOL   H156 2088   7.570   7.380   1.019  0.0626  0.8752  0.6067
    7MOL   H157 2089   7.595   7.602   1.088 -0.2374 -2.6699 -1.2472
    7MOL   H158 2090   7.491   7.808   1.196  0.5014  0.7256 -0.1566
    7MOL   H159 2091   7.253   7.826   1.202  2.5359  0.0617  3.3698
    7MOL   H160 2092   7.097   7.643   1.140 -0.1351 -0.3093  2.2701
    7MOL   H161 2093   7.191   7.427   1.082 -0.5720  0.8357  0.3953
    7MOL   C162 2094   7.434   7.249   1.133 -0.3427  0.3932 -0.5699
    7MOL   C163 2095   7.542   7.144   1.161 -0.1012  0.9864  0.1922
    7MOL   C164 2096   7.683   7.205   1.182 -1.0604  0.5917 -0.3950
    7MOL   C165 2097   7.704   7.280   1.298 -0.3953 -0.1326 -0.6671
    7MOL   C166 2098   7.826   7.345   1.316 -0.0189  0.0743  0.1950
    7MOL   C167 2099   7.921   7.327   1.219 -0.1318  0.0950 -0.4147
    7MOL   C168 2100   7.905   7.257   1.096  0.4765  0.7927  0.0951
    7MOL   C169 2101   7.784   7.192   1.089 -0.1122  0.1563 -0.0157
    7MOL   H170 2102   7.342   7.194   1.114 -0.9663  0.4696  2.0110
    7MOL   H171 2103   7.430   7.310   1.223 -0.2698  0.8929 -0.9013
    7MOL   H172 2104   7.545   7.083   1.071  0.1584  0.4697  0.5512
    7MOL   H173 2105   7.627   7.291   1.373 -0.6716  0.0045 -0.9690
    7MOL   H174 2106   7.863   7.402   1.400 -0.0017  1.9398 -1.0312
    7MOL   H175 2107   8.017   7.374   1.231 -0.9591  1.2375  2.1589
    7MOL   H176 2108   7.983   7.250   1.022  0.7428 -2.3144  0.6172
    7MOL   H177 2109   7.770   7.139   0.996  0.1160  1.5676 -0.8752
    7MOL   C178 2110   7.499   7.057   1.277  0.1194  0.4740 -0.2740
    7MOL   C179 2111   7.588   6.955   1.328 -0.8385 -0.3731  0.2125
    7MOL   C180 2112   7.541   6.897   1.466  0.1452  0.9125 -0.3415
    7MOL   C181 2113   7.635   6.886   1.569 -0.3613 -0.2423  0.1957
    7MOL   C182 2114   7.594   6.851   1.701 -0.2488  0.2603  0.5664
    7MOL   C183 2115   7.462   6.829   1.722  0.5047 -0.1371  0.7978
    7MOL   C184 2116   7.364   6.825   1.618  0.0059  1.2303 -0.2276
    7MOL   C185 2117   7.406   6.864   1.485  0.2880  0.6310  0.6439
    7MOL   H186 2118   7.411   6.998   1.251  2.3122 -1.7439 -3.0032
    7MOL   H187 2119   7.485   7.127   1.359 -0.6731  1.3611 -1.1500
    7MOL   H188 2120   7.675   7.019   1.345 -2.0413  1.3904 -0.1763
    7MOL   H189 2121   7.737   6.919   1.556 -0.6088  0.9417  1.1024
    7MOL   H190 2122   7.658   6.859   1.787  0.2228  0.5018  0.2005
    7MOL   H191 2123   7.421   6.800   1.818 -2.0169 -1.2690 -0.5644
    7MOL   H192 2124   7.265   6.787   1.639  0.1609  1.0902  0.2626
    7MOL   H193 2125   7.343   6.852   1.399  2.5967 -0.7936 -0.9193
    7MOL   C194 2126   7.636   6.840   1.235  0.4458  0.0656 -0.6247
    7MOL   C195 2127   7.783   6.825   1.187  0.7618  0.0995 -0.6868
    7MOL   C196 2128   7.875   6.800   1.304 -0.0452 -0.1256  0.4724
    7MOL   C197 2129   7.969   6.900   1.342  0.0300 -0.1498  0.2189
    7MOL   C198 2130   8.055   6.881   1.447  0.0929 -0.4582 -0.4174
    7MOL   C199 2131   8.049   6.759   1.518  0.3797 -0.9210 -0.4085
    7MOL   C200 2132   7.954   6.661   1.478  0.5589  0.2039 -0.7517
    7MOL   C201 2133   7.854   6.686   1.381 -0.1656 -0.1550  0.3522
    7MOL   H202 2134   7.568   6.838   1.149 -1.4785 -0.9134  0.8809
    7MOL   H203 2135   7.602   6.749   1.284  0.6436  0.6493  0.6054
    7MOL   H204 2136   7.820   6.917   1.141 -0.5914  0.9463 -0.1265
    7MOL   H205 2137   7.962   6.995   1.291 -1.1745  0.1649  0.9394
    7MOL   H206 2138   0.007   6.954   1.489 -0.7715 -2.5445  5.0199
    7MOL   H207 2139   0.002   6.730   1.598  1.9560 -2.2700 -2.1885
    7MOL   H208 2140   7.957   6.561   1.521  2.6400  0.5475  0.0037
    7MOL   H209 2141   7.771   6.622   1.357  0.5600 -0.8917 -0.1795
    7MOL   C210 2142   7.787   6.704   1.089 -0.2130  0.4673  0.6670
    7MOL   C211 2143   7.932   6.667   1.046  0.4217  0.2954 -0.1667
    7MOL   C212 2144   7.928   6.527   0.986  0.1270  0.3778  0.2843
    7MOL   C213 2145   8.050   6.459   0.968  0.2389  0.7566  0.1117
    7MOL   C214 2146   8.052   6.333   0.905 -0.1448  0.2329 -0.0959
    7MOL   C215 2147   7.934   6.280   0.852 -0.1036 -0.3878  0.1824
    7MOL   C216 2148   7.812   6.346   0.861  0.4198 -0.5166  0.0445
    7MOL   C217 2149   7.808   6.475   0.922 -0.2571  0.7674 -0.0076
    7MOL   H218 2150   7.729   6.724   0.999  2.0618  1.1404 -0.6917
    7MOL   H219 2151   7.748   6.617   1.142 -0.0631  0.4307  0.7173
    7MOL   H220 2152   7.992   6.664   1.137  0.1109  1.5734  0.0971
    7MOL   H221 2153   0.020   6.495   1.025 -1.5881  0.8454  2.8672
    7MOL   H222 2154   0.032   6.282   0.905 -0.3295 -0.1176  0.0617
    7MOL   H223 2155   7.928   6.190   0.794 -0.6761  0.1018 -0.5252
    7MOL   H224 2156   7.736   6.293   0.805  1.0142 -0.3360 -0.9352
    7MOL   H225 2157   7.719   6.536   0.920  0.0321  1.3035  2.2124
    7MOL   C226 2158   7.993   6.780   0.957  0.9620  1.3060  0.3299
    7MOL   C227 2159   8.112   6.846   1.025 -0.5250 -0.2641  0.0116
    7MOL   C228 2160   0.119   6.754   1.032 -0.9295 -0.1397  0.9456
    7MOL   C229 2161   0.199   6.731   0.911  0.5372 -0.5998 -0.6172
    7MOL   C230 2162   0.310   6.644   0.910 -0.6964  0.6294  0.2368
    7MOL   C231 2163   0.347   6.571   1.031 -1.1281 -0.2268 -0.0986
    7MOL   C232 2164   0.272   6.600   1.148  0.9048  0.2054 -0.0386
    7MOL   C233 2165   0.166   6.695   1.156 -0.0233  0.2825 -0.1730
    7MOL   H234 2166   7.918   6.854   0.930 -0.0381  1.2304  2.8017
    7MOL   H235 2167   8.025   6.746   0.858  1.4021 -0.2748  1.0000
    7MOL   H236 2168   8.083   6.856   1.129 -2.1348  0.5235 -0.5010
    7MOL   H237 2169   0.173   6.792   0.826  1.2313 -0.6199 -0.8464
    7MOL   H238 2170   0.378   6.628   0.827  0.2458 -0.6414  1.2334
    7MOL   H239 2171   0.430   6.502   1.040 -0.8875  0.1734  0.8159
    7MOL   H240 2172   0.296   6.541   1.235 -2.7943 -0.4514  0.6321
    7MOL   H241 2173   0.117   6.731   1.246  1.8383 -0.3831  1.1237
    7MOL   C242 2174   0.030   6.994   0.982  0.5138 -0.3469 -0.6824
    7MOL   C243 2175   0.145   7.067   1.054 -0.2174 -0.3120 -0.2329
    7MOL   C244 2176   0.234   7.143   0.954  0.1648  0.0226  0.1482
    7MOL   C245 2177   0.181   7.261   0.886  0.0154 -0.7236  0.2689
    7MOL   C246 2178   0.272   7.345   0.824  0.2978 -0.3404 -0.7312
    7MOL   C247 2179   0.410   7.323   0.818 -0.3983  0.2506 -0.0595
    7MOL   C248 2180   0.456   7.205   0.883 -0.3397  0.2511  0.0202
    7MOL   C249 2181   0.370   7.115   0.944 -0.3584  0.2098  0.3249
    7MOL   H250 2182   8.065   7.069   0.982  1.2212  0.4579  2.0227
    7MOL   H251 2183   0.065   6.989   0.879 -0.7225 -1.3293 -1.0667
    7MOL   H252 2184   0.204   6.984   1.093 -3.0577 -3.2997 -2.0497
    7MOL   H253 2185   0.076   7.289   0.888  0.4282  1.5987 -4.3160
    7MOL   H254 2186   0.238   7.435   0.774  1.2143  0.4497  0.0392
    7MOL   H255 2187   0.486   7.387   0.776 -0.0554 -0.9560 -1.2997
    7MOL   H256 2188   0.564   7.196   0.880 -0.2365  1.3377 -0.0393
    7MOL   H257 2189   0.423   7.032   0.989  0.0133 -1.4972 -3.0684
    7MOL   C258 2190   0.122   7.160   1.178 -0.5239 -0.7928 -0.3021
    7MOL   C259 2191   0.238   7.172   1.281 -0.0695  0.2392  0.8545
    7MOL   C260 2192   0.212   7.283   1.380 -0.1716  0.1499 -0.2416
    7MOL   C261 2193   0.248   7.417   1.350  0.0693 -0.3605 -0.3298
    7MOL   C262 2194   0.219   7.525   1.438  0.5498  0.0452  1.1209
    7MOL   C263 2195   0.157   7.497   1.555 -0.4740 -0.3005 -0.3536
    7MOL   C264 2196   0.127   7.369   1.596  0.6811  0.0965  0.4287
    7MOL   C265 2197   0.162   7.262   1.507  0.1723  0.1171  1.1881
    7MOL   H266 2198   0.029   7.133   1.229  0.9999 -2.7654  1.5200
    7MOL   H267 2199   0.095   7.254   1.129 -1.0870  0.0618  1.6266
    7MOL   H268 2200   0.325   7.199   1.221  1.6674 -2.4791  2.0700
    7MOL   H269 2201   0.299   7.433   1.257 -1.0983  1.6704 -0.6532
    7MOL   H270 2202   0.263   7.623   1.426 -0.8115  0.6568  0.9571
    7MOL   H271 2203   0.139   7.583   1.618  1.2849 -0.1752 -0.0035
    7MOL   H272 2204   0.081   7.352   1.692 -0.9218 -0.7100 -0.4590
    7MOL   H273 2205   0.137   7.161   1.536  0.3103  0.0834  1.1886
    7MOL   C274 2206   0.282   7.034   1.346 -0.5645 -0.3081 -0.0127
    7MOL   C275 2207   0.406   7.064   1.450  0.3046  0.3058 -0.6096
    7MOL   C276 2208   0.374   7.014   1.592 -0.2023 -0.0716  0.8577
    7MOL   C277 2209   0.349   6.881   1.609 -0.0046 -0.4759 -0.2319
    7MOL   C278 2210   0.317   6.821   1.736  0.2511 -0.2678 -0.4548
    7MOL   C279 2211   0.310   6.910   1.849 -0.3683 -0.1453  0.3526
    7MOL   C280 2212   0.326   7.050   1.829 -0.5515 -0.0042 -0.0725
    7MOL   C281 2213   0.365   7.102   1.702 -0.3524 -0.0097  0.0067
    7MOL   H282 2214   0.315   6.959   1.274  1.9556 -0.1129  0.9067
    7MOL   H283 2215   0.200   6.984   1.398 -1.7795  1.3016 -0.2982
    7MOL   H284 2216   0.430   7.168   1.471  0.9928  0.2219 -0.9617
    7MOL   H285 2217   0.359   6.809   1.529 -1.9242  0.0694 -0.9858
    7MOL   H286 2218   0.305   6.716   1.755 -0.9011  0.2742  2.1054
    7MOL   H287 2219   0.289   6.866   1.945 -0.8153  2.3640  1.4475
    7MOL   H288 2220   0.318   7.112   1.917  1.5004  0.8353 -0.4511
    7MOL   H289 2221   0.382   7.207   1.678 -0.2024  0.2794  1.3490
    7MOL   C290 2222   0.536   7.000   1.405  0.2119 -0.4141  0.2338
    7MOL   C291 2223   0.613   7.073   1.289  0.2813 -0.3073 -0.2693
    7MOL   C292 2224   0.679   7.201   1.341  0.2919 -0.5046 -0.9126
    7MOL   C293 2225   0.615   7.320   1.339 -0.0599 -0.4222  0.0296
    7MOL   C294 2226   0.671   7.433   1.407  0.5006  0.0487 -0.0712
    7MOL   C295 2227   0.800   7.426   1.465  0.0355 -0.5785  0.2936
    7MOL   C296 2228   0.869   7.303   1.470  0.7158  0.1724 -1.2559
    7MOL   C297 2229   0.806   7.193   1.407  0.4531  0.4965 -0.2265
    7MOL   H298 2230   0.500   6.905   1.369  1.1472 -0.7663  0.2052
    7MOL   H299 2231   0.606   6.989   1.488  1.9083 -0.2459 -1.1484
    7MOL   H300 2232   0.546   7.107   1.210  1.2395  0.0114 -0.9720
    7MOL   H301 2233   0.516   7.333   1.297 -0.9477  2.2404  2.6941
    7MOL   H302 2234   0.612   7.522   1.419 -0.3995 -0.4679 -0.5825
    7MOL   H303 2235   0.852   7.514   1.499 -1.9137  0.8440 -0.2904
    7MOL   H304 2236   0.961   7.292   1.525 -1.7265  0.4852  3.2082
    7MOL   H305 2237   0.858   7.100   1.424 -1.7995 -0.6677  0.4816
    7MOL   C306 2238   0.704   6.973   1.220 -0.0695 -1.3595  0.2452
    7MOL   C307 2239   0.769   7.025   1.089  0.4868 -0.0105  0.2806
    7MOL   C308 2240   0.817   6.914   0.991 -1.0313  0.1324 -0.2734
    7MOL   C309 2241   0.778   6.925   0.859  0.0697  0.2151 -0.1348
    7MOL   C310 2242   0.824   6.828   0.765 -0.6223  0.4004 -0.3289
    7MOL   C311 2243   0.886   6.711   0.810 -1.1666 -0.7082  0.5099
    7MOL   C312 2244   0.908   6.696   0.948 -0.0934  0.5409 -0.5336
    7MOL   C313 2245   0.873   6.792   1.042 -0.0180  0.0126 -1.2545
    7MOL   H314 2246   0.640   6.890   1.189 -0.0280 -1.0417 -0.7119
    7MOL   H315 2247   0.771   6.926   1.291  2.5117  1.4082 -0.2657
    7MOL   H316 2248   0.851   7.096   1.101  0.7118 -0.1549 -0.4180
    7MOL   H317 2249   0.729   7.012   0.818  0.5828  0.6801  0.2163
    7MOL   H318 2250   0.801   6.843   0.661 -1.3370  0.3139 -0.1830
    7MOL   H319 2251   0.913   6.636   0.736  1.5663  1.0673 -0.3960
    7MOL   H320 2252   0.952   6.606   0.988 -2.7947 -1.4130 -1.8239
    7MOL   H321 2253   0.881   6.771   1.147  2.9745 -0.8372 -1.6008
    7MOL   H322 2254   0.696   7.094   1.049  0.3627  0.7253  1.7392
    8MOL     C1 2255   1.153   6.011   5.692  0.5210  0.2395 -0.5124
    8MOL     C2 2256   1.251   5.954   5.588 -0.0079 -0.0444  0.0376
    8MOL     C3 2257   1.372   5.885   5.653  0.3580 -0.0733  0.2489
    8MOL     C4 2258   1.507   5.917   5.622 -0.3647  0.2235 -0.3973
    8MOL     C5 2259   1.615   5.850   5.679  0.7853 -0.1263 -0.4635
    8MOL     C6 2260   1.594   5.750   5.773 -0.0986 -0.1077 -0.6197
    8MOL     C7 2261   1.462   5.716   5.806 -0.1035  0.5483  0.1767
    8MOL     C8 2262   1.354   5.783   5.748 -0.2504  0.3909 -0.6808
    8MOL     H9 2263   1.210   6.055   5.774 -0.0221 -1.0134  0.5392
    8MOL    H10 2264   1.092   6.087   5.643 -0.0127  0.1257 -0.0192
    8MOL    H11 2265   1.297   6.042   5.544  1.6269 -1.4198 -1.0518
    8MOL    H12 2266   1.522   6.000   5.554  1.7042  0.5727  0.4531
    8MOL    H13 2267   1.715   5.886   5.661  1.2307 -0.1073  1.9103
    8MOL    H14 2268   1.678   5.696   5.814 -2.6645 -2.4806  1.8132
    8MOL    H15 2269   1.440   5.650   5.889  1.1700  0.8931  0.7904
    8MOL    H16 2270   1.255   5.759   5.785  0.4927 -2.7359 -0.5780
    8MOL    H17 2271   1.082   5.943   5.738  0.4702  0.1916 -0.6608
    8MOL    C18 2272   1.184   5.857   5.484 -0.0407 -0.3656  0.0897
    8MOL    C19 2273   1.260   5.847   5.355 -0.1775  0.4345  0.1910
    8MOL    C20 2274   1.273   5.707   5.292 -0.4498  0.4997 -0.7237
    8MOL    C21 2275   1.199   5.662   5.180  0.2888  1.9036  0.1407
    8MOL    C22 2276   1.199   5.528   5.141  0.1569 -0.3197  0.5396
    8MOL    C23 2277   1.259   5.432   5.226 -0.5562  0.1235 -0.2811
    8MOL    C24 2278   1.337   5.472   5.336  0.2032 -0.1352 -0.8314
    8MOL    C25 2279   1.345   5.611   5.364 -0.1813  0.6329  0.1494
    8MOL    H26 2280   1.085   5.899   5.469 -0.3323 -0.7444  0.9307
    8MOL    H27 2281   1.169   5.759   5.529  2.6184 -1.1804 -0.6901
    8MOL    H28 2282   1.361   5.868   5.391  0.0575  0.5066 -0.4939
    8MOL    H29 2283   1.135   5.731   5.126 -1.5678 -1.4277 -2.0819
    8MOL    H30 2284   1.143   5.503   5.052 -0.3760 -0.5955  0.9495
    8MOL    H31 2285   1.253   5.326   5.210 -0.8144  0.1175 -0.1436
    8MOL    H32 2286   1.372   5.394   5.401  2.1856  2.3132  1.1511
    8MOL    H33 2287   1.405   5.636   5.450  0.2659 -1.2286  0.3929
    8MOL    C34 2288   1.221   5.959   5.252  0.1654  0.7191  0.2758
    8MOL    C35 2289   1.300   5.981   5.131  0.2454 -0.1391 -0.5318
    8MOL    C36 2290   1.224   6.069   5.029  0.1229 -0.4591  0.4462
    8MOL    C37 2291   1.133   6.174   5.077  0.5882 -0.3724 -0.0540
    8MOL    C38 2292   1.068   6.255   4.980  0.5588  0.2339 -0.2447
    8MOL    C39 2293   1.096   6.233   4.841 -0.1509 -0.9907  0.4190
    8MOL    C40 2294   1.184   6.129   4.802  0.5629 -0.5434 -0.3738
    8MOL    C41 2295   1.242   6.046   4.894  0.1629  0.5681 -0.0212
    8MOL    H42 2296   1.235   6.049   5.312  2.4535  0.7219 -0.2033
    8MOL    H43 2297   1.121   5.939   5.214  1.4164 -2.5575 -1.4785
    8MOL    H44 2298   1.306   5.880   5.090  2.6408 -0.7624  1.2459
    8MOL    H45 2299   1.114   6.187   5.183 -1.7747 -1.0133 -0.3718
    8MOL    H46 2300   1.000   6.333   5.012  0.5913  0.4059 -0.5855
    8MOL    H47 2301   1.044   6.289   4.764  2.4342  2.2058  0.9118
    8MOL    H48 2302   1.217   6.120   4.699  0.9824 -1.1819 -0.1841
    8MOL    H49 2303   1.321   5.981   4.858 -0.8401 -0.4509 -0.4033
    8MOL    C50 2304   1.438   6.032   5.167 -0.3962  0.3211 -0.4672
    8MOL    C51 2305   1.546   6.002   5.061 -0.2529  0.1149  0.0703
    8MOL    C52 2306   1.665   6.082   5.102  0.6789  0.6043 -0.6211
    8MOL    C53 2307   1.695   6.205   5.044  0.4389 -0.4860 -0.0435
    8MOL    C54 2308   1.802   6.279   5.077 -0.1971  0.4713 -0.0368
    8MOL    C55 2309   1.896   6.226   5.175 -0.0952 -0.4402  0.1341
    8MOL    C56 2310   1.859   6.112   5.248 -0.1270  0.4947 -0.6245
    8MOL    C57 2311   1.737   6.048   5.215  0.5909 -0.0139 -0.7017
    8MOL    H58 2312   1.476   6.003   5.265 -0.6996 -1.2826 -0.8201
    8MOL    H59 2313   1.429   6.140   5.176 -1.2914  0.0667  2.2166
    8MOL    H60 2314   1.523   6.050   4.966 -0.3527  1.6194  0.8331
    8MOL    H61 2315   1.631   6.228   4.960  0.8989 -0.7199 -0.4576
    8MOL    H62 2316   1.823   6.373   5.026  0.2960  0.5571  0.3251
    8MOL    H63 2317   1.991   6.278   5.185 -0.9821  0.7138  3.4297
    8MOL    H64 2318   1.921   6.066   5.323  0.4637  2.1408 -0.0801
    8MOL    H65 2319   1.714   5.957   5.267  2.6193 -0.3819 -0.3964
    8MOL    C66 2320   1.580   5.857   5.047  0.4837  0.3809 -0.5482
    8MOL    C67 2321   1.694   5.812   4.956  0.5297 -0.0227 -0.0871
    8MOL    C68 2322   1.755   5.677   4.994  1.0177 -0.2313 -0.2998
    8MOL    C69 2323   1.671   5.566   5.016  0.1292  0.5056  0.7117
    8MOL    C70 2324   1.732   5.446   5.055 -0.1173  0.2849  0.1481
    8MOL    C71 2325   1.873   5.432   5.045 -0.3013 -0.9607  0.4678
    8MOL    C72 2326   1.957   5.543   5.026 -0.0153 -0.2244 -0.2942
    8MOL    C73 2327   1.896   5.662   4.998  0.6107  0.1770 -0.8279
    8MOL    H74 2328   1.489   5.802   5.026  0.6753 -0.4854  0.8239
    8MOL    H75 2329   1.615   5.821   5.144  0.3780  1.7769  0.0227
    8MOL    H76 2330   1.780   5.879   4.969  0.1785  0.9388 -2.5178
    8MOL    H77 2331   1.563   5.570   5.015  0.1127  1.1528 -3.2712
    8MOL    H78 2332   1.677   5.355   5.073 -1.6897  1.3783  1.0752
    8MOL    H79 2333   1.909   5.330   5.044 -2.5162 -1.8079  2.3392
    8MOL    H80 2334   2.064   5.526   5.021 -0.0096 -0.1100 -0.5923
    8MOL    H81 2335   1.953   5.754   4.993  1.4953 -0.3591 -0.6741
    8MOL    C82 2336   1.643   5.821   4.808  0.0810  0.9813 -0.3092
    8MOL    C83 2337   1.732   5.744   4.705  0.2227 -0.5313 -0.1718
    8MOL    C84 2338   1.661   5.699   4.579 -0.3556  0.2962  0.6517
    8MOL    C85 2339   1.538   5.756   4.529 -0.0978  0.4321  0.0079
    8MOL    C86 2340   1.478   5.706   4.411 -0.4697 -0.0721 -0.0335
    8MOL    C87 2341   1.542   5.605   4.343 -0.0624  0.4455  0.2752
    8MOL    C88 2342   1.662   5.554   4.390  0.1599 -0.0864 -0.0123
    8MOL    C89 2343   1.721   5.590   4.509 -0.1808 -0.3581 -0.2459
    8MOL    H90 2344   1.626   5.924   4.777 -3.6057  0.6187  0.3264
    8MOL    H91 2345   1.549   5.766   4.814  1.9322 -2.3512 -0.4860
    8MOL    H92 2346   1.751   5.648   4.752 -0.6315 -0.1167  1.0342
    8MOL    H93 2347   1.489   5.830   4.589  0.4985  0.5203  0.3923
    8MOL    H94 2348   1.385   5.738   4.366 -0.2942 -0.6652 -0.8530
    8MOL    H95 2349   1.487   5.556   4.264 -0.1442  1.5858 -0.3859
    8MOL    H96 2350   1.702   5.469   4.337 -0.9270 -1.9179  2.0309
    8MOL    H97 2351   1.820   5.555   4.534 -0.7746 -0.6715  1.7209
    8MOL    C98 2352   1.873   5.811   4.671  0.1993  0.1040  0.3929
    8MOL    C99 2353   1.879   5.906   4.546 -0.1255 -0.1074  0.2247
    8MOL   C100 2354   1.770   6.014   4.546  0.0661  0.4510  0.3599
    8MOL   C101 2355   1.674   6.017   4.449  0.2457 -0.6171 -0.1426
    8MOL   C102 2356   1.561   6.103   4.459  0.1800  0.8192  0.2116
    8MOL   C103 2357   1.565   6.213   4.551 -0.2634 -0.0319  0.3617
    8MOL   C104 2358   1.668   6.207   4.644  0.3985 -0.0580 -0.3664
    8MOL   C105 2359   1.772   6.113   4.643 -0.2615  0.1609 -0.0846
    8MOL   H106 2360   1.950   5.735   4.657  0.9228  0.6398  1.3550
    8MOL   H107 2361   1.912   5.854   4.763  0.4694 -1.4038  0.9994
    8MOL   H108 2362   1.867   5.837   4.464  0.1038  1.4407 -1.1352
    8MOL   H109 2363   1.666   5.936   4.378  2.0123 -1.4660  0.6025
    8MOL   H110 2364   1.479   6.087   4.390  1.7688  1.6556 -1.9619
    8MOL   H111 2365   1.476   6.273   4.558 -0.2835 -0.1870  1.5495
    8MOL   H112 2366   1.652   6.268   4.732 -0.7256  0.4915 -0.9353
    8MOL   H113 2367   1.833   6.095   4.729  2.0993  0.4311 -1.6528
    8MOL   C114 2368   2.016   5.973   4.551 -0.0920 -0.0079 -0.5147
    8MOL   C115 2369   2.034   6.077   4.440  0.9708  0.2538  0.1999
    8MOL   C116 2370   2.157   6.165   4.461 -0.3747  0.0055  0.7750
    8MOL   C117 2371   2.287   6.149   4.391  0.0803  0.6672 -0.2883
    8MOL   C118 2372   2.387   6.246   4.410 -0.1896 -0.9975  0.0744
    8MOL   C119 2373   2.364   6.346   4.507 -0.4557  0.0295  0.6456
    8MOL   C120 2374   2.246   6.347   4.583  0.5194 -0.8266  0.2683
    8MOL   C121 2375   2.139   6.266   4.551 -0.5864  0.6318 -0.5488
    8MOL   H122 2376   2.092   5.894   4.553  0.5899  0.6548 -0.1024
    8MOL   H123 2377   2.023   6.023   4.647  0.6719 -1.3398  0.1310
    8MOL   H124 2378   1.956   6.154   4.446 -0.3548 -1.0573 -0.0498
    8MOL   H125 2379   2.299   6.070   4.319 -0.9540 -1.1584  1.5011
    8MOL   H126 2380   2.480   6.240   4.355 -1.1781 -1.6764 -1.5405
    8MOL   H127 2381   2.443   6.414   4.534 -0.5396  0.1454  0.6004
    8MOL   H128 2382   2.232   6.420   4.662 -1.5705 -0.3439 -0.5331
    8MOL   H129 2383   2.043   6.277   4.597 -0.7731 -0.1430 -0.7455
    8MOL   C130 2384   2.027   6.013   4.302 -0.6511 -0.4115 -0.3904
    8MOL   C131 2385   2.030   6.101   4.172 -0.4540 -0.2581 -0.9490
    8MOL   C132 2386   2.119   6.036   4.069 -0.0221 -0.0983  0.2258
    8MOL   C133 2387   2.246   6.094   4.037  0.3675  0.5129 -1.0278
    8MOL   C134 2388   2.341   6.020   3.967  0.0086 -0.0651 -0.2729
    8MOL   C135 2389   2.309   5.892   3.919  0.0751  0.2558 -0.0874
    8MOL   C136 2390   2.181   5.834   3.948 -0.8284  0.3893  1.0057
    8MOL   C137 2391   2.085   5.905   4.023 -0.1092 -0.7746  0.0901
    8MOL   H138 2392   1.939   5.949   4.298  0.5943 -2.2220  0.4166
    8MOL   H139 2393   2.103   5.936   4.290  0.3153  0.5380 -0.4528
    8MOL   H140 2394   2.081   6.196   4.190 -1.1714  0.5565 -3.0875
    8MOL   H141 2395   2.269   6.196   4.064 -3.5975  1.2933 -0.2599
    8MOL   H142 2396   2.432   6.065   3.931 -1.2135  1.8785 -0.9847
    8MOL   H143 2397   2.379   5.832   3.863 -1.3475 -3.1230  1.6659
    8MOL   H144 2398   2.156   5.731   3.924  0.9159 -0.1914  1.6020
    8MOL   H145 2399   1.992   5.856   4.047  0.7675 -1.9643  1.1916
    8MOL   C146 2400   1.899   6.132   4.112 -0.1953 -0.0173  0.8027
    8MOL   C147 2401   1.828   6.248   4.180  0.2595  0.7670  0.5470
    8MOL   C148 2402   1.915   6.376   4.185 -0.1984  0.4048  0.1647
    8MOL   C149 2403   1.949   6.428   4.310 -0.3161 -0.2517 -0.2533
    8MOL   C150 2404   2.021   6.552   4.316  0.1152  0.3433  1.0302
    8MOL   C151 2405   2.051   6.621   4.197 -0.4359  0.1397 -0.4182
    8MOL   C152 2406   2.011   6.570   4.073  0.7679  0.2718  0.0946
    8MOL   C153 2407   1.938   6.442   4.069 -0.1033  0.7181  0.1913
    8MOL   H154 2408   1.837   6.043   4.109 -0.6687  0.3708 -2.1468
    8MOL   H155 2409   1.909   6.158   4.007 -1.5741 -0.2398  0.6032
    8MOL   H156 2410   1.793   6.225   4.281 -2.0021  2.1137  0.1248
    8MOL   H157 2411   1.944   6.372   4.402  0.2592  0.5541  0.2702
    8MOL   H158 2412   2.054   6.601   4.407  0.9090 -0.7655  1.3467
    8MOL   H159 2413   2.118   6.705   4.198  0.3997 -0.5053 -0.8336
    8MOL   H160 2414   2.030   6.624   3.982  0.6739  1.5003  0.7863
    8MOL   H161 2415   1.914   6.404   3.971 -0.9858 -0.7780  0.9665
    8MOL   C162 2416   1.692   6.270   4.108  0.3808 -0.5174  0.2084
    8MOL   C163 2417   1.630   6.414   4.107  0.2943 -0.3064 -0.1085
    8MOL   C164 2418   1.532   6.430   3.989  0.2881  0.7191 -0.2914
    8MOL   C165 2419   1.423   6.350   3.995  0.5879 -0.1375 -0.5933
    8MOL   C166 2420   1.333   6.350   3.885 -0.4965 -0.7859 -0.2468
    8MOL   C167 2421   1.353   6.441   3.779 -0.6210 -0.0423  0.2203
    8MOL   C168 2422   1.468   6.526   3.779 -0.6271 -0.0337  0.1281
    8MOL   C169 2423   1.556   6.520   3.886  0.3071 -0.1555 -0.8005
    8MOL   H170 2424   1.630   6.182   4.124  0.2456 -0.1334  1.9475
    8MOL   H171 2425   1.713   6.259   4.002  0.7299  0.8839  0.1241
    8MOL   H172 2426   1.708   6.486   4.083 -0.0602  0.6566  1.5673
    8MOL   H173 2427   1.404   6.279   4.074  0.4211  1.2330  0.6113
    8MOL   H174 2428   1.247   6.284   3.882 -0.0687 -1.2967 -2.3051
    8MOL   H175 2429   1.289   6.446   3.692 -2.9772  2.3383  2.0113
    8MOL   H176 2430   1.483   6.590   3.693  0.9276 -2.0159 -1.1394
    8MOL   H177 2431   1.643   6.582   3.900  1.1397 -1.3671 -0.5096
    8MOL   C178 2432   1.569   6.465   4.240 -0.1339 -0.1821  0.0474
    8MOL   C179 2433   1.503   6.611   4.247 -0.0072  0.3297  0.5684
    8MOL   C180 2434   1.417   6.628   4.373 -1.0512  0.5742  0.1103
    8MOL   C181 2435   1.475   6.595   4.494 -0.2905 -0.0207  0.0967
    8MOL   C182 2436   1.404   6.614   4.613  0.0650 -0.4635 -0.5764
    8MOL   C183 2437   1.282   6.680   4.604 -0.0771 -0.0316 -0.2265
    8MOL   C184 2438   1.222   6.714   4.485  0.6467 -0.1126  0.5119
    8MOL   C185 2439   1.289   6.684   4.367  0.4309 -0.1236 -0.1681
    8MOL   H186 2440   1.648   6.454   4.315 -0.1859 -0.4458  0.0628
    8MOL   H187 2441   1.497   6.385   4.258  1.3082 -1.8024 -1.2511
    8MOL   H188 2442   1.421   6.617   4.176 -0.2278  0.3211  0.8231
    8MOL   H189 2443   1.572   6.548   4.501 -0.4693 -0.3166  0.6356
    8MOL   H190 2444   1.434   6.584   4.712  0.0018 -0.4641 -0.5571
    8MOL   H191 2445   1.231   6.687   4.699 -1.6007  1.0549 -1.0944
    8MOL   H192 2446   1.121   6.752   4.482  0.1420 -1.5349 -1.2365
    8MOL   H193 2447   1.245   6.706   4.271 -0.4725 -1.0861  0.0077
    8MOL   C194 2448   1.599   6.726   4.217 -0.0810 -0.5184  0.3254
    8MOL   C195 2449   1.536   6.872   4.193  0.5083 -0.2232  0.5338
    8MOL   C196 2450   1.609   6.987   4.265  0.4055  0.3244 -0.5071
    8MOL   C197 2451   1.748   6.988   4.262  0.9123  0.7558  0.0241
    8MOL   C198 2452   1.824   7.096   4.308  0.1641  0.5183  0.9235
    8MOL   C199 2453   1.748   7.191   4.377  0.2328  0.4704 -1.0304
    8MOL   C200 2454   1.607   7.198   4.381 -0.1894  0.7032 -0.2584
    8MOL   C201 2455   1.534   7.095   4.317 -0.0823 -0.1514  0.3522
    8MOL   H202 2456   1.670   6.709   4.137  1.7178 -1.3671  2.0760
    8MOL   H203 2457   1.658   6.723   4.308  0.2749  1.9853  0.2219
    8MOL   H204 2458   1.438   6.870   4.242  1.3205 -2.7818  2.1885
    8MOL   H205 2459   1.795   6.905   4.211  0.7462  1.2284 -0.9111
    8MOL   H206 2460   1.931   7.098   4.310  0.1522  0.6812  1.2809
    8MOL   H207 2461   1.806   7.276   4.408  1.2975 -1.0554  1.2152
    8MOL   H208 2462   1.567   7.280   4.439  0.8709 -0.7007  2.5315
    8MOL   H209 2463   1.427   7.085   4.309  0.1771 -1.5954 -2.1013
    8MOL   C210 2464   1.513   6.905   4.044  0.1502 -0.4587  0.1534
    8MOL   C211 2465   1.373   6.957   4.006 -0.0691  0.0654  0.4430
    8MOL   C212 2466   1.379   7.040   3.877  0.8613 -1.0465  1.0224
    8MOL   C213 2467   1.297   7.157   3.878  0.4786 -0.0251 -0.0926
    8MOL   C214 2468   1.301   7.244   3.767  0.3995 -0.0966 -0.3691
    8MOL   C215 2469   1.374   7.202   3.652  0.7184  0.0593  0.1137
    8MOL   C216 2470   1.435   7.078   3.642 -1.3003  0.6027 -0.5654
    8MOL   C217 2471   1.448   7.002   3.762 -0.0096 -0.6389  0.9599
    8MOL   H218 2472   1.563   6.835   3.977  0.5017  0.4740 -0.5537
    8MOL   H219 2473   1.581   6.987   4.022 -1.1494  0.0636 -2.0143
    8MOL   H220 2474   1.331   7.017   4.087 -0.9893 -0.0354  0.0509
    8MOL   H221 2475   1.249   7.202   3.965  1.8428  1.3678 -0.0278
    8MOL   H222 2476   1.252   7.340   3.755  0.3243  0.0111  0.7424
    8MOL   H223 2477   1.368   7.274   3.572  0.7226  0.3953  0.4131
    8MOL   H224 2478   1.482   7.055   3.548 -2.5584  0.8363 -1.2594
    8MOL   H225 2479   1.523   6.924   3.757  0.2423 -0.2882 -2.1259
    8MOL   C226 2480   1.278   6.837   3.975 -0.7700  0.0597  0.1757
    8MOL   C227 2481   1.128   6.866   3.952  0.1957  0.2434  0.8796
    8MOL   C228 2482   1.067   6.781   3.841  0.1958  0.1124 -1.0209
    8MOL   C229 2483   1.084   6.643   3.847 -0.2827  0.0124  0.7047
    8MOL   C230 2484   1.019   6.565   3.748 -0.0257 -0.0064  0.3605
    8MOL   C231 2485   0.941   6.619   3.644  0.1133 -0.2754  0.1627
    8MOL   C232 2486   0.934   6.761   3.639 -0.4831 -0.0351 -0.2393
    8MOL   C233 2487   1.002   6.838   3.735  0.0391  0.1833 -0.0298
    8MOL   H234 2488   1.297   6.746   4.033  0.6077 -0.5317 -1.1607
    8MOL   H235 2489   1.322   6.793   3.886 -1.6074 -0.3090 -0.0620
    8MOL   H236 2490   1.115   6.971   3.924 -0.3559 -0.0590  0.0025
    8MOL   H237 2491   1.144   6.601   3.926 -1.5481 -0.4290  1.4443
    8MOL   H238 2492   1.036   6.459   3.757 -1.6956 -0.3475 -0.4055
    8MOL   H239 2493   0.897   6.555   3.569  0.4476  0.9086 -1.0653
    8MOL   H240 2494   0.865   6.807   3.569 -0.8942 -1.3606 -0.7262
    8MOL   H241 2495   0.993   6.945   3.739 -1.5097  0.0015  1.6926
    8MOL   C242 2496   1.050   6.846   4.094 -0.6351 -0.3698 -0.2476
    8MOL   C243 2497   0.899   6.881   4.090 -0.0406  0.5904  0.0711
    8MOL   C244 2498   0.835   6.801   4.205  0.4315 -0.1974 -0.5860
    8MOL   C245 2499   0.775   6.681   4.173 -0.4398  0.0155  0.4687
    8MOL   C246 2500   0.723   6.596   4.273  0.2487  0.2224  0.5676
    8MOL   C247 2501   0.727   6.635   4.408  0.3678 -0.0445  0.2069
    8MOL   C248 2502   0.797   6.754   4.442 -0.1934  0.2196  0.3332
    8MOL   C249 2503   0.848   6.840   4.344  0.0500 -0.1615 -0.0895
    8MOL   H250 2504   1.100   6.898   4.175  1.5754 -0.3815 -1.5667
    8MOL   H251 2505   1.062   6.744   4.130 -1.0490 -0.3163  0.0508
    8MOL   H252 2506   0.867   6.835   3.996  0.3509  0.5353 -0.0359
    8MOL   H253 2507   0.758   6.659   4.068 -1.5660  1.2049  0.3960
    8MOL   H254 2508   0.689   6.496   4.255  2.1437 -0.8612  2.7090
    8MOL   H255 2509   0.709   6.557   4.481  0.6530 -0.9021 -0.6182
    8MOL   H256 2510   0.820   6.769   4.546  0.4942 -0.1836  0.2411
    8MOL   H257 2511   0.903   6.926   4.379 -0.9986  0.1520  0.8185
    8MOL   C258 2512   0.860   7.032   4.089  0.1416  0.0160  0.1705
    8MOL   C259 2513   0.719   7.066   4.024  0.4832 -0.0148  0.3854
    8MOL   C260 2514   0.665   7.199   4.070 -0.7703 -0.4572  0.5980
    8MOL   C261 2515   0.748   7.310   4.067  0.1095  0.1195  0.1268
    8MOL   C262 2516   0.706   7.437   4.113  0.0376  0.0029  1.1192
    8MOL   C263 2517   0.574   7.452   4.160  0.8139 -1.3259  0.6594
    8MOL   C264 2518   0.487   7.347   4.157  0.1154  0.7244  1.0423
    8MOL   C265 2519   0.535   7.217   4.118 -0.8607  0.6975 -0.2084
    8MOL   H266 2520   0.941   7.092   4.048 -0.2085  1.1068  1.0519
    8MOL   H267 2521   0.858   7.072   4.190 -2.4406  1.8731 -0.5606
    8MOL   H268 2522   0.653   6.991   4.069 -0.6393  1.4963  1.3033
    8MOL   H269 2523   0.848   7.301   4.029 -0.3158  0.0141 -0.9772
    8MOL   H270 2524   0.771   7.523   4.105 -0.3190  0.1666  0.0181
    8MOL   H271 2525   0.541   7.550   4.193  0.3476 -0.9219 -0.9901
    8MOL   H272 2526   0.383   7.356   4.183  0.1373 -1.0899  1.8636
    8MOL   H273 2527   0.462   7.137   4.124  0.2485 -0.2173  1.6105
    8MOL   C274 2528   0.719   7.062   3.864  0.0288  0.0737 -1.1639
    8MOL   C275 2529   0.575   7.070   3.798  0.2159 -0.1258 -0.6188
    8MOL   C276 2530   0.607   7.079   3.645 -0.2219 -0.9498 -1.0392
    8MOL   C277 2531   0.606   7.203   3.582  0.0525  0.8330 -0.3115
    8MOL   C278 2532   0.623   7.201   3.440  0.1602 -0.6095  0.2483
    8MOL   C279 2533   0.672   7.090   3.371  0.2516 -0.2370  0.5539
    8MOL   C280 2534   0.686   6.970   3.438 -0.2567 -0.4027 -0.1067
    8MOL   C281 2535   0.649   6.966   3.577 -0.4432  0.3241  0.0966
    8MOL   H282 2536   0.757   6.964   3.833 -2.3775 -1.3737  0.3110
    8MOL   H283 2537   0.786   7.138   3.823 -0.2802  1.8082  1.4701
    8MOL   H284 2538   0.527   7.166   3.817 -0.1269 -0.0027 -2.0450
    8MOL   H285 2539   0.581   7.286   3.647 -1.3338 -1.1986  1.8200
    8MOL   H286 2540   0.606   7.289   3.381 -0.0063  0.5746  2.0218
    8MOL   H287 2541   0.702   7.097   3.267 -1.5135  0.9128  0.0922
    8MOL   H288 2542   0.702   6.878   3.383 -1.8080 -0.3183 -0.7190
    8MOL   H289 2543   0.648   6.866   3.619  1.0179 -0.0566 -0.7059
    8MOL   C290 2544   0.485   6.944   3.832  0.1251 -0.2400  0.2046
    8MOL   C291 2545   0.348   6.939   3.763  0.3168 -0.0419 -0.6744
    8MOL   C292 2546   0.323   6.801   3.701  0.0099 -0.1117 -0.2310
    8MOL   C293 2547   0.312   6.783   3.563  1.0040 -0.0369  0.5001
    8MOL   C294 2548   0.277   6.657   3.510 -0.2701  0.3191 -0.4977
    8MOL   C295 2549   0.259   6.548   3.595  0.3928 -0.8673  0.1114
    8MOL   C296 2550   0.274   6.561   3.736  0.3880 -0.4309 -0.0740
    8MOL   C297 2551   0.313   6.691   3.788 -1.0774  0.2103  0.1572
    8MOL   H298 2552   0.470   6.933   3.939  2.3381  0.8680  0.6571
    8MOL   H299 2553   0.542   6.854   3.807 -1.7364 -1.1554 -0.8772
    8MOL   H300 2554   0.339   7.004   3.676  0.8882 -1.2520 -1.6468
    8MOL   H301 2555   0.325   6.864   3.493 -1.5564  1.0378  1.2480
    8MOL   H302 2556   0.272   6.645   3.402  2.1579  0.1016 -0.6033
    8MOL   H303 2557   0.225   6.455   3.551  1.1731 -1.2514  0.3034
    8MOL   H304 2558   0.242   6.483   3.802 -2.0161  0.4743 -0.1372
    8MOL   H305 2559   0.308   6.709   3.895 -1.2223 -1.4637  0.4510
    8MOL   C306 2560   0.233   6.987   3.865 -0.4060  0.2146  0.0674
    8MOL   C307 2561   0.249   7.137   3.890 -0.2794  0.2128 -0.6237
    8MOL   C308 2562   0.146   7.192   3.988  0.6119 -0.5124  0.4607
    8MOL   C309 2563   0.132   7.143   4.122 -0.3577  0.3878  0.4557
    8MOL   C310 2564   0.032   7.189   4.206 -0.5347  0.3010 -0.0889
    8MOL   C311 2565   8.059   7.288   4.155 -0.4819  0.3707  0.3928
    8MOL   C312 2566   8.070   7.336   4.024 -0.1094 -0.2378 -0.1232
    8MOL   C313 2567   0.060   7.292   3.943 -0.2071  0.3921 -0.1785
    8MOL   H314 2568   0.233   6.930   3.958 -0.6828  0.8189  0.4432
    8MOL   H315 2569   0.136   6.963   3.821 -0.8397 -1.3841  1.7895
    8MOL   H316 2570   0.245   7.189   3.794  0.1989  0.8445 -0.2963
    8MOL   H317 2571   0.189   7.057   4.154  0.3234  0.6193 -0.1355
    8MOL   H318 2572   0.015   7.148   4.305 -1.2403  0.2679 -0.2242
    8MOL   H319 2573   7.978   7.312   4.221 -0.3219  1.8020  0.0826
    8MOL   H320 2574   7.982   7.388   3.991  1.0001  1.1738 -0.9274
    8MOL   H321 2575   0.069   7.331   3.843  1.8572 -1.1903 -0.6531
    8MOL   H322 2576   0.341   7.162   3.941 -0.5130  0.3271 -0.2573
    9MOL     C1 2577   3.529   7.146   5.577  0.3971 -0.1054  0.1600
    9MOL     C2 2578   3.462   7.014   5.627  0.3843 -0.0836  0.0672
    9MOL     C3 2579   3.322   6.995   5.569  0.5436  0.6472  0.4153
    9MOL     C4 2580   3.208   7.003   5.652 -0.8373 -0.2755 -0.1204
    9MOL     C5 2581   3.072   7.006   5.609  0.3963  0.3662  0.0170
    9MOL     C6 2582   3.053   7.008   5.468  0.8148 -0.1593  0.6609
    9MOL     C7 2583   3.162   6.990   5.379 -0.3245 -1.0447 -0.5723
    9MOL     C8 2584   3.297   6.986   5.422  0.4728 -0.5421 -0.2461
    9MOL     H9 2585   3.461   7.226   5.610  2.4390  1.4787  0.6227
    9MOL    H10 2586   3.624   7.174   5.623  0.5754 -0.9532  0.3117
    9MOL    H11 2587   3.452   7.014   5.736 -0.9190  3.5007  0.0315
    9MOL    H12 2588   3.220   7.011   5.759  0.1262 -1.2709 -0.1451
    9MOL    H13 2589   2.988   7.016   5.676  1.5795 -1.2353  1.8366
    9MOL    H14 2590   2.950   7.003   5.435  0.4515 -1.1949  1.8852
    9MOL    H15 2591   3.147   6.995   5.272 -0.1505  1.4257 -0.5156
    9MOL    H16 2592   3.370   6.986   5.342  1.1288 -1.5065  0.3418
    9MOL    H17 2593   3.541   7.149   5.469 -0.4867 -0.7863  0.0342
    9MOL    C18 2594   3.542   6.892   5.584  0.3161 -0.3546  0.0917
    9MOL    C19 2595   3.676   6.867   5.657  0.3351  0.2840 -0.1361
    9MOL    C20 2596   3.662   6.823   5.809  0.2005 -0.0249  0.2940
    9MOL    C21 2597   3.734   6.894   5.901  0.1795 -0.0558  0.2175
    9MOL    C22 2598   3.740   6.842   6.032  0.1121  0.1685 -0.0185
    9MOL    C23 2599   3.674   6.726   6.070  0.3214 -0.2666  0.1421
    9MOL    C24 2600   3.588   6.659   5.978  0.2083 -0.3089 -0.6200
    9MOL    C25 2601   3.587   6.708   5.846  0.2655  0.4144 -0.1527
    9MOL    H26 2602   3.567   6.906   5.479  1.0968  0.8725  0.4286
    9MOL    H27 2603   3.479   6.804   5.595 -1.7420  0.8101 -1.7935
    9MOL    H28 2604   3.719   6.967   5.670 -0.6810  0.9293 -1.5561
    9MOL    H29 2605   3.793   6.980   5.870 -0.6812 -0.0882 -1.5995
    9MOL    H30 2606   3.789   6.898   6.110 -1.7836  0.9859  0.6107
    9MOL    H31 2607   3.694   6.681   6.167 -0.7474  0.4232  0.6903
    9MOL    H32 2608   3.530   6.571   5.999  1.0105 -1.0697 -1.6024
    9MOL    H33 2609   3.519   6.662   5.775 -0.4696  1.3423 -0.0723
    9MOL    C34 2610   3.782   6.781   5.587 -0.2305  0.0997  0.1609
    9MOL    C35 2611   3.883   6.861   5.493  0.2768  1.1015 -0.0828
    9MOL    C36 2612   3.951   6.977   5.562  0.1354  0.3027 -0.1773
    9MOL    C37 2613   4.066   6.954   5.638 -0.2170 -0.3918  0.0855
    9MOL    C38 2614   4.139   7.061   5.702  0.6319  0.4892  0.1657
    9MOL    C39 2615   4.082   7.191   5.691  0.0078 -0.0213  0.2306
    9MOL    C40 2616   3.973   7.219   5.603  1.0192  0.5980 -0.3060
    9MOL    C41 2617   3.904   7.111   5.544  0.4980 -0.1663  0.1311
    9MOL    H42 2618   3.729   6.697   5.542 -2.0282  0.5260  1.3867
    9MOL    H43 2619   3.841   6.742   5.670 -1.3941  1.8405  1.8502
    9MOL    H44 2620   3.818   6.910   5.422 -0.3849 -0.6843 -0.7497
    9MOL    H45 2621   4.112   6.858   5.654 -0.0597  0.0404  2.3938
    9MOL    H46 2622   4.220   7.041   5.770 -2.1610 -2.1583  2.8849
    9MOL    H47 2623   4.124   7.275   5.745 -1.1587  1.5977 -1.2992
    9MOL    H48 2624   3.922   7.314   5.599 -2.0725 -1.0597 -1.4951
    9MOL    H49 2625   3.826   7.122   5.470 -0.5085 -0.1991  1.1879
    9MOL    C50 2626   3.979   6.764   5.418  0.4186  0.1986 -0.4136
    9MOL    C51 2627   4.078   6.833   5.322  0.3661 -0.4874 -0.1177
    9MOL    C52 2628   4.192   6.740   5.283  0.4364  0.5573  0.0665
    9MOL    C53 2629   4.173   6.636   5.193 -0.7447 -0.4278  0.1548
    9MOL    C54 2630   4.275   6.545   5.157  0.0790  0.1775 -0.4982
    9MOL    C55 2631   4.404   6.563   5.211  0.3211  0.5328  0.5106
    9MOL    C56 2632   4.429   6.670   5.304  0.1388 -0.3419 -0.2344
    9MOL    C57 2633   4.320   6.757   5.337 -0.5124 -0.2457 -0.4895
    9MOL    H58 2634   3.928   6.686   5.361 -1.6776  0.5604  0.9046
    9MOL    H59 2635   4.039   6.722   5.499  2.2899  3.2993 -0.1101
    9MOL    H60 2636   4.124   6.906   5.389 -1.4474  0.6311 -0.0685
    9MOL    H61 2637   4.074   6.602   5.167  0.5726 -1.9457 -3.1314
    9MOL    H62 2638   4.253   6.455   5.101  1.2800 -1.3495  1.3965
    9MOL    H63 2639   4.486   6.509   5.166  0.2168 -0.8931  1.9852
    9MOL    H64 2640   4.514   6.685   5.369 -0.9905  3.0769  0.5447
    9MOL    H65 2641   4.338   6.824   5.419  1.2483 -0.2867 -0.8221
    9MOL    C66 2642   4.006   6.916   5.208  0.4400  1.1751 -0.1491
    9MOL    C67 2643   4.089   7.009   5.130  0.3018 -0.9423 -0.3985
    9MOL    C68 2644   4.002   7.061   5.014 -0.1267  0.4651 -0.2807
    9MOL    C69 2645   3.880   7.132   5.038  0.9491 -0.3647  0.2356
    9MOL    C70 2646   3.811   7.180   4.930 -0.2047 -0.0500  0.5103
    9MOL    C71 2647   3.864   7.172   4.794  0.3740  0.0476  0.6175
    9MOL    C72 2648   3.977   7.096   4.779  0.7730 -0.1394  0.2398
    9MOL    C73 2649   4.046   7.034   4.887  0.2219  0.2398  0.8157
    9MOL    H74 2650   3.921   6.966   5.255 -1.8802 -0.2735 -2.6154
    9MOL    H75 2651   3.958   6.838   5.147  0.8327  0.9207 -0.1330
    9MOL    H76 2652   4.168   6.949   5.085  0.1988 -2.1869  1.0773
    9MOL    H77 2653   3.858   7.156   5.141 -1.3547 -2.3359  0.2191
    9MOL    H78 2654   3.720   7.236   4.947  0.1252  0.1328  1.7046
    9MOL    H79 2655   3.808   7.217   4.714  0.3538 -0.9129  0.0837
    9MOL    H80 2656   4.016   7.071   4.681  3.0645 -0.5237  1.2136
    9MOL    H81 2657   4.140   6.985   4.870  0.4452  1.1899 -0.8085
    9MOL    C82 2658   4.144   7.126   5.209 -0.3782  0.1224  0.7204
    9MOL    C83 2659   4.300   7.134   5.213  0.8807  0.2335  0.1497
    9MOL    C84 2660   4.363   7.144   5.071  0.1175  0.2992 -0.1164
    9MOL    C85 2661   4.354   7.266   4.994 -0.8622 -0.1075 -0.1514
    9MOL    C86 2662   4.410   7.272   4.866 -0.2062  0.1929 -0.3225
    9MOL    C87 2663   4.475   7.168   4.809 -0.0558  0.2326 -0.4865
    9MOL    C88 2664   4.503   7.053   4.883 -0.6920  0.7820 -0.5413
    9MOL    C89 2665   4.443   7.041   5.010 -0.1951  0.6572 -0.2364
    9MOL    H90 2666   4.112   7.120   5.313  2.1461  0.0003  1.5115
    9MOL    H91 2667   4.112   7.220   5.165  0.9962 -0.3970 -1.4679
    9MOL    H92 2668   4.343   7.054   5.273 -0.9987 -1.2285 -0.4066
    9MOL    H93 2669   4.287   7.345   5.026 -0.0425  1.2567 -1.7252
    9MOL    H94 2670   4.396   7.356   4.799 -1.4310 -0.3605 -0.7803
    9MOL    H95 2671   4.501   7.178   4.704  0.8128 -1.4368 -0.4357
    9MOL    H96 2672   4.559   6.969   4.846 -1.4607  0.4778 -1.0343
    9MOL    H97 2673   4.448   6.940   5.047 -1.5703  0.5361 -0.3318
    9MOL    C98 2674   4.342   7.261   5.300 -0.2717  0.4052  0.0679
    9MOL    C99 2675   4.495   7.293   5.308  0.4233 -0.4818  0.4539
    9MOL   C100 2676   4.511   7.432   5.371 -0.3284  0.2648 -0.7668
    9MOL   C101 2677   4.568   7.535   5.296  0.6235 -0.3026  0.5200
    9MOL   C102 2678   4.586   7.663   5.355 -0.8054  0.2422  0.3528
    9MOL   C103 2679   4.552   7.677   5.487 -0.4605 -0.0575 -0.4482
    9MOL   C104 2680   4.499   7.573   5.564 -0.3828  0.3316  0.4174
    9MOL   C105 2681   4.480   7.449   5.505  1.0013  0.3101  0.5374
    9MOL   H106 2682   4.315   7.240   5.403 -2.8630 -2.3926 -1.1095
    9MOL   H107 2683   4.286   7.344   5.258  1.4014  1.6610  0.2387
    9MOL   H108 2684   4.525   7.303   5.204  0.3249  0.1796  0.4839
    9MOL   H109 2685   4.589   7.527   5.190  0.6319  1.9349  0.3240
    9MOL   H110 2686   4.626   7.743   5.294 -2.0546 -0.4216 -1.3926
    9MOL   H111 2687   4.569   7.775   5.530  1.5824  0.1157 -1.6054
    9MOL   H112 2688   4.462   7.591   5.664 -2.6731 -0.9092 -0.1788
    9MOL   H113 2689   4.448   7.362   5.561  0.2658  0.8767  1.0086
    9MOL   C114 2690   4.590   7.192   5.375  0.2867 -0.1979  0.1261
    9MOL   C115 2691   4.745   7.220   5.370  0.5419 -0.2270 -0.4613
    9MOL   C116 2692   4.810   7.286   5.242 -1.0149 -0.2065 -0.0757
    9MOL   C117 2693   4.794   7.214   5.122 -0.2110 -1.1874  0.0294
    9MOL   C118 2694   4.852   7.264   5.005 -0.4391 -0.0003  0.4053
    9MOL   C119 2695   4.930   7.380   5.003 -0.0070  0.3521  0.1477
    9MOL   C120 2696   4.929   7.458   5.117  0.0712  0.4056  0.1469
    9MOL   C121 2697   4.876   7.412   5.237  0.2851 -0.3889  0.4497
    9MOL   H122 2698   4.579   7.104   5.311 -0.9921  0.8216 -1.1040
    9MOL   H123 2699   4.558   7.164   5.475 -1.3453 -0.3893 -0.4414
    9MOL   H124 2700   4.789   7.121   5.382 -0.3349 -0.4102  1.3804
    9MOL   H125 2701   4.731   7.126   5.121 -1.5325 -0.3101  2.4121
    9MOL   H126 2702   4.845   7.209   4.912 -0.4568  0.4268  0.1549
    9MOL   H127 2703   4.964   7.418   4.908 -0.2221  0.4174  0.0965
    9MOL   H128 2704   4.982   7.552   5.117 -0.0278  0.4703  1.4394
    9MOL   H129 2705   4.882   7.462   5.333 -0.6123  0.8724 -0.1280
    9MOL   C130 2706   4.792   7.296   5.498  0.2057  0.0820 -0.2669
    9MOL   C131 2707   4.783   7.228   5.637  0.1019  0.4090  0.1363
    9MOL   C132 2708   4.834   7.086   5.646 -0.1144 -0.2473  0.6452
    9MOL   C133 2709   4.771   6.992   5.735 -0.1894 -0.5707  0.3831
    9MOL   C134 2710   4.836   6.869   5.750  0.3009 -0.2804 -0.0494
    9MOL   C135 2711   4.960   6.843   5.689 -0.0771  0.0459 -0.2319
    9MOL   C136 2712   5.022   6.930   5.606  0.2494 -0.0354 -0.4944
    9MOL   C137 2713   4.962   7.056   5.584 -0.1717  0.2415  0.3679
    9MOL   H138 2714   4.758   7.400   5.502 -0.6365 -0.2168  0.6013
    9MOL   H139 2715   4.899   7.312   5.482  0.5707  0.2233  2.1711
    9MOL   H140 2716   4.676   7.227   5.660  0.6916 -0.9496  2.9874
    9MOL   H141 2717   4.671   7.016   5.767 -0.6928 -3.3646  1.0293
    9MOL   H142 2718   4.789   6.797   5.815  1.3805  0.1834  1.2836
    9MOL   H143 2719   5.012   6.749   5.700 -3.5143 -1.8888  0.3744
    9MOL   H144 2720   5.116   6.900   5.561  0.8576  1.5848 -0.3551
    9MOL   H145 2721   5.025   7.125   5.529  1.5236 -1.9372 -0.5304
    9MOL   C146 2722   4.843   7.311   5.754  0.7372  0.5554  0.1467
    9MOL   C147 2723   4.757   7.327   5.882  0.1634  0.5717  0.0937
    9MOL   C148 2724   4.846   7.367   5.998  0.2154 -0.4129  0.4502
    9MOL   C149 2725   4.837   7.295   6.118  0.0824  0.3661 -0.4254
    9MOL   C150 2726   4.911   7.343   6.229  0.1630 -0.2044 -0.1301
    9MOL   C151 2727   5.011   7.446   6.210  0.4402 -0.0711 -0.7047
    9MOL   C152 2728   5.007   7.520   6.088  0.1940 -0.1596  0.4054
    9MOL   C153 2729   4.926   7.486   5.985 -0.1564 -0.9953 -0.7812
    9MOL   H154 2730   4.870   7.408   5.712  1.9379 -0.7759 -2.2646
    9MOL   H155 2731   4.944   7.278   5.778  0.5824  1.7633  2.5539
    9MOL   H156 2732   4.720   7.226   5.903  0.7580 -0.4563 -3.3746
    9MOL   H157 2733   4.773   7.208   6.126  0.7810 -0.1713 -0.5742
    9MOL   H158 2734   4.912   7.289   6.322  1.0542  1.0975  0.6311
    9MOL   H159 2735   5.069   7.483   6.293  2.4824  0.8755 -2.5011
    9MOL   H160 2736   5.068   7.607   6.070  0.6780 -0.5117  0.3297
    9MOL   H161 2737   4.905   7.545   5.897  0.0251  1.8279  1.0027
    9MOL   C162 2738   4.635   7.414   5.866  0.6818  0.3683 -0.3634
    9MOL   C163 2739   4.528   7.430   5.976 -0.0170 -0.3044  0.1492
    9MOL   C164 2740   4.431   7.544   5.942  0.0231  0.3588 -0.0486
    9MOL   C165 2741   4.326   7.518   5.858 -0.6707 -0.1357 -0.3849
    9MOL   C166 2742   4.235   7.622   5.819  0.1441 -0.0179  0.1054
    9MOL   C167 2743   4.248   7.750   5.883  0.1165 -0.0118  0.1231
    9MOL   C168 2744   4.356   7.777   5.969  0.0538 -0.4728  0.0291
    9MOL   C169 2745   4.449   7.675   5.990 -0.5472  0.2848 -0.4973
    9MOL   H170 2746   4.587   7.387   5.772  1.1841 -1.5166 -0.0993
    9MOL   H171 2747   4.674   7.512   5.840  0.0187  0.8355  0.4015
    9MOL   H172 2748   4.582   7.472   6.061 -1.6889  1.0549  0.5747
    9MOL   H173 2749   4.291   7.422   5.822 -2.1959 -0.1615  1.0661
    9MOL   H174 2750   4.153   7.601   5.752 -0.3479 -0.8445  0.9455
    9MOL   H175 2751   4.169   7.824   5.876 -0.3462 -0.3670  1.4258
    9MOL   H176 2752   4.374   7.878   6.003 -0.8072 -0.2872 -0.0749
    9MOL   H177 2753   4.522   7.707   6.063 -0.7399  0.9674 -0.5955
    9MOL   C178 2754   4.455   7.305   6.034  0.5568  0.3775 -0.1359
    9MOL   C179 2755   4.387   7.327   6.163  0.4336  0.4271  0.1576
    9MOL   C180 2756   4.236   7.337   6.135  0.0650 -0.4149  0.3313
    9MOL   C181 2757   4.173   7.455   6.178  0.5275 -0.2162 -0.8917
    9MOL   C182 2758   4.032   7.465   6.176  0.4139  0.6719 -0.5123
    9MOL   C183 2759   3.960   7.355   6.126  0.1408  0.0897  0.0836
    9MOL   C184 2760   4.023   7.238   6.077 -0.1496  0.0240  0.3167
    9MOL   C185 2761   4.164   7.232   6.078 -0.1164  0.0992  0.0959
    9MOL   H186 2762   4.539   7.236   6.050  0.7659  0.5666 -0.4153
    9MOL   H187 2763   4.393   7.256   5.960  0.2353 -0.8645  0.9215
    9MOL   H188 2764   4.417   7.426   6.197 -2.2707  0.4708  2.6100
    9MOL   H189 2765   4.243   7.525   6.222 -1.5484  1.2191  0.2060
    9MOL   H190 2766   3.991   7.560   6.207 -0.3976  0.0096  0.4600
    9MOL   H191 2767   3.853   7.369   6.134  0.4261  3.2522 -0.9919
    9MOL   H192 2768   3.963   7.159   6.033  0.8379  0.3203 -1.6036
    9MOL   H193 2769   4.220   7.151   6.034  0.1994  0.3665  0.0096
    9MOL   C194 2770   4.411   7.230   6.277 -0.0914 -0.4876 -0.5236
    9MOL   C195 2771   4.525   7.254   6.365 -0.5258  0.9751  0.6290
    9MOL   C196 2772   4.525   7.399   6.427  0.6173 -0.6411  0.3716
    9MOL   C197 2773   4.428   7.445   6.518  0.6906  0.3524 -0.3549
    9MOL   C198 2774   4.426   7.577   6.575 -0.2592  0.1662  0.0862
    9MOL   C199 2775   4.526   7.661   6.529  0.1574 -0.3074  0.2523
    9MOL   C200 2776   4.622   7.619   6.438 -0.4151 -0.0706 -0.4459
    9MOL   C201 2777   4.624   7.492   6.384 -0.4647  0.0459  0.3937
    9MOL   H202 2778   4.415   7.129   6.236  0.6487 -1.4086  1.7108
    9MOL   H203 2779   4.316   7.230   6.332  0.8270 -0.8589  1.0985
    9MOL   H204 2780   4.612   7.234   6.304 -1.5279 -2.2879  0.1910
    9MOL   H205 2781   4.358   7.371   6.554  1.3001  1.2379  2.7714
    9MOL   H206 2782   4.359   7.608   6.653 -0.1513  2.6296 -0.7576
    9MOL   H207 2783   4.519   7.764   6.561  0.2344  0.5368 -2.2641
    9MOL   H208 2784   4.688   7.693   6.395 -0.0589  1.0798  2.0231
    9MOL   H209 2785   4.686   7.468   6.300 -0.1876 -1.5524  1.0424
    9MOL   C210 2786   4.517   7.150   6.482  0.0392 -0.2596  0.5559
    9MOL   C211 2787   4.517   6.998   6.441 -0.4256 -0.2094  0.1664
    9MOL   C212 2788   4.619   6.975   6.328 -0.0219  0.2368  0.3763
    9MOL   C213 2789   4.570   6.936   6.195  0.0145 -0.4116  0.0192
    9MOL   C214 2790   4.662   6.920   6.088 -0.1472 -0.0381  0.0402
    9MOL   C215 2791   4.800   6.932   6.119 -0.0079  0.0044 -0.2015
    9MOL   C216 2792   4.846   6.965   6.249  0.1220 -0.2162  0.6600
    9MOL   C217 2793   4.752   6.982   6.351 -0.5371  0.6176 -0.1577
    9MOL   H218 2794   4.426   7.159   6.541  0.1364  0.6601  0.5729
    9MOL   H219 2795   4.604   7.172   6.544 -0.5201 -1.2692  1.7209
    9MOL   H220 2796   4.420   6.976   6.398 -0.7795  0.5579  0.5694
    9MOL   H221 2797   4.465   6.920   6.177  0.2535 -1.0068 -0.8805
    9MOL   H222 2798   4.626   6.901   5.988 -0.8970  2.1007 -0.1113
    9MOL   H223 2799   4.875   6.910   6.044 -0.2332  1.1026 -0.7463
    9MOL   H224 2800   4.950   6.967   6.276  0.6770  0.7506 -1.4258
    9MOL   H225 2801   4.787   7.008   6.450  0.6936 -0.7798 -0.2106
    9MOL   C226 2802   4.544   6.912   6.563 -0.0265 -0.4891  0.2899
    9MOL   C227 2803   4.427   6.899   6.659 -0.4543  0.1277 -0.2096
    9MOL   C228 2804   4.298   6.844   6.590 -0.8265  0.2955  0.0975
    9MOL   C229 2805   4.303   6.707   6.543 -0.3923  0.2267  0.8428
    9MOL   C230 2806   4.185   6.655   6.487 -0.4143  0.1477 -0.6072
    9MOL   C231 2807   4.068   6.731   6.481  0.2222 -0.3641 -0.3192
    9MOL   C232 2808   4.064   6.866   6.525 -0.2590  0.3886  0.0716
    9MOL   C233 2809   4.184   6.924   6.575 -0.1435  0.5009 -0.4544
    9MOL   H234 2810   4.630   6.959   6.611 -0.3528 -0.9135  1.3183
    9MOL   H235 2811   4.576   6.821   6.512  1.3382 -2.0455  3.7462
    9MOL   H236 2812   4.396   6.996   6.697 -0.2238 -0.5611  1.8246
    9MOL   H237 2813   4.390   6.645   6.561 -0.8374 -0.4549  0.6959
    9MOL   H238 2814   4.184   6.556   6.443  0.9649  0.7752 -2.1406
    9MOL   H239 2815   3.973   6.692   6.449 -0.6786 -0.9713  2.9218
    9MOL   H240 2816   3.969   6.915   6.508 -0.2285  0.6437  0.6395
    9MOL   H241 2817   4.178   7.027   6.607 -1.5795  0.2862 -0.0030
    9MOL   C242 2818   4.464   6.819   6.784  0.1567 -0.1033  0.3616
    9MOL   C243 2819   4.366   6.828   6.904  0.3006  0.0274 -0.6390
    9MOL   C244 2820   4.352   6.699   6.973  0.3707  0.0291 -0.4035
    9MOL   C245 2821   4.466   6.628   7.027  0.3427 -1.0763  0.0317
    9MOL   C246 2822   4.447   6.517   7.111 -0.2162 -0.2378  0.5543
    9MOL   C247 2823   4.318   6.466   7.131  0.5043  0.2097 -0.5566
    9MOL   C248 2824   4.203   6.537   7.089 -0.3772 -0.2703  0.9501
    9MOL   C249 2825   4.221   6.660   7.016  0.1352 -0.4207  0.5997
    9MOL   H250 2826   4.567   6.843   6.812  1.2707  0.8811 -4.2361
    9MOL   H251 2827   4.469   6.717   6.745 -0.7174  0.4734 -1.2910
    9MOL   H252 2828   4.271   6.869   6.869 -0.1408  0.2327  0.7938
    9MOL   H253 2829   4.566   6.658   7.000  0.8387 -1.4991  1.3788
    9MOL   H254 2830   4.530   6.459   7.149 -0.2651 -0.2604  0.6246
    9MOL   H255 2831   4.304   6.375   7.187 -3.8262 -0.2643 -2.2143
    9MOL   H256 2832   4.106   6.493   7.105  0.2146 -1.4573  1.4042
    9MOL   H257 2833   4.135   6.721   6.990 -0.2736 -0.8326  0.9578
    9MOL   C258 2834   4.416   6.932   7.004 -0.2929 -0.2034 -1.0928
    9MOL   C259 2835   4.424   7.081   6.959  0.7255 -0.0608 -0.3257
    9MOL   C260 2836   4.281   7.144   6.924 -0.3702  0.3595 -0.0026
    9MOL   C261 2837   4.167   7.111   6.998 -0.6362  0.2066  0.2342
    9MOL   C262 2838   4.044   7.161   6.962 -0.6499 -0.1313  0.1521
    9MOL   C263 2839   4.033   7.217   6.832  0.3734  0.0838 -0.8230
    9MOL   C264 2840   4.145   7.258   6.762  0.3042  0.2210  0.4598
    9MOL   C265 2841   4.275   7.227   6.807 -0.4690  0.8260  0.0192
    9MOL   H266 2842   4.517   6.905   7.037 -1.1220  0.1106  1.8346
    9MOL   H267 2843   4.355   6.933   7.094  2.8832 -0.5078  1.1521
    9MOL   H268 2844   4.490   7.092   6.873 -0.0175  1.2101 -0.7416
    9MOL   H269 2845   4.185   7.057   7.089  0.1003  0.0224 -0.0222
    9MOL   H270 2846   3.954   7.130   7.012 -0.3281  0.6196  1.2024
    9MOL   H271 2847   3.934   7.245   6.798  1.2338  2.7330 -1.2606
    9MOL   H272 2848   4.128   7.306   6.667  0.2360 -0.8507 -0.0730
    9MOL   H273 2849   4.359   7.263   6.751 -1.6891  1.4213 -1.4556
    9MOL   C274 2850   4.490   7.164   7.072  0.3839 -0.0018  0.1106
    9MOL   C275 2851   4.643   7.164   7.078 -0.1954  0.7987 -0.7766
    9MOL   C276 2852   4.700   7.226   6.948  0.3633 -0.7691  0.2109
    9MOL   C277 2853   4.686   7.364   6.928  0.7059  0.8675  0.2664
    9MOL   C278 2854   4.721   7.421   6.804 -0.2774  0.1262  0.2588
    9MOL   C279 2855   4.773   7.346   6.698  0.5830 -0.3007 -0.8322
    9MOL   C280 2856   4.800   7.207   6.726 -0.1253 -0.7392 -0.3682
    9MOL   C281 2857   4.761   7.146   6.847  0.5222 -0.3534  0.0255
    9MOL   H282 2858   4.444   7.131   7.165  0.7442  1.8138  0.9567
    9MOL   H283 2859   4.472   7.271   7.061 -2.2830 -0.2125  1.8825
    9MOL   H284 2860   4.669   7.058   7.070 -0.2593  0.6938  0.3691
    9MOL   H285 2861   4.647   7.435   6.999  0.4874 -0.3274  1.3632
    9MOL   H286 2862   4.706   7.527   6.792 -0.7261  0.0520  0.1363
    9MOL   H287 2863   4.787   7.395   6.603  2.6494  3.0187  1.0848
    9MOL   H288 2864   4.843   7.137   6.656  0.0398 -1.9108  0.8960
    9MOL   H289 2865   4.769   7.041   6.867 -1.8015 -0.8129 -1.2157
    9MOL   C290 2866   4.689   7.214   7.213  0.5399  0.8361  0.3099
    9MOL   C291 2867   4.660   7.130   7.339  0.4813 -0.1814  0.1365
    9MOL   C292 2868   4.693   6.981   7.313  0.8268  0.3310 -0.0608
    9MOL   C293 2869   4.589   6.879   7.335 -0.6568  0.6167  0.5818
    9MOL   C294 2870   4.618   6.745   7.305 -0.4670  0.2621  0.1399
    9MOL   C295 2871   4.743   6.706   7.250  0.4139  0.1048  0.0014
    9MOL   C296 2872   4.834   6.806   7.219  0.4640 -0.4453 -0.0491
    9MOL   C297 2873   4.813   6.946   7.248 -0.2241 -0.4360 -0.2369
    9MOL   H298 2874   4.646   7.314   7.222 -0.5912  0.4994 -1.0406
    9MOL   H299 2875   4.797   7.224   7.198  0.8858 -0.7858  1.5710
    9MOL   H300 2876   4.553   7.134   7.361  0.2828 -0.4027 -0.7636
    9MOL   H301 2877   4.492   6.906   7.373 -0.7968  0.0511  0.6300
    9MOL   H302 2878   4.553   6.660   7.319 -2.6260  2.0455  1.0912
    9MOL   H303 2879   4.763   6.607   7.212 -2.0531 -0.9564  1.3248
    9MOL   H304 2880   4.928   6.779   7.173  0.9218  0.3787  0.3979
    9MOL   H305 2881   4.888   7.017   7.216 -0.3155  0.0862  0.7063
    9MOL   C306 2882   4.740   7.199   7.456 -0.3517  0.4321  0.2515
    9MOL   C307 2883   4.726   7.107   7.583  0.0940 -0.4723  0.1369
    9MOL   C308 2884   4.765   7.172   7.720 -0.0008 -0.0243 -0.1531
    9MOL   C309 2885   4.893   7.152   7.776 -0.6116 -0.2136 -0.0579
    9MOL   C310 2886   4.934   7.212   7.894  0.7176 -0.3687  0.1113
    9MOL   C311 2887   4.833   7.272   7.971 -0.3689  0.2609  0.0217
    9MOL   C312 2888   4.700   7.295   7.925  0.1749 -0.2939  0.5066
    9MOL   C313 2889   4.678   7.252   7.792  0.2120 -0.5566  0.2872
    9MOL   H314 2890   4.701   7.300   7.469  0.0365  0.7272 -0.8493
    9MOL   H315 2891   4.847   7.208   7.439 -0.4811  0.2692 -0.6556
    9MOL   H316 2892   4.795   7.025   7.568  0.8266  0.2757 -0.6347
    9MOL   H317 2893   4.968   7.099   7.719  0.6050  0.5408  0.8355
    9MOL   H318 2894   5.031   7.201   7.941  0.3622  2.7491  1.6790
    9MOL   H319 2895   4.858   7.320   8.064  1.0303  2.8674 -1.6382
    9MOL   H320 2896   4.624   7.341   7.985  1.0035  1.2421  0.3909
    9MOL   H321 2897   4.586   7.276   7.740  1.1104  2.0481 -0.1853
    9MOL   H322 2898   4.630   7.056   7.595  0.2103 -0.6096  0.4926
   10MOL     C1 2899   5.229   1.977   4.936  0.3508 -0.0790 -0.4571
   10MOL     C2 2900   5.304   2.114   4.958 -0.6467  1.0651 -0.3595
   10MOL     C3 2901   5.452   2.111   4.900 -0.2723 -0.6266  0.1229
   10MOL     C4 2902   5.561   2.161   4.972 -0.1263 -0.0375 -0.2312
   10MOL     C5 2903   5.690   2.167   4.915 -0.1780 -0.7827  0.2347
   10MOL     C6 2904   5.707   2.138   4.781 -0.0532  0.6014  0.6758
   10MOL     C7 2905   5.599   2.091   4.707 -0.1115 -0.2610 -0.1824
   10MOL     C8 2906   5.474   2.079   4.762  0.4201 -0.1194 -0.3540
   10MOL     H9 2907   5.212   1.975   4.828 -3.8803 -1.0210  0.1631
   10MOL    H10 2908   5.275   1.884   4.969  0.4449 -0.0642 -0.5446
   10MOL    H11 2909   5.315   2.122   5.066  3.1681 -1.6950 -0.4424
   10MOL    H12 2910   5.544   2.204   5.069  2.0317  3.5896 -1.3853
   10MOL    H13 2911   5.773   2.204   4.973 -0.8442  0.8448  0.2050
   10MOL    H14 2912   5.809   2.145   4.749 -0.1222  0.1998  0.3748
   10MOL    H15 2913   5.614   2.073   4.602 -0.1431  1.9192 -0.5856
   10MOL    H16 2914   5.386   2.047   4.708  0.9866 -1.7810 -0.3066
   10MOL    H17 2915   5.129   1.995   4.974  0.6071 -2.7369  1.6467
   10MOL    C18 2916   5.230   2.237   4.906  0.3596  0.2677 -0.2417
   10MOL    C19 2917   5.274   2.382   4.950 -0.1781 -0.4222  0.1418
   10MOL    C20 2918   5.369   2.450   4.850 -0.6323  0.6763  0.2770
   10MOL    C21 2919   5.489   2.508   4.892  0.5288  0.0575  0.1374
   10MOL    C22 2920   5.583   2.557   4.801  0.1352  0.1298  0.7303
   10MOL    C23 2921   5.564   2.561   4.659  0.6399  0.9968 -0.5612
   10MOL    C24 2922   5.443   2.497   4.614 -0.8272  0.3152 -0.3392
   10MOL    C25 2923   5.351   2.439   4.707  0.4460 -0.0007  0.2371
   10MOL    H26 2924   5.126   2.216   4.932  0.5109  0.6468  0.7175
   10MOL    H27 2925   5.223   2.229   4.798 -4.6350  2.7160 -0.2635
   10MOL    H28 2926   5.333   2.359   5.039  0.4985  0.3307 -0.1102
   10MOL    H29 2927   5.508   2.518   4.998  1.2168  1.3466 -0.0970
   10MOL    H30 2928   5.670   2.614   4.830  1.0036 -1.2505  0.8913
   10MOL    H31 2929   5.635   2.611   4.595 -0.4679  1.1136 -1.7018
   10MOL    H32 2930   5.415   2.492   4.509  2.4393 -0.6998 -1.2283
   10MOL    H33 2931   5.261   2.403   4.660  0.0263 -0.4243  1.3322
   10MOL    C34 2932   5.160   2.475   4.994  0.4392 -0.2457 -0.0221
   10MOL    C35 2933   5.090   2.447   5.128 -0.0721 -0.7691  0.3869
   10MOL    C36 2934   5.157   2.346   5.226  0.1414  0.2246  0.3665
   10MOL    C37 2935   5.280   2.386   5.284 -0.3883  0.2133 -0.1140
   10MOL    C38 2936   5.339   2.308   5.389  0.1248 -0.4500 -0.3298
   10MOL    C39 2937   5.291   2.181   5.412  0.1357  0.7272  0.1508
   10MOL    C40 2938   5.174   2.138   5.354  0.5299  0.6872  0.0934
   10MOL    C41 2939   5.101   2.220   5.260 -0.8145 -0.7863 -0.0301
   10MOL    H42 2940   5.084   2.477   4.916  2.0613 -2.1535 -1.7127
   10MOL    H43 2941   5.201   2.576   4.996 -2.6984  1.1244 -1.7010
   10MOL    H44 2942   5.002   2.388   5.102  0.1713 -0.7095 -0.5777
   10MOL    H45 2943   5.328   2.481   5.266 -0.8656  0.8491  1.8851
   10MOL    H46 2944   5.412   2.355   5.453 -0.7235 -0.3984  0.6100
   10MOL    H47 2945   5.327   2.127   5.498 -2.3206  2.2106  2.1504
   10MOL    H48 2946   5.121   2.048   5.383  0.9749  0.5560  0.5060
   10MOL    H49 2947   5.009   2.182   5.217 -0.4721 -3.1066  1.2060
   10MOL    C50 2948   5.044   2.582   5.200 -0.3778 -0.1083  0.3269
   10MOL    C51 2949   4.944   2.677   5.130 -0.1826  0.0320 -0.2992
   10MOL    C52 2950   4.839   2.595   5.055  0.6987 -0.4249  0.2996
   10MOL    C53 2951   4.808   2.631   4.919  0.6265 -0.2801  0.0460
   10MOL    C54 2952   4.699   2.569   4.860  0.7828 -0.4676  0.1974
   10MOL    C55 2953   4.644   2.457   4.923 -0.1558 -0.1356 -0.8188
   10MOL    C56 2954   4.683   2.419   5.049  0.4184 -0.4887  0.6186
   10MOL    C57 2955   4.771   2.498   5.121 -0.4220 -0.0765 -0.4019
   10MOL    H58 2956   5.139   2.634   5.213 -1.0810  1.6346 -1.3223
   10MOL    H59 2957   5.016   2.561   5.303  0.0791  0.5345  0.5895
   10MOL    H60 2958   5.007   2.737   5.066 -0.7152  0.3328 -0.5432
   10MOL    H61 2959   4.856   2.720   4.880 -1.2575  0.6033 -0.2988
   10MOL    H62 2960   4.667   2.603   4.762 -2.3126 -1.5090  0.7835
   10MOL    H63 2961   4.563   2.400   4.880 -1.8980  1.8091 -0.1891
   10MOL    H64 2962   4.642   2.336   5.105 -2.0100  1.5520  1.9633
   10MOL    H65 2963   4.781   2.478   5.227  0.4443  0.2947 -0.4104
   10MOL    C66 2964   4.873   2.763   5.237  0.3639 -0.6796 -0.4193
   10MOL    C67 2965   4.960   2.878   5.301  0.8067  0.4256 -0.0914
   10MOL    C68 2966   5.012   2.960   5.194  0.1537  0.1253  0.6981
   10MOL    C69 2967   4.938   3.051   5.115 -0.2676  0.2265 -0.3509
   10MOL    C70 2968   4.997   3.126   5.013  0.4250 -0.5828  0.5823
   10MOL    C71 2969   5.137   3.123   4.996 -0.1714 -0.8736 -0.0996
   10MOL    C72 2970   5.216   3.031   5.074 -0.4803 -1.0021  0.3718
   10MOL    C73 2971   5.151   2.955   5.174  0.1064  0.9312 -1.2166
   10MOL    H74 2972   4.840   2.690   5.311 -0.6655 -1.3984 -1.5710
   10MOL    H75 2973   4.778   2.797   5.196  1.1415 -0.5755 -2.1781
   10MOL    H76 2974   5.038   2.834   5.363 -0.8380  0.0444  1.7791
   10MOL    H77 2975   4.831   3.051   5.126 -0.0201 -1.7596  2.6236
   10MOL    H78 2976   4.935   3.189   4.950  2.4574  2.9613  1.9858
   10MOL    H79 2977   5.175   3.188   4.919  0.2931 -1.3333 -0.2607
   10MOL    H80 2978   5.324   3.019   5.071 -0.4243 -0.0603 -2.7412
   10MOL    H81 2979   5.208   2.892   5.242 -0.4251  1.1479 -0.5656
   10MOL    C82 2980   4.871   2.968   5.403  0.3717  0.4490 -0.2540
   10MOL    C83 2981   4.833   2.883   5.528  1.0523 -0.2885 -0.1625
   10MOL    C84 2982   4.960   2.831   5.599 -0.2850  0.2412 -0.1523
   10MOL    C85 2983   4.984   2.689   5.622 -0.6771  0.9691  0.5496
   10MOL    C86 2984   5.114   2.641   5.667 -0.2340 -0.9265 -0.1908
   10MOL    C87 2985   5.220   2.734   5.679  0.4519 -0.6038 -0.4130
   10MOL    C88 2986   5.199   2.867   5.645 -0.2251  0.0071  0.5511
   10MOL    C89 2987   5.074   2.914   5.610 -0.2211 -0.0826 -0.6766
   10MOL    H90 2988   4.781   3.001   5.353 -0.3919 -2.3797 -0.8538
   10MOL    H91 2989   4.924   3.054   5.444 -0.6360  1.0772 -0.2689
   10MOL    H92 2990   4.787   2.795   5.484 -0.6452  0.3625  0.2985
   10MOL    H93 2991   4.901   2.620   5.618  0.2753 -0.0998 -1.0478
   10MOL    H94 2992   5.144   2.539   5.682  1.5545 -0.2570  0.8527
   10MOL    H95 2993   5.325   2.716   5.690  0.9898  1.4039 -1.8222
   10MOL    H96 2994   5.287   2.929   5.644  1.3015 -2.0995  1.4343
   10MOL    H97 2995   5.076   3.016   5.574  2.3300  0.4506  0.8136
   10MOL    C98 2996   4.721   2.948   5.617  0.1326 -0.2489  0.0418
   10MOL    C99 2997   4.562   2.936   5.576  0.2670  0.1225 -0.6829
   10MOL   C100 2998   4.537   2.984   5.432  0.0191 -0.5876  0.1868
   10MOL   C101 2999   4.485   3.119   5.413 -0.7059  0.2819 -0.0417
   10MOL   C102 3000   4.471   3.173   5.282  0.5054  0.2384  0.1021
   10MOL   C103 3001   4.505   3.090   5.174  0.3979 -0.3180  0.1676
   10MOL   C104 3002   4.546   2.955   5.189 -0.4175 -1.0474  0.5929
   10MOL   C105 3003   4.554   2.907   5.319 -0.0043  0.1738 -0.2646
   10MOL   H106 3004   4.755   3.050   5.629 -0.0769  0.0114 -1.4468
   10MOL   H107 3005   4.741   2.915   5.719 -0.9263 -0.8220  0.0789
   10MOL   H108 3006   4.505   2.999   5.644 -1.8237 -1.1792 -1.1737
   10MOL   H109 3007   4.455   3.179   5.498 -1.3039 -0.1571  0.0628
   10MOL   H110 3008   4.427   3.270   5.263 -0.6279 -0.2664  0.1144
   10MOL   H111 3009   4.514   3.139   5.078  0.0058  2.4991  1.5135
   10MOL   H112 3010   4.585   2.894   5.108  1.9892  1.0125  0.1247
   10MOL   H113 3011   4.578   2.801   5.317 -0.1564  0.1243  0.4985
   10MOL   C114 3012   4.509   2.792   5.597 -0.7337  0.1166  0.1008
   10MOL   C115 3013   4.513   2.741   5.742 -0.1307 -0.2203 -0.4534
   10MOL   C116 3014   4.410   2.814   5.828  0.0470  0.2515  0.0501
   10MOL   C117 3015   4.273   2.824   5.791  0.1003  0.3571 -0.4800
   10MOL   C118 3016   4.183   2.895   5.886 -0.1335  0.0781  0.1414
   10MOL   C119 3017   4.235   2.964   5.994  0.5410 -0.1867 -0.4220
   10MOL   C120 3018   4.373   2.947   6.025 -1.2703 -0.2856 -0.2304
   10MOL   C121 3019   4.449   2.862   5.950  0.5829  0.1969  0.3002
   10MOL   H122 3020   4.572   2.719   5.547 -1.1709  0.8858 -1.6019
   10MOL   H123 3021   4.414   2.776   5.546  0.0290  0.7765 -1.5663
   10MOL   H124 3022   4.618   2.755   5.768 -1.0016  3.6454  1.3428
   10MOL   H125 3023   4.240   2.786   5.696 -0.2144  1.0639 -0.6553
   10MOL   H126 3024   4.078   2.904   5.863 -0.1559 -0.6186 -0.0452
   10MOL   H127 3025   4.173   3.016   6.066  0.6531 -0.0243 -0.4440
   10MOL   H128 3026   4.414   2.995   6.112  1.9955 -1.1812 -1.1927
   10MOL   H129 3027   4.553   2.841   5.970  0.3029 -1.5699 -0.0338
   10MOL   C130 3028   4.481   2.585   5.759 -0.1824 -0.9953  0.0556
   10MOL   C131 3029   4.548   2.510   5.871  0.2388 -0.3742 -0.7688
   10MOL   C132 3030   4.460   2.388   5.900 -0.0078  0.2709 -0.1682
   10MOL   C133 3031   4.400   2.357   6.023 -0.7294 -0.4086  0.7126
   10MOL   C134 3032   4.329   2.239   6.047  0.5792  0.0556 -0.4112
   10MOL   C135 3033   4.319   2.142   5.940  0.5074  0.0282  0.0906
   10MOL   C136 3034   4.371   2.169   5.817 -0.4289 -0.1886 -0.5989
   10MOL   C137 3035   4.442   2.292   5.793 -0.3076 -0.3077 -0.3938
   10MOL   H138 3036   4.493   2.534   5.663  0.8882  0.0733 -0.3922
   10MOL   H139 3037   4.373   2.588   5.768 -0.1805  0.8497 -0.2544
   10MOL   H140 3038   4.542   2.568   5.963 -3.0399 -0.8221 -0.6387
   10MOL   H141 3039   4.418   2.418   6.110  2.0602 -0.4491  0.2230
   10MOL   H142 3040   4.275   2.224   6.139  1.6136  1.1014  0.3754
   10MOL   H143 3041   4.281   2.043   5.959 -0.8533  0.1226 -1.9513
   10MOL   H144 3042   4.371   2.084   5.750  0.4104  0.9835 -2.1166
   10MOL   H145 3043   4.492   2.319   5.701  0.9826 -0.6020  0.2074
   10MOL   C146 3044   4.701   2.473   5.850  0.4365  0.3795 -0.6631
   10MOL   C147 3045   4.759   2.391   5.968 -0.2423  0.4489  1.2260
   10MOL   C148 3046   4.902   2.335   5.945  1.0225 -0.3190  0.3892
   10MOL   C149 3047   5.003   2.423   5.918 -0.1683 -0.7469  1.1293
   10MOL   C150 3048   5.138   2.374   5.901  0.2220  0.6081 -0.1355
   10MOL   C151 3049   5.153   2.229   5.901 -0.1090  0.3658  0.4146
   10MOL   C152 3050   5.049   2.140   5.929  0.2521 -0.2188  1.0767
   10MOL   C153 3051   4.923   2.193   5.950 -1.0939  0.8880  0.0169
   10MOL   H154 3052   4.764   2.562   5.840  1.2039  0.3247  2.9826
   10MOL   H155 3053   4.717   2.424   5.755 -0.1409 -1.1593  0.0158
   10MOL   H156 3054   4.702   2.299   5.969  0.3823  0.0528  3.3413
   10MOL   H157 3055   4.988   2.530   5.911  1.7900 -0.4808  0.6533
   10MOL   H158 3056   5.214   2.443   5.868  0.0132  1.7365  1.7092
   10MOL   H159 3057   5.255   2.199   5.881 -0.3829 -0.1025 -0.2983
   10MOL   H160 3058   5.067   2.034   5.919 -1.1945 -0.2187 -2.4715
   10MOL   H161 3059   4.840   2.129   5.974 -0.2605 -0.1315  0.2403
   10MOL   C162 3060   4.754   2.463   6.098 -0.7417 -0.1117 -0.3447
   10MOL   C163 3061   4.781   2.375   6.219  0.2079 -0.3603 -0.5786
   10MOL   C164 3062   4.846   2.442   6.337 -0.6621  0.2813  0.2234
   10MOL   C165 3063   4.781   2.520   6.434 -0.5496 -0.2076 -0.0939
   10MOL   C166 3064   4.850   2.563   6.546 -0.2646 -0.6036 -1.0476
   10MOL   C167 3065   4.987   2.534   6.561 -0.0512  0.0926  0.5578
   10MOL   C168 3066   5.054   2.456   6.467 -0.1078  0.0803 -0.3049
   10MOL   C169 3067   4.985   2.413   6.354  0.3383 -0.4491 -0.5725
   10MOL   H170 3068   4.663   2.515   6.126  0.7411  2.2821  0.1991
   10MOL   H171 3069   4.837   2.533   6.090  1.4904 -2.6866 -0.6456
   10MOL   H172 3070   4.839   2.287   6.190  0.2088  0.0964 -2.0050
   10MOL   H173 3071   4.675   2.543   6.431  0.2352  3.5574 -2.2816
   10MOL   H174 3072   4.793   2.627   6.612  0.1680 -2.5561  1.2746
   10MOL   H175 3073   5.038   2.553   6.654 -1.4333 -0.9823  1.5760
   10MOL   H176 3074   5.149   2.411   6.495 -0.2556  1.6806  3.0355
   10MOL   H177 3075   5.038   2.348   6.286  1.4220  0.9747 -1.1202
   10MOL   C178 3076   4.647   2.298   6.263  0.1949  0.3948 -0.0554
   10MOL   C179 3077   4.666   2.198   6.376 -0.3297  0.2385 -0.5441
   10MOL   C180 3078   4.547   2.201   6.471  0.5950  0.3280 -0.8149
   10MOL   C181 3079   4.427   2.129   6.448  0.7572  0.1914  0.5055
   10MOL   C182 3080   4.323   2.133   6.544 -0.2389  0.2058 -0.6715
   10MOL   C183 3081   4.330   2.216   6.655 -0.2207 -1.4145 -0.3313
   10MOL   C184 3082   4.448   2.293   6.668 -0.2465  0.3426 -0.5602
   10MOL   C185 3083   4.556   2.283   6.582 -0.0247 -0.3931 -0.0027
   10MOL   H186 3084   4.602   2.247   6.177  0.0905 -0.7337  0.6497
   10MOL   H187 3085   4.577   2.375   6.294  0.8126  1.0362 -0.2571
   10MOL   H188 3086   4.749   2.243   6.430  0.4383 -0.3341 -1.2313
   10MOL   H189 3087   4.407   2.065   6.364 -0.0600  0.9752  0.0965
   10MOL   H190 3088   4.243   2.061   6.541  0.0895 -0.1979 -0.0419
   10MOL   H191 3089   4.249   2.217   6.726  0.6035 -2.7153  0.6534
   10MOL   H192 3090   4.455   2.364   6.749 -1.1006 -0.4989  0.2584
   10MOL   H193 3091   4.644   2.339   6.609 -0.3996 -1.3241  3.4142
   10MOL   C194 3092   4.701   2.053   6.332  0.3851 -0.0600 -0.2647
   10MOL   C195 3093   4.773   1.973   6.452 -0.0476  0.4194 -0.1049
   10MOL   C196 3094   4.774   1.824   6.433 -0.1451 -0.4813 -0.0328
   10MOL   C197 3095   4.716   1.737   6.526 -0.2240 -0.1011  0.2630
   10MOL   C198 3096   4.713   1.596   6.512 -0.1078 -0.5585  0.2119
   10MOL   C199 3097   4.776   1.536   6.402  0.2900  0.2792  0.2019
   10MOL   C200 3098   4.829   1.620   6.301  0.6484 -0.5284  0.1966
   10MOL   C201 3099   4.830   1.757   6.319  0.3070 -0.2885  0.3891
   10MOL   H202 3100   4.763   2.048   6.243  0.5918  2.7552 -0.3149
   10MOL   H203 3101   4.604   2.010   6.306 -0.2733  1.2492 -0.0234
   10MOL   H204 3102   4.712   1.981   6.542  0.6206  2.7061  0.1999
   10MOL   H205 3103   4.673   1.785   6.612  1.0036 -1.4375  1.6558
   10MOL   H206 3104   4.653   1.534   6.577 -1.9218  0.9237  0.0139
   10MOL   H207 3105   4.775   1.429   6.388 -0.2181  0.4220 -0.8705
   10MOL   H208 3106   4.881   1.585   6.213  0.2808  1.4722 -0.8371
   10MOL   H209 3107   4.884   1.819   6.250  0.6693 -0.6149  0.3809
   10MOL   C210 3108   4.918   2.025   6.480 -0.1535 -0.5112 -0.5225
   10MOL   C211 3109   5.017   1.935   6.548  0.3024 -0.6138  0.0083
   10MOL   C212 3110   5.164   1.970   6.505 -0.2192  0.8291  0.4007
   10MOL   C213 3111   5.214   1.932   6.377 -0.0908 -0.7018 -0.3324
   10MOL   C214 3112   5.349   1.944   6.338  0.2837  0.1947  0.1288
   10MOL   C215 3113   5.443   1.990   6.437 -0.0474 -0.1110 -0.0883
   10MOL   C216 3114   5.397   2.043   6.561  0.2363 -0.4946  0.1219
   10MOL   C217 3115   5.259   2.026   6.593 -0.5498  0.6243  0.2626
   10MOL   H218 3116   4.915   2.123   6.526  0.6354 -0.8502  0.2875
   10MOL   H219 3117   4.954   2.050   6.381  0.3862 -1.4051 -0.5613
   10MOL   H220 3118   5.015   1.835   6.505 -1.6960 -0.2356 -0.8715
   10MOL   H221 3119   5.143   1.876   6.318 -0.1159 -1.1618  0.1285
   10MOL   H222 3120   5.373   1.918   6.236  0.2677 -2.5590  0.8026
   10MOL   H223 3121   5.549   1.985   6.417  0.1885  0.6222  0.9155
   10MOL   H224 3122   5.459   2.083   6.640 -0.0415  1.1702 -0.4906
   10MOL   H225 3123   5.226   2.061   6.689  0.5280 -0.5847  1.0825
   10MOL   C226 3124   4.983   1.905   6.695  0.0597 -0.3220 -0.3493
   10MOL   C227 3125   5.066   1.795   6.775 -0.3460 -1.4840  0.4449
   10MOL   C228 3126   5.028   1.805   6.926  0.0781  0.8416  0.6849
   10MOL   C229 3127   5.122   1.851   7.021 -0.9539 -0.3388 -0.3199
   10MOL   C230 3128   5.084   1.856   7.160 -0.2377 -0.6631 -0.2628
   10MOL   C231 3129   4.955   1.821   7.206 -0.4237  0.2679 -0.0416
   10MOL   C232 3130   4.874   1.755   7.109  0.0898 -0.7625 -0.2790
   10MOL   C233 3131   4.901   1.766   6.972 -0.2221  0.0868 -0.4298
   10MOL   H234 3132   4.883   1.862   6.702  0.4201 -1.3698 -1.5046
   10MOL   H235 3133   4.991   1.998   6.751 -1.0468 -0.9684  0.9091
   10MOL   H236 3134   5.170   1.828   6.774 -0.9063  0.4167  1.0802
   10MOL   H237 3135   5.221   1.882   6.991 -0.4383  0.1400  1.7834
   10MOL   H238 3136   5.161   1.891   7.226 -0.5545  1.5144 -1.0244
   10MOL   H239 3137   4.926   1.818   7.311 -0.0867  0.8434  0.0686
   10MOL   H240 3138   4.781   1.718   7.150 -0.8818  0.2122 -1.5753
   10MOL   H241 3139   4.825   1.730   6.905 -0.1271 -0.4345 -0.2552
   10MOL   C242 3140   5.050   1.653   6.729  0.4397 -0.2734 -0.1697
   10MOL   C243 3141   5.148   1.603   6.624 -0.2046 -0.7360  0.3730
   10MOL   C244 3142   5.292   1.607   6.668  0.5150  0.4472  0.0140
   10MOL   C245 3143   5.333   1.539   6.785 -0.3862 -0.7633 -0.6642
   10MOL   C246 3144   5.471   1.541   6.823 -0.1328  0.2128 -0.2133
   10MOL   C247 3145   5.567   1.590   6.731  0.3356  0.5062 -0.0389
   10MOL   C248 3146   5.524   1.666   6.623  0.3764  1.1871 -0.2498
   10MOL   C249 3147   5.389   1.675   6.593  0.2932  0.4387 -0.1874
   10MOL   H250 3148   4.963   1.661   6.665 -0.6692  3.5204  1.6303
   10MOL   H251 3149   5.038   1.571   6.801  0.6156 -0.7231 -0.6536
   10MOL   H252 3150   5.149   1.669   6.536 -0.7243  0.2287  1.0843
   10MOL   H253 3151   5.264   1.478   6.842 -0.1185 -0.7095 -0.2740
   10MOL   H254 3152   5.511   1.481   6.904  0.7576  0.1129 -0.7134
   10MOL   H255 3153   5.672   1.589   6.756  0.9177 -0.5851 -2.4152
   10MOL   H256 3154   5.589   1.717   6.553 -0.3632  0.2040 -1.6835
   10MOL   H257 3155   5.352   1.733   6.510  0.3932 -1.8894 -1.8933
   10MOL   C258 3156   5.109   1.467   6.552  0.0668  0.4829  0.1399
   10MOL   C259 3157   5.211   1.408   6.460  0.3637  0.6363 -0.1511
   10MOL   C260 3158   5.181   1.254   6.444  0.6708 -0.3900  0.4082
   10MOL   C261 3159   5.076   1.214   6.359 -0.3471  0.4897 -0.7378
   10MOL   C262 3160   5.046   1.074   6.335 -0.2223 -1.2808  0.0220
   10MOL   C263 3161   5.142   0.977   6.380  0.0996  0.6705 -0.1963
   10MOL   C264 3162   5.234   1.014   6.476 -0.1734  0.3485 -0.6098
   10MOL   C265 3163   5.255   1.151   6.507 -0.3499  0.0288  0.2023
   10MOL   H266 3164   5.003   1.469   6.527  0.1012 -1.0918 -0.2093
   10MOL   H267 3165   5.106   1.392   6.631  1.4917 -0.0356 -0.2918
   10MOL   H268 3166   5.306   1.408   6.514  0.2160  0.0383  0.1161
   10MOL   H269 3167   5.021   1.288   6.303 -1.0414  0.7302  0.2428
   10MOL   H270 3168   4.961   1.054   6.271  0.9408 -1.5933 -1.4722
   10MOL   H271 3169   5.119   0.872   6.366  1.0901  0.1672  1.7217
   10MOL   H272 3170   5.303   0.943   6.520 -1.5509  0.0196  1.0490
   10MOL   H273 3171   5.334   1.178   6.576  0.0747 -1.0476  0.1489
   10MOL   C274 3172   5.237   1.489   6.326 -0.9563 -0.3039  0.0224
   10MOL   C275 3173   5.322   1.418   6.216 -0.2976 -0.6586  0.0823
   10MOL   C276 3174   5.327   1.508   6.091 -0.5140  0.1583 -0.1393
   10MOL   C277 3175   5.275   1.459   5.972 -0.0466  0.3052  0.0455
   10MOL   C278 3176   5.268   1.541   5.860 -0.5223  0.1133  0.0875
   10MOL   C279 3177   5.306   1.671   5.866 -0.5682  1.0038 -0.8103
   10MOL   C280 3178   5.363   1.719   5.985 -0.4351 -0.4016  0.4535
   10MOL   C281 3179   5.377   1.641   6.098  0.4277  0.0521  0.2142
   10MOL   H282 3180   5.284   1.582   6.356  0.6917 -1.6248  1.6438
   10MOL   H283 3181   5.142   1.511   6.277  0.1831  1.7632 -1.3261
   10MOL   H284 3182   5.275   1.323   6.193 -2.7015  0.4890  0.0933
   10MOL   H285 3183   5.239   1.357   5.961 -1.8397  0.9543 -0.4156
   10MOL   H286 3184   5.225   1.507   5.767  0.9118  0.3964 -0.6972
   10MOL   H287 3185   5.294   1.741   5.784 -1.3653  1.9933  0.1497
   10MOL   H288 3186   5.403   1.819   5.973  0.0055 -0.6455 -0.1509
   10MOL   H289 3187   5.412   1.687   6.189  0.7256  0.9376 -0.3346
   10MOL   C290 3188   5.466   1.382   6.271  0.2263  0.9500  0.6887
   10MOL   C291 3189   5.568   1.317   6.170  0.3735  0.6015 -0.2876
   10MOL   C292 3190   5.698   1.277   6.236  0.2644  0.4479 -0.0878
   10MOL   C293 3191   5.824   1.310   6.181 -0.3873 -0.2406 -0.6832
   10MOL   C294 3192   5.940   1.259   6.248 -1.1632  0.0020  0.8626
   10MOL   C295 3193   5.930   1.167   6.356  0.2616  0.6171  0.1483
   10MOL   C296 3194   5.807   1.134   6.408  0.2532  0.7665  0.0073
   10MOL   C297 3195   5.692   1.202   6.355  0.3217  0.6259 -0.1110
   10MOL   H298 3196   5.461   1.309   6.352  1.7304  0.1139  0.0632
   10MOL   H299 3197   5.510   1.476   6.302 -2.2137  2.1181  0.7758
   10MOL   H300 3198   5.600   1.398   6.104  0.0926  1.3714  0.5042
   10MOL   H301 3199   5.828   1.357   6.084 -0.2926 -2.7081 -1.9258
   10MOL   H302 3200   6.039   1.274   6.207 -0.8692  0.6537  1.8078
   10MOL   H303 3201   6.020   1.112   6.379 -0.6584 -1.1688 -0.4449
   10MOL   H304 3202   5.791   1.054   6.478  1.1356 -0.1210 -0.7814
   10MOL   H305 3203   5.592   1.176   6.385  0.2796  1.8091  0.8248
   10MOL   C306 3204   5.516   1.213   6.074  0.2691 -0.3588  0.6070
   10MOL   C307 3205   5.464   1.083   6.139 -0.5852  0.7321 -0.1192
   10MOL   C308 3206   5.393   0.986   6.055  0.5212  0.6316 -0.2888
   10MOL   C309 3207   5.368   1.002   5.918  0.0191  0.4515 -0.5364
   10MOL   C310 3208   5.318   0.904   5.833  0.3715  0.1756  0.6711
   10MOL   C311 3209   5.278   0.782   5.886  0.2460  0.3407 -0.0101
   10MOL   C312 3210   5.276   0.765   6.023  0.5295 -0.1796 -0.1953
   10MOL   C313 3211   5.340   0.860   6.106  0.5262 -0.1991 -0.1188
   10MOL   H314 3212   5.583   1.195   5.990  1.8935  0.0994  1.7735
   10MOL   H315 3213   5.428   1.258   6.029  0.9759  2.3756  1.8482
   10MOL   H316 3214   5.414   1.096   6.235 -1.4297 -1.4623 -0.2293
   10MOL   H317 3215   5.384   1.099   5.874 -2.5499  2.0476  1.8857
   10MOL   H318 3216   5.321   0.923   5.727 -0.0214  0.3868  0.7001
   10MOL   H319 3217   5.243   0.699   5.827  0.7760 -0.4663  0.7996
   10MOL   H320 3218   5.233   0.672   6.057 -2.8493  0.8671 -1.4963
   10MOL   H321 3219   5.346   0.824   6.207 -1.6355 -0.1756  0.0218
   10MOL   H322 3220   5.556   1.037   6.175 -1.0250  0.6266  0.8968
   11MOL     C1 3221   4.763   3.776   6.532 -0.0697 -0.0900  0.1333
   11MOL     C2 3222   4.913   3.807   6.559  0.3235 -0.2546  0.0455
   11MOL     C3 3223   4.914   3.903   6.682  0.2937  0.2294 -0.6219
   11MOL     C4 3224   4.870   3.865   6.811 -0.6910  0.0452 -0.1590
   11MOL     C5 3225   4.871   3.950   6.921  0.4667 -0.6544 -0.6608
   11MOL     C6 3226   4.929   4.080   6.905 -0.2082 -0.4330 -0.5658
   11MOL     C7 3227   4.978   4.117   6.781 -0.3490  0.1091 -0.8427
   11MOL     C8 3228   4.967   4.035   6.666  1.1527  0.1363 -0.5463
   11MOL     H9 3229   4.717   3.723   6.615  0.7209  0.0365  0.6564
   11MOL    H10 3230   4.713   3.866   6.496 -1.3991 -2.3348 -3.9797
   11MOL    H11 3231   4.960   3.849   6.470 -1.1401 -1.0598 -1.1293
   11MOL    H12 3232   4.826   3.769   6.833  1.6078 -0.5534  2.1460
   11MOL    H13 3233   4.841   3.930   7.023  0.5677  1.1328 -0.2479
   11MOL    H14 3234   4.930   4.146   6.990  0.4660 -0.1574 -0.7874
   11MOL    H15 3235   5.017   4.218   6.773 -1.8851  0.9471  1.5367
   11MOL    H16 3236   5.004   4.054   6.567  2.1574 -0.6790 -0.3262
   11MOL    H17 3237   4.768   3.704   6.450 -0.3148 -0.3802  0.3716
   11MOL    C18 3238   4.997   3.687   6.600 -0.4417  0.1517  0.1525
   11MOL    C19 3239   5.072   3.608   6.490 -0.7800  0.5857 -0.1434
   11MOL    C20 3240   5.161   3.700   6.400 -0.3757 -0.4024 -0.3724
   11MOL    C21 3241   5.239   3.809   6.445  0.3599 -0.5271 -0.0707
   11MOL    C22 3242   5.314   3.888   6.351  0.7807  0.0706  0.3713
   11MOL    C23 3243   5.315   3.853   6.211 -0.0843  0.0552 -0.2085
   11MOL    C24 3244   5.230   3.745   6.172 -0.8027 -0.2851  0.4164
   11MOL    C25 3245   5.150   3.679   6.261 -0.9220  0.2298 -0.8392
   11MOL    H26 3246   4.930   3.623   6.658  0.1314 -1.7881 -1.2518
   11MOL    H27 3247   5.065   3.725   6.676 -0.3992  0.1987  0.0915
   11MOL    H28 3248   4.987   3.563   6.438 -2.8558  2.2979  1.6826
   11MOL    H29 3249   5.244   3.839   6.548  1.3172 -0.1238 -0.2261
   11MOL    H30 3250   5.374   3.972   6.383  2.8089 -1.4256  0.5994
   11MOL    H31 3251   5.362   3.906   6.129 -0.1572  1.3983  0.5978
   11MOL    H32 3252   5.235   3.728   6.066 -0.0753  0.2803  0.3551
   11MOL    H33 3253   5.081   3.607   6.220 -0.2094  0.1960 -2.0023
   11MOL    C34 3254   5.158   3.500   6.564  0.2053  0.7213 -0.6741
   11MOL    C35 3255   5.086   3.393   6.658  0.1953  0.0261  0.1121
   11MOL    C36 3256   4.985   3.313   6.573 -0.4153 -0.6252  0.2508
   11MOL    C37 3257   4.849   3.307   6.609  0.1696  0.4122  0.4148
   11MOL    C38 3258   4.753   3.253   6.514 -0.4093 -0.1921 -0.0926
   11MOL    C39 3259   4.796   3.201   6.387 -0.4941  0.0257 -0.5335
   11MOL    C40 3260   4.930   3.201   6.362 -0.2210 -0.6543 -0.0323
   11MOL    C41 3261   5.023   3.263   6.447  0.5787 -0.9280  0.2948
   11MOL    H42 3262   5.220   3.554   6.635  0.5407 -1.5836  0.8606
   11MOL    H43 3263   5.224   3.448   6.494  1.7474  2.0632 -0.2362
   11MOL    H44 3264   5.030   3.457   6.726  1.2816  0.5874  0.5087
   11MOL    H45 3265   4.808   3.330   6.707  1.5354 -1.6195  1.4953
   11MOL    H46 3266   4.646   3.248   6.528 -0.2762 -0.8312  0.7431
   11MOL    H47 3267   4.720   3.167   6.318 -0.9956  0.1170 -0.0348
   11MOL    H48 3268   4.973   3.170   6.268  0.7202 -0.4444  0.3221
   11MOL    H49 3269   5.124   3.286   6.415  0.3475  1.2037  0.9981
   11MOL    C50 3270   5.183   3.310   6.737 -0.6679 -0.1929 -0.1671
   11MOL    C51 3271   5.135   3.181   6.797 -0.8722  0.3703  0.3884
   11MOL    C52 3272   5.255   3.091   6.840  0.0880 -0.6829  0.3526
   11MOL    C53 3273   5.274   2.960   6.788 -0.3322 -0.7663  0.5044
   11MOL    C54 3274   5.388   2.881   6.828 -0.2160  0.4657  0.4984
   11MOL    C55 3275   5.479   2.927   6.927  0.1240 -0.4522 -0.2075
   11MOL    C56 3276   5.458   3.058   6.973  0.2432 -0.1596 -0.6356
   11MOL    C57 3277   5.348   3.138   6.936  0.1638  0.3357  1.1624
   11MOL    H58 3278   5.237   3.376   6.806 -2.0178 -1.6705  2.3897
   11MOL    H59 3279   5.256   3.280   6.663 -2.4917 -2.4294 -1.1106
   11MOL    H60 3280   5.086   3.119   6.722 -0.8163  1.3674 -0.4984
   11MOL    H61 3281   5.212   2.916   6.711 -0.1822 -1.6500  0.8816
   11MOL    H62 3282   5.402   2.786   6.781 -4.2040 -0.7450  1.5404
   11MOL    H63 3283   5.560   2.863   6.957  0.5106 -1.8014 -3.8078
   11MOL    H64 3284   5.529   3.089   7.048 -1.6582  0.2616  1.0189
   11MOL    H65 3285   5.338   3.236   6.979 -2.3109  0.4873  0.3402
   11MOL    C66 3286   5.040   3.208   6.920 -0.7235 -0.3117  0.0728
   11MOL    C67 3287   4.964   3.088   6.973  0.3023  0.4225 -0.4874
   11MOL    C68 3288   4.915   3.101   7.113 -0.4134  0.2746 -0.4207
   11MOL    C69 3289   4.925   2.986   7.191 -0.4595  0.2040  0.2107
   11MOL    C70 3290   4.878   2.992   7.326  0.1495  0.3556  0.2230
   11MOL    C71 3291   4.818   3.113   7.372  0.2584 -0.5250  0.7952
   11MOL    C72 3292   4.800   3.223   7.289  0.2196  0.4864  0.0857
   11MOL    C73 3293   4.851   3.216   7.156 -0.9589  0.0614 -0.3303
   11MOL    H74 3294   4.975   3.294   6.906  0.6923  0.4807 -1.8601
   11MOL    H75 3295   5.102   3.247   7.001 -0.0223 -2.2016  0.4674
   11MOL    H76 3296   5.039   3.010   6.967  0.6979  0.4639  2.9240
   11MOL    H77 3297   4.963   2.896   7.145 -1.9354 -0.2806 -0.0907
   11MOL    H78 3298   4.895   2.902   7.382  0.1989  0.3690  0.2282
   11MOL    H79 3299   4.794   3.120   7.477 -0.2113 -1.4853  0.7516
   11MOL    H80 3300   4.740   3.304   7.328 -0.4962  0.1617 -0.3243
   11MOL    H81 3301   4.844   3.304   7.094  1.4708  2.1890  2.2347
   11MOL    C82 3302   4.851   3.054   6.878  0.4925  0.9440  0.7694
   11MOL    C83 3303   4.779   2.915   6.891  0.2797 -0.4231  0.8034
   11MOL    C84 3304   4.666   2.888   6.786 -0.5644 -0.2349 -0.1646
   11MOL    C85 3305   4.698   2.891   6.649 -0.4079 -0.1708 -0.1617
   11MOL    C86 3306   4.606   2.861   6.551  0.8930 -0.0575 -0.1514
   11MOL    C87 3307   4.480   2.810   6.598 -0.0014  0.7649  0.3437
   11MOL    C88 3308   4.440   2.798   6.734 -0.1459  0.1101 -0.1198
   11MOL    C89 3309   4.538   2.838   6.825  0.1932  0.4290  1.3502
   11MOL    H90 3310   4.884   3.064   6.775  0.2701 -2.8147  0.2572
   11MOL    H91 3311   4.771   3.128   6.882 -1.5619 -1.0617 -1.6681
   11MOL    H92 3312   4.715   2.921   6.979 -1.5961 -0.7082 -0.5200
   11MOL    H93 3313   4.793   2.924   6.608 -0.3135  1.7512  1.4854
   11MOL    H94 3314   4.630   2.853   6.446 -0.0604  0.7930 -0.4435
   11MOL    H95 3315   4.404   2.783   6.527  0.5713  0.5009 -0.1719
   11MOL    H96 3316   4.344   2.767   6.770  0.2982 -0.9079  0.1946
   11MOL    H97 3317   4.526   2.832   6.932 -2.4619  3.1803  1.2881
   11MOL    C98 3318   4.876   2.792   6.894  0.5498 -0.4213  0.5951
   11MOL    C99 3319   4.812   2.661   6.949  0.2843  0.3525 -0.0212
   11MOL   C100 3320   4.905   2.537   6.925 -0.3416 -0.0608 -0.6888
   11MOL   C101 3321   5.033   2.531   6.979 -0.5780 -0.3165  0.3216
   11MOL   C102 3322   5.115   2.415   6.960  0.4721  0.2419 -0.1580
   11MOL   C103 3323   5.066   2.305   6.887 -0.4557  0.3077 -0.1821
   11MOL   C104 3324   4.937   2.311   6.834  0.1208 -0.1183  0.2835
   11MOL   C105 3325   4.859   2.428   6.851 -0.4124  0.0416  0.3168
   11MOL   H106 3326   4.963   2.817   6.956  1.9837  2.3640 -2.3886
   11MOL   H107 3327   4.916   2.790   6.793 -1.7766  0.8218 -0.3674
   11MOL   H108 3328   4.722   2.649   6.889  0.9895 -3.7974 -0.4063
   11MOL   H109 3329   5.081   2.611   7.032 -0.3481  1.5072 -2.5327
   11MOL   H110 3330   5.211   2.404   7.008 -0.1063 -1.0307  0.7152
   11MOL   H111 3331   5.134   2.224   6.865 -2.5851 -0.8716 -2.6645
   11MOL   H112 3332   4.900   2.226   6.779  1.1007  0.9056 -1.9886
   11MOL   H113 3333   4.762   2.437   6.805 -0.2769  1.1222  0.2454
   11MOL   C114 3334   4.775   2.673   7.097 -0.9015  0.2395  0.0531
   11MOL   C115 3335   4.710   2.549   7.164  0.5682  0.0708  0.6059
   11MOL   C116 3336   4.822   2.453   7.223  0.5117  0.2939  0.1661
   11MOL   C117 3337   4.920   2.495   7.316  0.1269 -0.9206 -0.1910
   11MOL   C118 3338   5.012   2.402   7.382 -0.8968  0.0115  0.3816
   11MOL   C119 3339   5.014   2.270   7.333 -0.2622  0.1793  0.3261
   11MOL   C120 3340   4.928   2.231   7.228 -0.0259 -0.4998  0.6815
   11MOL   C121 3341   4.817   2.312   7.190  0.4359  0.6766  0.3455
   11MOL   H122 3342   4.709   2.758   7.112  0.2464  1.2755 -0.6613
   11MOL   H123 3343   4.863   2.701   7.155 -1.4098  2.3331 -0.1528
   11MOL   H124 3344   4.657   2.496   7.085  0.9480  1.2028 -0.4151
   11MOL   H125 3345   4.905   2.598   7.347  0.1227 -1.3441  1.2553
   11MOL   H126 3346   5.067   2.433   7.470  0.7509 -1.2506 -0.1664
   11MOL   H127 3347   5.081   2.202   7.385 -1.0409 -0.4761  0.4875
   11MOL   H128 3348   4.922   2.130   7.190 -0.4819 -0.7250  1.3300
   11MOL   H129 3349   4.742   2.273   7.123  2.3178 -4.1913  0.8394
   11MOL   C130 3350   4.615   2.593   7.277  1.1941  0.1444  0.6206
   11MOL   C131 3351   4.468   2.602   7.231 -0.7308 -0.3364 -0.1454
   11MOL   C132 3352   4.407   2.466   7.185 -0.8305  0.2535  0.4854
   11MOL   C133 3353   4.442   2.344   7.250  0.4620  0.3277  0.3539
   11MOL   C134 3354   4.381   2.225   7.209 -0.4839 -0.7381 -0.2438
   11MOL   C135 3355   4.299   2.227   7.097  0.0644  0.5844  0.5923
   11MOL   C136 3356   4.267   2.347   7.029  0.6232  0.0636 -0.5083
   11MOL   C137 3357   4.309   2.468   7.081 -1.1831  0.1536 -0.6949
   11MOL   H138 3358   4.654   2.683   7.325  0.3305  0.3981  0.8434
   11MOL   H139 3359   4.630   2.519   7.356 -2.7786  0.3061  1.5990
   11MOL   H140 3360   4.462   2.666   7.142 -0.1175 -0.4830 -0.2947
   11MOL   H141 3361   4.524   2.331   7.319  1.0355  1.0688 -0.1757
   11MOL   H142 3362   4.400   2.125   7.245  0.7045 -0.8478 -1.1533
   11MOL   H143 3363   4.270   2.129   7.059 -0.3952  1.2041 -0.7036
   11MOL   H144 3364   4.203   2.338   6.942 -0.8952 -1.9403  0.7791
   11MOL   H145 3365   4.285   2.561   7.032  0.5034  0.8195 -0.3106
   11MOL   C146 3366   4.378   2.652   7.344 -0.1521 -0.3446  0.1463
   11MOL   C147 3367   4.372   2.804   7.372 -0.2073 -0.0022 -0.2044
   11MOL   C148 3368   4.398   2.899   7.260 -0.3702 -0.7647 -0.1701
   11MOL   C149 3369   4.505   2.987   7.251 -0.5073  0.3060  0.4821
   11MOL   C150 3370   4.531   3.074   7.139 -0.1894  0.0211 -0.4113
   11MOL   C151 3371   4.441   3.059   7.035  0.1621  0.1134 -1.3106
   11MOL   C152 3372   4.326   2.981   7.046  0.3920 -0.5206 -0.4222
   11MOL   C153 3373   4.304   2.899   7.156  0.4977 -0.5940 -0.0223
   11MOL   H154 3374   4.391   2.597   7.437 -1.4396  0.1772  0.6502
   11MOL   H155 3375   4.274   2.635   7.318 -0.4305  3.4851 -1.6325
   11MOL   H156 3376   4.455   2.822   7.439 -0.7407  0.6132  0.3024
   11MOL   H157 3377   4.582   2.977   7.326 -0.9157 -0.2991  0.8269
   11MOL   H158 3378   4.616   3.140   7.132 -0.4771  0.3278 -1.0393
   11MOL   H159 3379   4.448   3.112   6.941 -0.7439  3.2139  0.3050
   11MOL   H160 3380   4.260   2.963   6.962  0.3627  0.6231 -0.6508
   11MOL   H161 3381   4.216   2.837   7.151  0.6067 -0.6099 -1.9768
   11MOL   C162 3382   4.244   2.848   7.452 -0.5339  0.2850  0.2893
   11MOL   C163 3383   4.233   2.799   7.605  0.1930  0.4617 -0.9361
   11MOL   C164 3384   4.348   2.858   7.689  0.3901 -0.1098  0.7422
   11MOL   C165 3385   4.376   2.992   7.689 -0.1796 -0.1315  0.2701
   11MOL   C166 3386   4.480   3.047   7.769  0.4920  0.0889 -0.1948
   11MOL   C167 3387   4.538   2.963   7.862 -0.7079 -0.5167 -0.8908
   11MOL   C168 3388   4.508   2.828   7.877  0.6582  0.6337 -0.3255
   11MOL   C169 3389   4.415   2.772   7.778  0.4159  0.0572  0.2166
   11MOL   H170 3390   4.155   2.817   7.398  0.0566  0.7893 -0.9828
   11MOL   H171 3391   4.238   2.957   7.458 -1.8622  0.2244  0.1482
   11MOL   H172 3392   4.246   2.691   7.598  0.9918  0.4659  0.4702
   11MOL   H173 3393   4.322   3.052   7.617 -1.3386 -2.3338 -0.7657
   11MOL   H174 3394   4.520   3.147   7.756  2.2810 -0.6177 -0.2757
   11MOL   H175 3395   4.612   3.010   7.925  0.2365  0.4385 -2.6697
   11MOL   H176 3396   4.554   2.763   7.950  0.4429  1.5381  0.6158
   11MOL   H177 3397   4.409   2.665   7.788  3.2895 -0.1441 -0.0220
   11MOL   C178 3398   4.095   2.825   7.665  0.3709  0.1759 -0.2307
   11MOL   C179 3399   3.983   2.722   7.629  0.1269 -0.1004  0.5835
   11MOL   C180 3400   4.022   2.582   7.672 -0.8940 -0.3551  0.1944
   11MOL   C181 3401   4.081   2.496   7.572 -0.3830 -0.3560 -0.2947
   11MOL   C182 3402   4.133   2.377   7.605  0.1956  0.2658  0.6054
   11MOL   C183 3403   4.122   2.325   7.733  0.4373 -0.5366 -0.1896
   11MOL   C184 3404   4.054   2.405   7.827  0.0040  0.4431 -0.3390
   11MOL   C185 3405   4.007   2.536   7.799 -0.7440  0.0374 -0.3975
   11MOL   H186 3406   4.063   2.928   7.648 -0.3218  0.4751  2.6191
   11MOL   H187 3407   4.120   2.826   7.771  0.9421  1.6577 -0.3561
   11MOL   H188 3408   3.983   2.732   7.520  0.4433 -0.9625  0.5035
   11MOL   H189 3409   4.099   2.532   7.472 -1.1862  0.2122 -0.2348
   11MOL   H190 3410   4.184   2.320   7.529  1.7330  0.3181  1.5744
   11MOL   H191 3411   4.154   2.228   7.768  0.2128 -0.4136  0.3660
   11MOL   H192 3412   4.044   2.368   7.928  0.9855 -1.7084 -0.9957
   11MOL   H193 3413   3.959   2.588   7.880 -0.3434 -2.8822  1.8109
   11MOL   C194 3414   3.842   2.755   7.682 -0.0715 -0.7454  0.4340
   11MOL   C195 3415   3.748   2.850   7.594 -1.0535 -0.4326 -0.0723
   11MOL   C196 3416   3.810   2.990   7.563  0.0451  0.0887  0.4491
   11MOL   C197 3417   3.773   3.111   7.639  0.6273  0.3504  0.3444
   11MOL   C198 3418   3.813   3.237   7.585  0.9172  0.2080  0.1068
   11MOL   C199 3419   3.892   3.241   7.470 -0.4784 -1.1298  0.2596
   11MOL   C200 3420   3.934   3.126   7.405 -0.1176  0.4313 -0.0998
   11MOL   C201 3421   3.889   2.998   7.452 -0.0764 -0.0990  0.4083
   11MOL   H202 3422   3.840   2.797   7.783  3.1141  0.5890 -0.0262
   11MOL   H203 3423   3.786   2.664   7.703 -1.0096  0.3882  3.0291
   11MOL   H204 3424   3.666   2.878   7.660  2.1431  0.3554  3.8038
   11MOL   H205 3425   3.699   3.100   7.717  0.2190  2.1010  0.2250
   11MOL   H206 3426   3.775   3.336   7.607 -0.4470 -0.2124 -0.2668
   11MOL   H207 3427   3.927   3.329   7.419 -0.9980 -0.2820  1.3593
   11MOL   H208 3428   3.990   3.145   7.314  0.4528 -2.4096 -0.3975
   11MOL   H209 3429   3.923   2.912   7.396 -2.0751  0.0575 -1.1033
   11MOL   C210 3430   3.682   2.780   7.474  0.8611  0.5243  0.0065
   11MOL   C211 3431   3.570   2.684   7.521 -0.2169 -0.0755 -0.4264
   11MOL   C212 3432   3.453   2.758   7.590  0.3578  0.9966 -0.3147
   11MOL   C213 3433   3.390   2.702   7.702  0.4757 -0.4913 -0.4851
   11MOL   C214 3434   3.274   2.763   7.760  0.0457  0.1427 -0.3942
   11MOL   C215 3435   3.216   2.869   7.695  0.1748 -0.1167  0.2056
   11MOL   C216 3436   3.282   2.927   7.587 -0.6152 -0.6034 -0.2267
   11MOL   C217 3437   3.397   2.868   7.531 -0.9650 -0.0187 -0.0934
   11MOL   H218 3438   3.763   2.727   7.425  1.3218  0.6990  0.5735
   11MOL   H219 3439   3.635   2.850   7.405  1.3076  1.0669  0.2494
   11MOL   H220 3440   3.609   2.625   7.603  1.2599  0.8801 -0.4227
   11MOL   H221 3441   3.421   2.611   7.751 -0.1376 -0.0327  0.7967
   11MOL   H222 3442   3.234   2.722   7.851  1.3829 -0.2404  0.0401
   11MOL   H223 3443   3.128   2.922   7.728 -0.6097 -0.8627 -0.6446
   11MOL   H224 3444   3.242   3.018   7.544 -0.5613 -1.0335 -1.2085
   11MOL   H225 3445   3.444   2.909   7.442 -0.2679 -0.7953 -0.0884
   11MOL   C226 3446   3.529   2.589   7.410  0.0184  0.4164 -0.1426
   11MOL   C227 3447   3.628   2.467   7.393 -0.3211 -0.2089  0.2916
   11MOL   C228 3448   3.617   2.382   7.518 -0.5354 -0.5051 -0.3241
   11MOL   C229 3449   3.721   2.374   7.613  0.2068  0.0558  0.3212
   11MOL   C230 3450   3.713   2.285   7.727  0.1240  0.2309  0.2702
   11MOL   C231 3451   3.591   2.218   7.748 -0.3945  0.8672 -0.2896
   11MOL   C232 3452   3.482   2.234   7.656 -0.2113 -0.2234 -0.1994
   11MOL   C233 3453   3.495   2.317   7.544 -0.0965  0.7733  0.4197
   11MOL   H234 3454   3.530   2.634   7.311 -3.7086 -1.7794 -1.2886
   11MOL   H235 3455   3.426   2.553   7.410 -0.3404  1.4302 -0.9016
   11MOL   H236 3456   3.729   2.509   7.392 -1.0017  1.4869  0.5981
   11MOL   H237 3457   3.813   2.427   7.595  0.3242 -1.0124 -2.4781
   11MOL   H238 3458   3.796   2.269   7.794 -0.2159  0.7956  0.8335
   11MOL   H239 3459   3.604   2.135   7.817  1.0099  0.8623 -0.5370
   11MOL   H240 3460   3.400   2.165   7.663 -0.7830  0.3119 -1.4888
   11MOL   H241 3461   3.421   2.316   7.465  0.6482 -0.5648 -0.2817
   11MOL   C242 3462   3.618   2.381   7.265  0.0471 -0.2197  0.3758
   11MOL   C243 3463   3.658   2.440   7.125  0.0281  0.1039 -0.1889
   11MOL   C244 3464   3.765   2.552   7.139  0.4638 -0.0276  0.8772
   11MOL   C245 3465   3.730   2.687   7.118  0.3935  0.3681  0.2606
   11MOL   C246 3466   3.819   2.793   7.140 -0.5656 -0.1102  0.3580
   11MOL   C247 3467   3.946   2.766   7.193 -0.3632 -0.4615 -0.3492
   11MOL   C248 3468   3.980   2.635   7.222 -0.4303  0.1043 -0.0502
   11MOL   C249 3469   3.894   2.526   7.188 -0.3176 -0.1648 -0.3889
   11MOL   H250 3470   3.520   2.334   7.260  1.6066 -3.6264  0.0163
   11MOL   H251 3471   3.691   2.300   7.272  0.8387  0.3202 -1.4896
   11MOL   H252 3472   3.569   2.497   7.100 -1.9518 -2.3512  0.9707
   11MOL   H253 3473   3.628   2.703   7.087  0.7903  2.0184 -0.2301
   11MOL   H254 3474   3.797   2.896   7.118  2.7392  0.5583 -0.0631
   11MOL   H255 3475   4.015   2.846   7.219  2.0420 -2.6537  0.1682
   11MOL   H256 3476   4.071   2.615   7.275 -0.3047  0.3399 -0.1752
   11MOL   H257 3477   3.937   2.433   7.222  1.4242  0.3856 -1.0339
   11MOL   C258 3478   3.679   2.333   7.014 -0.1575  0.7845 -0.6391
   11MOL   C259 3479   3.557   2.242   6.979  0.5392  0.4041 -0.2707
   11MOL   C260 3480   3.435   2.327   6.946 -0.4943 -0.0835 -0.9299
   11MOL   C261 3481   3.442   2.419   6.843  0.4877  0.5205  0.7645
   11MOL   C262 3482   3.331   2.496   6.807  0.2287  0.5294 -0.3408
   11MOL   C263 3483   3.215   2.479   6.885  0.4988 -0.2750 -0.7545
   11MOL   C264 3484   3.207   2.380   6.987  0.4803  0.0780  0.0824
   11MOL   C265 3485   3.318   2.300   7.015 -0.5164 -0.5363  0.0935
   11MOL   H266 3486   3.757   2.260   7.037  1.1949  1.7868 -1.9478
   11MOL   H267 3487   3.723   2.389   6.932  1.6831 -0.1845 -0.3545
   11MOL   H268 3488   3.529   2.171   7.057 -0.3585  1.2881  0.2236
   11MOL   H269 3489   3.541   2.435   6.802 -0.0213  0.0915 -0.6470
   11MOL   H270 3490   3.343   2.575   6.734  1.7968  0.1388 -0.5170
   11MOL   H271 3491   3.129   2.541   6.865  1.3784  0.5823 -2.0071
   11MOL   H272 3492   3.113   2.360   7.036 -2.8552  0.3250 -5.6440
   11MOL   H273 3493   3.316   2.227   7.094  0.2534 -1.8858 -1.0998
   11MOL   C274 3494   3.586   2.150   6.853  0.3256  0.1575 -0.6405
   11MOL   C275 3495   3.466   2.090   6.773 -0.1465  0.4694 -0.1675
   11MOL   C276 3496   3.506   2.019   6.639  0.4185  0.7610 -0.4392
   11MOL   C277 3497   3.464   2.070   6.516 -0.3436 -0.0791 -0.1953
   11MOL   C278 3498   3.508   1.999   6.399 -0.2152  0.0302  0.9634
   11MOL   C279 3499   3.584   1.879   6.409  1.0485 -0.0860  0.4937
   11MOL   C280 3500   3.617   1.824   6.531 -0.2173 -0.0278  0.6594
   11MOL   C281 3501   3.582   1.898   6.643  0.9096  0.7569  0.0642
   11MOL   H282 3502   3.660   2.073   6.876 -0.1009 -0.8297 -2.4319
   11MOL   H283 3503   3.634   2.218   6.783  0.5571  1.2205  0.5433
   11MOL   H284 3504   3.398   2.174   6.753  0.2065  0.7925 -0.0155
   11MOL   H285 3505   3.407   2.162   6.512 -2.8503 -1.5798  0.4533
   11MOL   H286 3506   3.474   2.043   6.306  0.5162 -1.8825 -0.2451
   11MOL   H287 3507   3.613   1.828   6.319 -1.8273  0.3286 -0.7284
   11MOL   H288 3508   3.671   1.730   6.538 -1.7408 -0.8090  2.5413
   11MOL   H289 3509   3.606   1.867   6.744  0.0038  1.2255  0.4331
   11MOL   C290 3510   3.375   1.991   6.860 -1.0184  0.1789  0.0813
   11MOL   C291 3511   3.238   1.959   6.795  0.3625  0.0075 -1.0195
   11MOL   C292 3512   3.183   1.819   6.831  0.8537  0.6077  1.1236
   11MOL   C293 3513   3.124   1.787   6.955  0.3659 -0.4709  0.9518
   11MOL   C294 3514   3.079   1.658   6.977 -0.8463 -0.2578 -0.0153
   11MOL   C295 3515   3.100   1.562   6.875  0.3907 -0.6477  0.6532
   11MOL   C296 3516   3.156   1.592   6.749 -0.5915  0.5616 -0.3904
   11MOL   C297 3517   3.204   1.722   6.731  0.5481  0.4190 -0.2466
   11MOL   H298 3518   3.369   2.021   6.965  2.3001  0.9784  0.0740
   11MOL   H299 3519   3.432   1.900   6.877  0.0426  0.8841  0.3589
   11MOL   H300 3520   3.245   1.959   6.686 -1.9554 -1.6184 -1.2149
   11MOL   H301 3521   3.097   1.860   7.030 -1.3083 -1.3228  1.2086
   11MOL   H302 3522   3.026   1.643   7.069  1.3573 -0.8749  1.1945
   11MOL   H303 3523   3.083   1.457   6.893  2.1342 -1.0918 -0.1461
   11MOL   H304 3524   3.167   1.515   6.674 -0.6051  0.0719  0.1091
   11MOL   H305 3525   3.263   1.741   6.643  1.8440 -1.5568  0.1730
   11MOL   C306 3526   3.134   2.070   6.820 -0.1190 -0.3602 -0.5338
   11MOL   C307 3527   3.021   2.081   6.724 -0.5651 -0.1202  0.4960
   11MOL   C308 3528   3.068   2.134   6.587 -0.3661  0.1277  0.4938
   11MOL   C309 3529   3.124   2.264   6.572 -0.9952  0.3033 -0.0276
   11MOL   C310 3530   3.184   2.310   6.449  0.4053 -0.0132  0.8363
   11MOL   C311 3531   3.166   2.231   6.335  0.1378 -0.3168  0.0989
   11MOL   C312 3532   3.117   2.099   6.346  0.0278  0.2532 -0.6149
   11MOL   C313 3533   3.066   2.057   6.469 -1.1841 -0.5924 -0.2898
   11MOL   H314 3534   3.180   2.168   6.828 -0.4814 -0.2860  0.6671
   11MOL   H315 3535   3.100   2.054   6.922  2.8638  2.2017  0.9351
   11MOL   H316 3536   2.943   2.146   6.763 -0.5796 -0.9456  1.8590
   11MOL   H317 3537   3.122   2.329   6.658 -0.9523  1.1115 -0.6224
   11MOL   H318 3538   3.225   2.409   6.442 -0.3971  0.2583 -0.1420
   11MOL   H319 3539   3.193   2.270   6.238 -2.4063  0.8145 -0.1988
   11MOL   H320 3540   3.101   2.047   6.253 -1.2158 -0.2573 -0.1263
   11MOL   H321 3541   3.028   1.956   6.477 -2.1054 -0.1635  0.8062
   11MOL   H322 3542   2.971   1.984   6.718 -0.0224 -0.3836  0.2487
   12MOL     C1 3543   4.445   3.745   4.375  0.0943  0.4805  0.4807
   12MOL     C2 3544   4.506   3.654   4.481  1.0413  0.8248  0.0152
   12MOL     C3 3545   4.436   3.668   4.612  0.1609  0.4249 -0.0548
   12MOL     C4 3546   4.303   3.631   4.624 -0.0815 -0.2741 -0.5418
   12MOL     C5 3547   4.236   3.637   4.746 -0.4951  0.0391 -0.2983
   12MOL     C6 3548   4.310   3.673   4.862  0.4294 -0.2750  0.0491
   12MOL     C7 3549   4.442   3.722   4.850 -0.2478 -0.1078  0.1649
   12MOL     C8 3550   4.507   3.705   4.726  0.1053  0.2320 -0.1576
   12MOL     H9 3551   4.498   3.741   4.280 -1.6907 -0.0520 -0.5183
   12MOL    H10 3552   4.344   3.712   4.351 -0.0404  1.6325 -0.5887
   12MOL    H11 3553   4.608   3.693   4.490  0.7497  1.5192  0.2903
   12MOL    H12 3554   4.246   3.609   4.534 -1.6055 -0.5336  0.4641
   12MOL    H13 3555   4.133   3.610   4.765 -0.6792 -0.1087 -1.4747
   12MOL    H14 3556   4.264   3.678   4.960  1.3899 -2.6196  0.6444
   12MOL    H15 3557   4.496   3.747   4.940  0.6189 -2.2613  0.2955
   12MOL    H16 3558   4.609   3.735   4.710  0.1584  0.4012  0.4886
   12MOL    H17 3559   4.436   3.847   4.410 -1.0629 -0.0594  1.8138
   12MOL    C18 3560   4.509   3.503   4.435 -0.4179  0.5574 -0.3006
   12MOL    C19 3561   4.587   3.396   4.514 -0.3524 -0.1075  0.1094
   12MOL    C20 3562   4.541   3.249   4.480  0.0846 -0.4614  0.7365
   12MOL    C21 3563   4.558   3.192   4.352 -0.2057  0.6487 -0.2093
   12MOL    C22 3564   4.522   3.058   4.320  0.1639 -0.0816  0.1462
   12MOL    C23 3565   4.457   2.987   4.425  0.0459 -0.4188 -0.3510
   12MOL    C24 3566   4.452   3.033   4.557 -0.6885  0.2101  0.2495
   12MOL    C25 3567   4.503   3.162   4.584 -0.3746  0.1432 -1.1328
   12MOL    H26 3568   4.556   3.495   4.337  0.8545  2.1047  0.1534
   12MOL    H27 3569   4.405   3.473   4.424 -1.0964  2.7660 -0.1830
   12MOL    H28 3570   4.567   3.407   4.621 -0.4594  3.0905 -0.1993
   12MOL    H29 3571   4.608   3.249   4.276  2.3847  0.6619  1.4455
   12MOL    H30 3572   4.531   3.013   4.222  0.4155 -2.2797  1.1669
   12MOL    H31 3573   4.412   2.894   4.393 -3.1874  1.5451 -1.7828
   12MOL    H32 3574   4.404   2.964   4.625 -0.6384 -1.5593 -1.4755
   12MOL    H33 3575   4.495   3.207   4.682 -0.6201 -2.5176  0.1311
   12MOL    C34 3576   4.734   3.423   4.477 -0.2386 -0.0287 -0.3026
   12MOL    C35 3577   4.845   3.387   4.580 -0.5854 -0.1001  0.0844
   12MOL    C36 3578   4.813   3.458   4.713  0.2354  0.0933  0.5106
   12MOL    C37 3579   4.728   3.401   4.810 -0.4742 -0.6608  0.3030
   12MOL    C38 3580   4.715   3.464   4.936  0.2575  0.4308  0.0600
   12MOL    C39 3581   4.780   3.586   4.963 -0.2200 -0.3544 -0.3064
   12MOL    C40 3582   4.851   3.655   4.867  0.2329  0.7844 -0.7375
   12MOL    C41 3583   4.872   3.589   4.744  0.2994  0.7671  0.0782
   12MOL    H42 3584   4.743   3.530   4.461  0.9392  0.3455  2.6388
   12MOL    H43 3585   4.752   3.373   4.381  0.0810  0.1297 -0.3263
   12MOL    H44 3586   4.937   3.430   4.541 -0.4596 -0.6178 -0.1981
   12MOL    H45 3587   4.673   3.308   4.801 -0.1795 -0.6785 -1.3515
   12MOL    H46 3588   4.650   3.416   5.008  1.0967 -1.7143 -0.5612
   12MOL    H47 3589   4.774   3.627   5.063 -3.4727  0.5208 -0.8022
   12MOL    H48 3590   4.915   3.740   4.884  1.9420 -0.7834  0.8844
   12MOL    H49 3591   4.930   3.635   4.665 -0.2786 -1.1329 -1.5017
   12MOL    C50 3592   4.870   3.236   4.605  0.7539 -0.1335  0.0650
   12MOL    C51 3593   4.925   3.153   4.491  0.5504  0.2087 -0.0538
   12MOL    C52 3594   5.048   3.223   4.427 -0.5238 -0.9214 -0.2827
   12MOL    C53 3595   5.153   3.265   4.515 -0.2316 -0.3532 -0.2563
   12MOL    C54 3596   5.262   3.344   4.460  0.0756  0.1181  0.5904
   12MOL    C55 3597   5.257   3.387   4.330  0.0260  0.3419  0.3974
   12MOL    C56 3598   5.154   3.345   4.241 -0.3501  0.7488 -0.5783
   12MOL    C57 3599   5.042   3.267   4.289 -0.5102 -0.6991 -0.2410
   12MOL    H58 3600   4.779   3.189   4.641 -0.7722  0.7144 -2.5033
   12MOL    H59 3601   4.939   3.223   4.688 -1.5925  1.7043  2.3752
   12MOL    H60 3602   4.845   3.155   4.416 -2.4812 -1.5759  2.9838
   12MOL    H61 3603   5.156   3.227   4.617  0.6522 -0.5747 -0.3601
   12MOL    H62 3604   5.335   3.386   4.528  0.1574  1.0674 -0.0782
   12MOL    H63 3605   5.340   3.452   4.304  0.1547  0.1119  0.2319
   12MOL    H64 3606   5.148   3.382   4.140  1.5374 -2.2136 -1.8428
   12MOL    H65 3607   4.954   3.237   4.233 -1.1380 -1.7193  1.2531
   12MOL    C66 3608   4.950   3.003   4.528  0.3036 -0.5832  0.0650
   12MOL    C67 3609   4.854   2.898   4.485 -0.2061  0.2346 -1.2945
   12MOL    C68 3610   4.851   2.891   4.331  0.9430 -0.0972  0.3000
   12MOL    C69 3611   4.958   2.935   4.250 -0.2796  0.2140 -0.3746
   12MOL    C70 3612   4.961   2.910   4.117 -0.1602 -0.2244 -0.1942
   12MOL    C71 3613   4.859   2.836   4.053 -0.3808  0.0720  0.2026
   12MOL    C72 3614   4.752   2.784   4.133 -0.0247 -0.0400  0.7938
   12MOL    C73 3615   4.748   2.817   4.271  0.2055  0.3892  0.3166
   12MOL    H74 3616   4.963   2.999   4.636  0.0076 -0.3829  0.1086
   12MOL    H75 3617   5.054   2.983   4.500  0.3591  0.3867 -0.4609
   12MOL    H76 3618   4.754   2.933   4.512 -0.8533 -2.1031 -0.5133
   12MOL    H77 3619   5.049   2.983   4.285 -0.6880 -0.6582  1.9664
   12MOL    H78 3620   5.046   2.951   4.065 -0.7513  0.8262 -0.3515
   12MOL    H79 3621   4.863   2.829   3.945  0.2322 -2.5768  0.3678
   12MOL    H80 3622   4.663   2.735   4.094 -0.5725  0.9831  0.7336
   12MOL    H81 3623   4.664   2.787   4.331 -1.2511 -0.8369 -2.2512
   12MOL    C82 3624   4.877   2.762   4.556 -0.9567  0.1559 -0.3689
   12MOL    C83 3625   4.995   2.677   4.501  0.1223  0.4004 -0.5135
   12MOL    C84 3626   5.132   2.728   4.534  0.2574 -0.9157 -0.5599
   12MOL    C85 3627   5.177   2.732   4.668  0.4867  1.5790  0.2760
   12MOL    C86 3628   5.305   2.783   4.701 -0.1167  0.0666 -0.4304
   12MOL    C87 3629   5.388   2.832   4.604 -0.1272  0.3045  0.0342
   12MOL    C88 3630   5.349   2.829   4.467  0.3471 -0.9332 -0.3845
   12MOL    C89 3631   5.216   2.779   4.436 -0.4208  0.5651 -0.2794
   12MOL    H90 3632   4.788   2.704   4.532  0.1934 -2.4769  1.4788
   12MOL    H91 3633   4.890   2.760   4.664  1.5216 -1.4737 -0.6542
   12MOL    H92 3634   4.994   2.675   4.392  0.1867 -0.9726 -0.5051
   12MOL    H93 3635   5.108   2.696   4.743 -0.3702  2.0012 -0.2974
   12MOL    H94 3636   5.346   2.793   4.801  1.5137  0.1797 -1.0885
   12MOL    H95 3637   5.482   2.877   4.632 -0.9996  0.9168  2.0788
   12MOL    H96 3638   5.405   2.858   4.379 -0.4093  1.6901 -0.0304
   12MOL    H97 3639   5.188   2.769   4.332 -0.4781 -0.7738 -0.1461
   12MOL    C98 3640   4.976   2.529   4.545 -1.1728  0.3766 -0.0064
   12MOL    C99 3641   5.047   2.408   4.472  0.4666  0.1208  0.2168
   12MOL   C100 3642   5.024   2.269   4.540 -0.8805 -0.2945  0.1915
   12MOL   C101 3643   4.899   2.243   4.599  0.2290  0.7713  0.1833
   12MOL   C102 3644   4.873   2.112   4.661 -0.1153  0.0298  0.9050
   12MOL   C103 3645   4.969   2.009   4.647  0.5331 -0.5085  0.2191
   12MOL   C104 3646   5.088   2.039   4.576 -0.1557 -0.2518 -0.1569
   12MOL   C105 3647   5.114   2.168   4.524 -0.9177  0.2420 -0.4462
   12MOL   H106 3648   4.870   2.503   4.544 -0.7066 -1.6404  0.5651
   12MOL   H107 3649   5.003   2.527   4.651  0.2965 -0.1413 -0.3864
   12MOL   H108 3650   5.154   2.430   4.478  0.4084  0.8657 -1.2875
   12MOL   H109 3651   4.819   2.314   4.605  0.6573  1.5403 -2.5628
   12MOL   H110 3652   4.777   2.104   4.709 -0.0672  2.4306  1.5009
   12MOL   H111 3653   4.952   1.905   4.670  0.4071 -0.3878  0.6711
   12MOL   H112 3654   5.164   1.965   4.558  1.7582  1.5616  0.2610
   12MOL   H113 3655   5.204   2.181   4.466 -0.1823  1.3916  0.9175
   12MOL   C114 3656   4.999   2.403   4.324  0.5749  0.5223  0.5698
   12MOL   C115 3657   5.099   2.463   4.220  0.1541  0.2524  0.7339
   12MOL   C116 3658   5.240   2.417   4.238  0.5777 -0.2978  0.5331
   12MOL   C117 3659   5.351   2.504   4.245  0.4533 -0.2112  0.2700
   12MOL   C118 3660   5.482   2.452   4.250  0.0519 -0.5660 -0.2933
   12MOL   C119 3661   5.506   2.316   4.252 -0.1285  0.0615 -0.8266
   12MOL   C120 3662   5.393   2.232   4.239 -0.7362 -0.4381 -0.2323
   12MOL   C121 3663   5.263   2.276   4.227 -0.6649  0.2381 -0.6135
   12MOL   H122 3664   4.897   2.437   4.306  0.7395  0.8897  0.3187
   12MOL   H123 3665   5.000   2.298   4.295 -0.4905  0.4626  0.7202
   12MOL   H124 3666   5.107   2.569   4.241 -1.3829  0.3909  0.7320
   12MOL   H125 3667   5.335   2.611   4.250  1.1088 -0.1408  0.8196
   12MOL   H126 3668   5.569   2.512   4.268 -1.6130  1.8657 -0.1479
   12MOL   H127 3669   5.604   2.271   4.261 -0.4529 -0.7466 -1.2197
   12MOL   H128 3670   5.405   2.125   4.237 -0.5280 -0.4468  1.3439
   12MOL   H129 3671   5.184   2.207   4.204 -0.4607  0.2784 -1.4400
   12MOL   C130 3672   5.050   2.454   4.074 -0.1098  0.2078 -0.2934
   12MOL   C131 3673   5.143   2.505   3.960  0.6831  0.2707 -0.5228
   12MOL   C132 3674   5.090   2.457   3.825 -0.0168  0.2228  0.1647
   12MOL   C133 3675   4.966   2.502   3.768  0.2899 -0.1162  0.1650
   12MOL   C134 3676   4.909   2.441   3.656  0.6345  0.5277 -0.1379
   12MOL   C135 3677   4.986   2.349   3.578 -0.0512  0.3552  0.1800
   12MOL   C136 3678   5.113   2.312   3.628 -0.9212  0.3637  0.0703
   12MOL   C137 3679   5.160   2.362   3.749  0.1374  0.4697 -0.9849
   12MOL   H138 3680   4.950   2.498   4.075 -0.6636 -0.6264 -4.9283
   12MOL   H139 3681   5.028   2.351   4.045 -0.5365  0.6465 -1.5711
   12MOL   H140 3682   5.236   2.451   3.983  1.5276  1.5883 -0.7792
   12MOL   H141 3683   4.908   2.575   3.824  1.0402  0.8937 -0.3517
   12MOL   H142 3684   4.803   2.453   3.638  0.1189 -2.2735  0.7125
   12MOL   H143 3685   4.946   2.309   3.486 -0.1321  0.8493 -0.0031
   12MOL   H144 3686   5.160   2.228   3.580  1.2004  1.5446  0.0347
   12MOL   H145 3687   5.251   2.321   3.793 -1.0292  0.1202  1.1987
   12MOL   C146 3688   5.179   2.654   3.977 -0.5460  0.0231 -0.3990
   12MOL   C147 3689   5.285   2.726   3.888 -0.4542  0.8138  0.2332
   12MOL   C148 3690   5.262   2.876   3.903  0.5970  0.0458  0.8124
   12MOL   C149 3691   5.324   2.957   4.002 -0.0832 -0.1475 -0.0207
   12MOL   C150 3692   5.294   3.094   4.005  0.2250  0.3542  0.5366
   12MOL   C151 3693   5.203   3.155   3.913  0.4472  0.1043 -0.2737
   12MOL   C152 3694   5.131   3.071   3.820 -0.2835  0.1086 -0.0873
   12MOL   C153 3695   5.163   2.932   3.816 -0.4620 -0.2701  0.2641
   12MOL   H154 3696   5.190   2.687   4.080  0.1267 -0.2665 -0.3785
   12MOL   H155 3697   5.084   2.703   3.954  0.5155  2.3498  0.0932
   12MOL   H156 3698   5.259   2.704   3.785 -3.5680  2.9013  0.5016
   12MOL   H157 3699   5.400   2.916   4.066  0.2360 -2.9267 -2.0575
   12MOL   H158 3700   5.338   3.164   4.074 -0.3237 -1.6815  3.0306
   12MOL   H159 3701   5.178   3.258   3.931 -0.9089 -0.6055  2.1057
   12MOL   H160 3702   5.058   3.119   3.757 -0.0556  0.3701 -0.1505
   12MOL   H161 3703   5.129   2.867   3.737  3.2475  0.1738 -1.8315
   12MOL   C162 3704   5.435   2.690   3.917 -0.1229 -0.3976 -0.0321
   12MOL   C163 3705   5.539   2.762   3.832 -0.6563 -0.5188  0.4494
   12MOL   C164 3706   5.680   2.724   3.874 -0.9977 -0.2896 -0.1939
   12MOL   C165 3707   5.778   2.824   3.880 -0.1865 -0.2943  0.0932
   12MOL   C166 3708   5.911   2.790   3.920 -0.8621  0.2608  0.2682
   12MOL   C167 3709   5.948   2.657   3.942  0.0831  0.0969 -0.0787
   12MOL   C168 3710   5.850   2.559   3.927  0.3406  0.1775 -0.9314
   12MOL   C169 3711   5.716   2.589   3.890 -0.3187  0.0205 -0.3705
   12MOL   H170 3712   5.435   2.582   3.904  1.1699 -0.6946  2.1159
   12MOL   H171 3713   5.453   2.704   4.024 -0.3989  4.3561 -0.4881
   12MOL   H172 3714   5.530   2.869   3.849  1.1159  0.1226 -2.2827
   12MOL   H173 3715   5.756   2.929   3.867 -2.8247 -0.8941 -0.6371
   12MOL   H174 3716   5.991   2.863   3.923  0.1518 -0.7221 -2.0232
   12MOL   H175 3717   6.049   2.630   3.967 -0.0696  1.8469  2.5601
   12MOL   H176 3718   5.869   2.454   3.943  0.4498  0.2431 -0.6299
   12MOL   H177 3719   5.652   2.502   3.882  2.6023 -2.1131 -1.2457
   12MOL   C178 3720   5.511   2.730   3.682  0.4612 -0.0416  0.3459
   12MOL   C179 3721   5.471   2.849   3.598  0.4964  0.2867  0.2087
   12MOL   C180 3722   5.560   2.973   3.600 -0.4233 -0.0352 -0.3791
   12MOL   C181 3723   5.701   2.956   3.581  0.1979 -0.2314 -0.1241
   12MOL   C182 3724   5.785   3.064   3.598  0.6347 -0.6154  0.1745
   12MOL   C183 3725   5.726   3.191   3.635  0.4354  0.1279 -0.2156
   12MOL   C184 3726   5.587   3.214   3.644 -0.1051  0.1478  0.9183
   12MOL   C185 3727   5.506   3.098   3.633  0.3054 -0.7720  0.4492
   12MOL   H186 3728   5.435   2.652   3.669 -0.2235  0.8035 -0.7992
   12MOL   H187 3729   5.602   2.680   3.648 -0.0884 -0.8122 -0.0126
   12MOL   H188 3730   5.376   2.893   3.628  1.2457  2.5559 -0.6553
   12MOL   H189 3731   5.740   2.859   3.556 -0.5212 -0.4865 -0.2747
   12MOL   H190 3732   5.890   3.052   3.574  0.4376 -2.5041  0.1508
   12MOL   H191 3733   5.790   3.278   3.638 -1.1446  1.2402  2.6879
   12MOL   H192 3734   5.559   3.315   3.671 -1.0032 -0.0982  0.8912
   12MOL   H193 3735   5.399   3.105   3.647  0.4715  1.9565  0.7304
   12MOL   C194 3736   5.453   2.812   3.450 -0.8169  0.1633  0.4542
   12MOL   C195 3737   5.333   2.726   3.419  1.0008 -0.4488  0.0015
   12MOL   C196 3738   5.198   2.785   3.458  0.6504 -0.0851  0.0548
   12MOL   C197 3739   5.098   2.703   3.507  0.5388 -0.2442  0.1480
   12MOL   C198 3740   4.974   2.755   3.544 -0.7318  1.2239 -0.8524
   12MOL   C199 3741   4.944   2.891   3.528 -0.1981  0.5434  0.4156
   12MOL   C200 3742   5.045   2.974   3.476 -0.5968  0.5088  0.0321
   12MOL   C201 3743   5.171   2.922   3.441 -0.1330 -0.6501 -0.2631
   12MOL   H202 3744   5.545   2.775   3.403 -0.1187 -0.5750  2.3394
   12MOL   H203 3745   5.436   2.904   3.394 -0.4340 -0.4618 -0.7038
   12MOL   H204 3746   5.340   2.638   3.483  0.5707  0.2140  0.9878
   12MOL   H205 3747   5.123   2.599   3.522 -1.0781 -0.4451  1.6608
   12MOL   H206 3748   4.891   2.690   3.567  0.3056  0.0302 -0.4359
   12MOL   H207 3749   4.850   2.934   3.557  0.4642  2.3668 -0.0987
   12MOL   H208 3750   5.042   3.081   3.462  0.3115  0.9177  2.7498
   12MOL   H209 3751   5.244   2.992   3.406 -0.5004 -0.0023  0.2581
   12MOL   C210 3752   5.334   2.684   3.264  0.0335 -0.0120  0.0119
   12MOL   C211 3753   5.463   2.595   3.221  0.0818  0.3924  0.3037
   12MOL   C212 3754   5.513   2.505   3.336 -0.5592 -0.2623 -0.0512
   12MOL   C213 3755   5.630   2.530   3.403 -0.2901  0.2518  0.6413
   12MOL   C214 3756   5.679   2.444   3.504  0.1900  0.0777  0.3361
   12MOL   C215 3757   5.601   2.334   3.550 -0.3198 -0.2309  0.7029
   12MOL   C216 3758   5.474   2.313   3.485 -0.1327  0.2354  0.2523
   12MOL   C217 3759   5.433   2.394   3.379  0.2144  0.0140 -0.3912
   12MOL   H218 3760   5.323   2.771   3.200 -0.4880  1.2293  1.7463
   12MOL   H219 3761   5.249   2.619   3.245  0.4238 -0.2259 -1.0109
   12MOL   H220 3762   5.540   2.669   3.199  1.1149 -0.9207 -0.5845
   12MOL   H221 3763   5.690   2.612   3.365  0.2483 -1.2171 -1.8029
   12MOL   H222 3764   5.777   2.462   3.547 -0.0731  2.8864 -0.1873
   12MOL   H223 3765   5.645   2.277   3.630 -0.5927 -1.9514 -0.3380
   12MOL   H224 3766   5.408   2.235   3.521 -0.6194  0.8880  0.7852
   12MOL   H225 3767   5.339   2.373   3.330  0.2124  1.6691 -1.1141
   12MOL   C226 3768   5.448   2.513   3.091 -0.1538 -0.6090  0.2206
   12MOL   C227 3769   5.487   2.603   2.969 -0.3059  0.2798  0.9860
   12MOL   C228 3770   5.641   2.617   2.959 -0.4849 -0.4431  0.2742
   12MOL   C229 3771   5.728   2.512   2.927 -0.0093  0.3073 -0.0303
   12MOL   C230 3772   5.867   2.531   2.938  0.0669  0.1919 -0.1239
   12MOL   C231 3773   5.919   2.655   2.967  0.5794 -0.4314 -0.6034
   12MOL   C232 3774   5.834   2.764   2.993 -0.0094 -0.2857 -0.0198
   12MOL   C233 3775   5.691   2.747   2.985  0.0474 -0.1219  0.0866
   12MOL   H234 3776   5.342   2.487   3.094 -0.3788  0.5185  2.6790
   12MOL   H235 3777   5.515   2.426   3.088 -1.8037 -1.9591  1.3392
   12MOL   H236 3778   5.433   2.696   2.985 -0.6179  0.4195 -0.7771
   12MOL   H237 3779   5.693   2.415   2.896  0.5118  0.1457 -0.1217
   12MOL   H238 3780   5.929   2.448   2.906 -0.2755 -0.0300 -0.2098
   12MOL   H239 3781   6.025   2.670   2.954  0.1210 -0.5254 -5.5512
   12MOL   H240 3782   5.868   2.866   3.005 -1.8532  0.4734 -1.0124
   12MOL   H241 3783   5.632   2.834   3.012 -0.8889 -0.8719  0.4554
   12MOL   C242 3784   5.420   2.540   2.839  0.0209 -0.2182 -0.3300
   12MOL   C243 3785   5.259   2.530   2.843 -0.3932 -0.0673  0.3452
   12MOL   C244 3786   5.197   2.671   2.848  0.1100 -0.2401  0.0052
   12MOL   C245 3787   5.231   2.767   2.747  0.1476 -0.0594 -0.1620
   12MOL   C246 3788   5.173   2.900   2.753  0.8298 -0.2031  0.2060
   12MOL   C247 3789   5.079   2.931   2.855 -0.6401  0.3300  0.2594
   12MOL   C248 3790   5.053   2.829   2.953  0.0247  0.2166  1.1910
   12MOL   C249 3791   5.105   2.702   2.948  0.0558  0.0920 -0.0616
   12MOL   H250 3792   5.456   2.437   2.829 -0.6789 -0.2509 -2.6383
   12MOL   H251 3793   5.452   2.612   2.763 -1.5784  2.0322  1.0630
   12MOL   H252 3794   5.219   2.472   2.926 -0.4410 -0.9516 -0.2810
   12MOL   H253 3795   5.300   2.748   2.666  0.0666  0.8200 -0.4446
   12MOL   H254 3796   5.201   2.980   2.687  0.8097  1.2168  1.9040
   12MOL   H255 3797   5.051   3.035   2.865 -2.2698  0.0294 -0.8499
   12MOL   H256 3798   4.984   2.865   3.028 -0.6874  4.9757 -1.5432
   12MOL   H257 3799   5.079   2.626   3.020 -3.4459  1.3310  0.0831
   12MOL   C258 3800   5.198   2.449   2.725  0.5690 -0.2307  0.3560
   12MOL   C259 3801   5.224   2.298   2.730 -0.1371 -0.9589 -0.8564
   12MOL   C260 3802   5.218   2.238   2.867  0.5688 -0.5411  1.0422
   12MOL   C261 3803   5.335   2.185   2.920  0.0561 -0.2934 -0.3603
   12MOL   C262 3804   5.331   2.138   3.050  0.2871 -0.2385  0.2894
   12MOL   C263 3805   5.205   2.135   3.117 -0.7591 -0.3710 -0.4607
   12MOL   C264 3806   5.089   2.189   3.057 -0.1655  0.3733  0.1018
   12MOL   C265 3807   5.093   2.239   2.929  0.5584 -0.1461  0.5454
   12MOL   H266 3808   5.235   2.487   2.630 -0.0589 -1.2726 -0.3192
   12MOL   H267 3809   5.092   2.474   2.713  0.7909  0.5016 -0.1343
   12MOL   H268 3810   5.326   2.289   2.693  0.5081  3.1310 -0.3288
   12MOL   H269 3811   5.429   2.191   2.867  0.6762 -0.5068  0.6994
   12MOL   H270 3812   5.423   2.108   3.099  0.9321  1.2361 -0.0167
   12MOL   H271 3813   5.201   2.088   3.214 -0.4392  0.9995  0.2182
   12MOL   H272 3814   4.997   2.181   3.114 -0.0873 -1.2475  0.0224
   12MOL   H273 3815   5.007   2.283   2.882  1.2905  1.0119  0.2675
   12MOL   C274 3816   5.142   2.223   2.618  0.5199 -0.0587  0.9514
   12MOL   C275 3817   5.171   2.073   2.606 -0.2315 -0.0923  0.0082
   12MOL   C276 3818   5.081   2.006   2.496 -0.6419  0.5331 -0.4403
   12MOL   C277 3819   5.064   2.056   2.364 -0.8292 -0.7223  0.9479
   12MOL   C278 3820   4.979   2.003   2.273 -0.5827  0.5801 -0.1071
   12MOL   C279 3821   4.910   1.884   2.302  0.3259  0.0682 -0.7813
   12MOL   C280 3822   4.923   1.825   2.434 -0.0433  0.1694 -0.0018
   12MOL   C281 3823   5.008   1.887   2.528  0.4167 -0.6796  0.4389
   12MOL   H282 3824   5.157   2.266   2.519  0.6400 -0.8467  0.6225
   12MOL   H283 3825   5.038   2.231   2.648  0.4840 -0.8080  1.0542
   12MOL   H284 3826   5.130   2.017   2.690 -1.1110 -2.4153 -1.9084
   12MOL   H285 3827   5.107   2.151   2.336 -3.1301 -0.5022 -2.1085
   12MOL   H286 3828   4.954   2.056   2.182  0.8435  1.3090 -0.0822
   12MOL   H287 3829   4.840   1.840   2.233  0.1485 -3.0187  1.2722
   12MOL   H288 3830   4.857   1.744   2.458 -1.0940  1.5899  2.0508
   12MOL   H289 3831   5.013   1.849   2.629  0.8061  0.2801  0.7811
   12MOL   C290 3832   5.325   2.036   2.590  0.1050  0.1173 -0.3280
   12MOL   C291 3833   5.361   1.888   2.587  0.1135 -0.2634 -0.5057
   12MOL   C292 3834   5.473   1.848   2.493 -0.6642  0.2756 -0.0061
   12MOL   C293 3835   5.443   1.779   2.374  0.3268  0.2478 -0.0755
   12MOL   C294 3836   5.539   1.764   2.277 -0.4307  0.3800  0.1654
   12MOL   C295 3837   5.669   1.809   2.296  1.1137 -0.6948 -0.2249
   12MOL   C296 3838   5.702   1.863   2.418 -0.0610 -0.4515 -0.1941
   12MOL   C297 3839   5.609   1.877   2.520 -0.6477  0.0745 -0.2296
   12MOL   H298 3840   5.377   2.089   2.669 -1.5929 -0.8219  1.4548
   12MOL   H299 3841   5.342   2.078   2.491  2.7254 -0.5637 -0.2023
   12MOL   H300 3842   5.277   1.836   2.542  2.3132 -4.3760 -0.1149
   12MOL   H301 3843   5.343   1.749   2.348  0.9032 -1.7189 -0.1307
   12MOL   H302 3844   5.522   1.718   2.181  0.5664 -2.4942  1.3413
   12MOL   H303 3845   5.741   1.817   2.216 -0.4371  0.2719 -1.5658
   12MOL   H304 3846   5.806   1.891   2.426  0.6185 -2.1544 -2.5737
   12MOL   H305 3847   5.642   1.923   2.612 -0.3611  1.7453 -1.1357
   12MOL   C306 3848   5.376   1.823   2.730  0.0487 -1.1578 -0.9618
   12MOL   C307 3849   5.444   1.688   2.736  0.5380 -0.0205 -0.1220
   12MOL   C308 3850   5.451   1.629   2.877 -0.7861 -0.1821 -0.2903
   12MOL   C309 3851   5.561   1.668   2.956 -0.2866  0.3256  0.6115
   12MOL   C310 3852   5.570   1.623   3.089  0.5293  1.0065  0.2751
   12MOL   C311 3853   5.463   1.542   3.140 -0.6787 -0.2473 -0.3991
   12MOL   C312 3854   5.351   1.501   3.065 -0.4545  0.5526 -0.0403
   12MOL   C313 3855   5.351   1.546   2.933  1.1836 -0.6193 -0.5469
   12MOL   H314 3856   5.276   1.812   2.771  0.0824  2.6782  0.3467
   12MOL   H315 3857   5.429   1.890   2.798 -0.8044  0.9645 -2.3213
   12MOL   H316 3858   5.542   1.697   2.690 -0.1366  3.1802 -1.0386
   12MOL   H317 3859   5.631   1.739   2.916  1.6381 -1.7349  0.2179
   12MOL   H318 3860   5.654   1.658   3.147  0.1231  0.4847  1.1774
   12MOL   H319 3861   5.467   1.507   3.242  1.8081  1.2751  0.0663
   12MOL   H320 3862   5.273   1.443   3.112  1.7017  0.2995  3.4360
   12MOL   H321 3863   5.256   1.532   2.884  1.2988  0.4277 -1.0915
   12MOL   H322 3864   5.381   1.620   2.678 -0.9503  1.3147 -0.0976
   13MOL     C1 3865   2.285   6.970   2.693 -0.2026 -0.2239 -0.2373
   13MOL     C2 3866   2.182   6.986   2.585 -0.2783 -0.3145 -0.2013
   13MOL     C3 3867   2.238   6.934   2.454 -0.5051 -0.1468  0.7916
   13MOL     C4 3868   2.249   6.796   2.431 -0.0343 -0.4513 -0.7610
   13MOL     C5 3869   2.300   6.746   2.305  0.5440 -0.3998 -0.3218
   13MOL     C6 3870   2.323   6.837   2.200 -0.2343  0.2138 -0.1015
   13MOL     C7 3871   2.316   6.975   2.219  0.1377  0.2452 -0.1823
   13MOL     C8 3872   2.275   7.021   2.347 -0.3690 -0.0082  0.1810
   13MOL     H9 3873   2.378   7.015   2.657 -1.8212  1.8328 -1.9583
   13MOL    H10 3874   2.257   7.009   2.791  0.2294 -1.6391  0.4673
   13MOL    H11 3875   2.169   7.094   2.586  1.4764 -0.1022  0.7831
   13MOL    H12 3876   2.221   6.718   2.500  0.0038  0.1086 -0.1122
   13MOL    H13 3877   2.305   6.638   2.293  1.3134 -0.4479  0.3996
   13MOL    H14 3878   2.340   6.808   2.097  0.6566  2.3270 -0.5787
   13MOL    H15 3879   2.347   7.050   2.147  0.0471 -0.9302 -1.4560
   13MOL    H16 3880   2.275   7.129   2.359  1.7991  0.0494 -0.1843
   13MOL    H17 3881   2.323   6.868   2.696 -1.3408 -0.6676 -0.7810
   13MOL    C18 3882   2.045   6.924   2.621 -0.3882 -0.4011 -0.1034
   13MOL    C19 3883   1.940   6.915   2.504  0.0704 -0.5833 -0.4002
   13MOL    C20 3884   1.804   6.850   2.548 -0.7317  0.0578  0.0460
   13MOL    C21 3885   1.725   6.913   2.650 -0.3318  0.0772  0.0346
   13MOL    C22 3886   1.595   6.863   2.673  0.0212  0.0889  0.1113
   13MOL    C23 3887   1.552   6.744   2.609  0.0833  0.1021 -0.5395
   13MOL    C24 3888   1.643   6.673   2.526  0.2359  0.3967 -0.6502
   13MOL    C25 3889   1.768   6.726   2.501  0.5142  0.0324  0.4214
   13MOL    H26 3890   2.000   6.963   2.712 -0.2529  1.8034 -0.9409
   13MOL    H27 3891   2.069   6.820   2.642 -0.1707 -0.1994  0.6807
   13MOL    H28 3892   1.982   6.848   2.428  2.9340 -0.5404  1.0823
   13MOL    H29 3893   1.772   6.991   2.708 -0.7735  0.2978  0.0933
   13MOL    H30 3894   1.523   6.900   2.746  2.3416  0.5132  2.2780
   13MOL    H31 3895   1.452   6.712   2.631  0.8348 -1.7565  0.2716
   13MOL    H32 3896   1.616   6.581   2.477  0.4104  0.5521 -1.0380
   13MOL    H33 3897   1.821   6.676   2.422  1.3318  0.7683  0.5030
   13MOL    C34 3898   1.903   7.044   2.432  0.5113 -1.0095  0.5491
   13MOL    C35 3899   1.840   6.996   2.295  0.4188 -0.0705  0.2341
   13MOL    C36 3900   1.719   7.085   2.261 -0.2486 -0.0352  0.6283
   13MOL    C37 3901   1.590   7.048   2.316 -0.2381  0.1852  0.2342
   13MOL    C38 3902   1.474   7.130   2.295 -0.6944 -0.0253  0.2067
   13MOL    C39 3903   1.480   7.238   2.206 -0.1144 -0.0393 -0.3745
   13MOL    C40 3904   1.604   7.268   2.148 -0.9528  0.3609  0.2159
   13MOL    C41 3905   1.721   7.196   2.179 -0.0878 -0.0492  0.1737
   13MOL    H42 3906   1.993   7.105   2.423 -0.0374 -0.5020 -2.0066
   13MOL    H43 3907   1.831   7.105   2.485  3.0850  2.2945  0.4254
   13MOL    H44 3908   1.800   6.895   2.302  1.8522 -0.5464  1.9352
   13MOL    H45 3909   1.579   6.965   2.385 -3.0704 -0.6816 -1.1945
   13MOL    H46 3910   1.387   7.118   2.357 -0.1846 -0.2035  0.8974
   13MOL    H47 3911   1.396   7.304   2.193 -0.1155  0.4401  1.8306
   13MOL    H48 3912   1.607   7.355   2.083 -0.5124  1.0276  1.1219
   13MOL    H49 3913   1.809   7.214   2.118 -0.3893 -1.2381 -0.6415
   13MOL    C50 3914   1.950   6.994   2.182  0.0774  0.2258 -0.5021
   13MOL    C51 3915   1.942   6.898   2.056 -0.0747  0.0992  0.4547
   13MOL    C52 3916   1.890   6.761   2.099  0.5083 -0.6569 -0.3535
   13MOL    C53 3917   1.976   6.664   2.158 -0.7541  0.8337  0.1998
   13MOL    C54 3918   1.929   6.537   2.176 -0.1193  0.8610 -0.2271
   13MOL    C55 3919   1.789   6.510   2.172  0.0015 -0.7876  0.5375
   13MOL    C56 3920   1.700   6.612   2.128 -0.2005  0.0875 -0.4856
   13MOL    C57 3921   1.752   6.734   2.093  0.2874  0.2508  0.1483
   13MOL    H58 3922   2.039   6.962   2.236  0.6302  1.3117 -0.7510
   13MOL    H59 3923   1.975   7.096   2.153  0.7784  0.0681 -0.4815
   13MOL    H60 3924   2.044   6.870   2.030 -0.5164 -1.3361  0.2548
   13MOL    H61 3925   2.083   6.681   2.158 -0.3050 -1.8093  1.0374
   13MOL    H62 3926   1.994   6.455   2.201 -0.1534  0.3353 -1.7921
   13MOL    H63 3927   1.751   6.410   2.186  0.7823 -1.4264 -1.6481
   13MOL    H64 3928   1.597   6.583   2.108 -0.2811  1.6943 -2.6287
   13MOL    H65 3929   1.693   6.811   2.046 -0.8840  0.3694  1.7614
   13MOL    C66 3930   1.873   6.959   1.926 -0.2382  0.3035  0.1330
   13MOL    C67 3931   1.972   7.044   1.843 -0.1850  0.3168 -0.0865
   13MOL    C68 3932   2.104   6.978   1.806  0.1182  0.6632  0.4461
   13MOL    C69 3933   2.107   6.859   1.734 -0.1834 -0.2555  0.4016
   13MOL    C70 3934   2.235   6.799   1.708  0.1964  0.0874  0.0027
   13MOL    C71 3935   2.354   6.856   1.746  0.6015 -0.2926 -0.7276
   13MOL    C72 3936   2.349   6.977   1.812  0.3712 -1.1018 -0.4329
   13MOL    C73 3937   2.222   7.042   1.846  0.2493  0.6682  0.1303
   13MOL    H74 3938   1.787   7.018   1.957  1.5715  2.2598  1.5231
   13MOL    H75 3939   1.832   6.878   1.865 -1.5915  1.1011 -0.0484
   13MOL    H76 3940   1.995   7.129   1.906  1.4456 -0.9849  1.1318
   13MOL    H77 3941   2.018   6.808   1.701 -0.6003  0.4404  0.4192
   13MOL    H78 3942   2.236   6.706   1.652 -2.3849  0.2891 -0.4774
   13MOL    H79 3943   2.442   6.801   1.717  0.3424 -1.0373 -0.1520
   13MOL    H80 3944   2.447   7.018   1.834 -0.0041 -1.3438  1.8385
   13MOL    H81 3945   2.235   7.141   1.889  0.7047  1.2304 -1.2609
   13MOL    C82 3946   1.908   7.096   1.714 -0.0172 -0.3564  0.2901
   13MOL    C83 3947   1.784   7.190   1.717  0.2769 -0.1043  0.5814
   13MOL    C84 3948   1.824   7.337   1.736  0.7967 -0.0766 -0.2891
   13MOL    C85 3949   1.874   7.406   1.630 -0.1945  0.2238 -0.7060
   13MOL    C86 3950   1.902   7.543   1.648  0.1107 -0.4893  0.2057
   13MOL    C87 3951   1.892   7.604   1.771 -0.8493 -0.0865  0.4771
   13MOL    C88 3952   1.835   7.535   1.879  0.0730  0.2359 -0.2058
   13MOL    C89 3953   1.802   7.399   1.861  0.0950  0.0172 -0.2283
   13MOL    H90 3954   1.868   7.004   1.671  0.6305  0.1878 -1.5007
   13MOL    H91 3955   1.988   7.127   1.647 -1.5516 -0.7316 -1.7571
   13MOL    H92 3956   1.724   7.169   1.806  1.4528  1.7605  1.8562
   13MOL    H93 3957   1.889   7.368   1.530 -0.4703 -1.3101 -0.1749
   13MOL    H94 3958   1.927   7.600   1.560  1.2263  1.5533  1.7924
   13MOL    H95 3959   1.919   7.709   1.780 -0.7018 -0.0836 -0.0066
   13MOL    H96 3960   1.810   7.590   1.968  0.9552 -0.4354  0.4715
   13MOL    H97 3961   1.770   7.342   1.946 -1.9029 -1.2280 -1.7666
   13MOL    C98 3962   1.694   7.167   1.595  0.4615  0.8749 -0.3465
   13MOL    C99 3963   1.603   7.044   1.592 -0.2971 -0.2781  0.1959
   13MOL   C100 3964   1.507   7.035   1.710 -0.4553  0.7120  0.4421
   13MOL   C101 3965   1.519   6.935   1.809  0.1222 -0.8186 -0.1166
   13MOL   C102 3966   1.449   6.938   1.928  0.0449  0.4354  0.5065
   13MOL   C103 3967   1.346   7.031   1.948 -0.3145 -0.1236  0.7864
   13MOL   C104 3968   1.325   7.125   1.844  0.3295 -0.6354 -0.0378
   13MOL   C105 3969   1.406   7.127   1.731 -0.0086  0.2343 -0.1329
   13MOL   H106 3970   1.762   7.159   1.510  0.4518 -0.5675 -0.2432
   13MOL   H107 3971   1.641   7.259   1.573  1.2925  1.7624  1.3177
   13MOL   H108 3972   1.673   6.961   1.606 -1.4659 -1.6295 -1.7185
   13MOL   H109 3973   1.599   6.863   1.811  2.0974  1.2589 -1.8999
   13MOL   H110 3974   1.484   6.877   2.010 -2.5296 -0.3083  1.1103
   13MOL   H111 3975   1.285   7.058   2.033 -2.9779  1.1245 -1.4528
   13MOL   H112 3976   1.245   7.197   1.849  1.2534  0.3245  1.4960
   13MOL   H113 3977   1.401   7.208   1.659  2.9203 -0.1645 -0.8211
   13MOL   C114 3978   1.516   7.029   1.466 -0.6719  0.9320 -0.1669
   13MOL   C115 3979   1.586   7.006   1.333 -0.6911  0.1978 -0.2358
   13MOL   C116 3980   1.697   6.897   1.347  0.8210 -0.2402 -0.5656
   13MOL   C117 3981   1.825   6.920   1.294 -0.5580  0.7319 -0.2857
   13MOL   C118 3982   1.931   6.828   1.315  0.8899  0.7768  0.3842
   13MOL   C119 3983   1.904   6.714   1.394  0.2307 -0.4940 -0.1781
   13MOL   C120 3984   1.775   6.688   1.448 -0.8358  0.7493 -0.7374
   13MOL   C121 3985   1.669   6.775   1.422 -0.1183 -0.1237 -0.5598
   13MOL   H122 3986   1.447   7.111   1.449 -2.3638 -0.4924 -0.3198
   13MOL   H123 3987   1.455   6.940   1.480 -0.5407  0.9144  0.2951
   13MOL   H124 3988   1.647   7.094   1.313  0.3284 -0.6071 -0.6851
   13MOL   H125 3989   1.848   7.011   1.240  1.6632 -1.2553 -2.8127
   13MOL   H126 3990   2.021   6.836   1.256  0.5724  0.2317 -0.1789
   13MOL   H127 3991   1.990   6.654   1.419 -0.2188 -1.1618 -0.2220
   13MOL   H128 3992   1.766   6.598   1.508  0.4311  0.0112 -1.6079
   13MOL   H129 3993   1.572   6.755   1.464  0.8472 -0.7434  1.4048
   13MOL   C130 3994   1.489   6.985   1.210 -0.7271  0.1163 -1.0079
   13MOL   C131 3995   1.537   6.941   1.074  0.5649 -0.7207 -0.1871
   13MOL   C132 3996   1.410   6.947   0.985 -0.3670  0.0225  0.8001
   13MOL   C133 3997   1.346   7.071   0.952 -0.2822  0.0095 -0.2389
   13MOL   C134 3998   1.244   7.074   0.853  0.2295  0.4220  0.0054
   13MOL   C135 3999   1.202   6.952   0.793 -0.5487  0.5004 -0.1747
   13MOL   C136 4000   1.261   6.828   0.830  0.2579  0.8957  0.1625
   13MOL   C137 4001   1.364   6.829   0.928 -0.1860 -0.3229 -0.3982
   13MOL   H138 4002   1.432   7.077   1.198  0.7946  1.0606 -1.0070
   13MOL   H139 4003   1.410   6.912   1.231 -1.2417  0.8940 -0.2228
   13MOL   H140 4004   1.564   6.838   1.095  1.6356  0.0438  2.3873
   13MOL   H141 4005   1.379   7.161   1.003 -1.7072  2.0053 -2.7441
   13MOL   H142 4006   1.192   7.164   0.823 -1.2295 -0.6453 -0.7685
   13MOL   H143 4007   1.132   6.942   0.711  0.5768 -4.3912 -0.6940
   13MOL   H144 4008   1.223   6.737   0.785  1.9461  0.7205 -0.9826
   13MOL   H145 4009   1.413   6.739   0.962  1.7629  1.6828  2.3789
   13MOL   C146 4010   1.638   7.042   1.014 -0.0757  0.2555  0.4853
   13MOL   C147 4011   1.710   6.975   0.900 -0.0459 -0.0586  0.6716
   13MOL   C148 4012   1.758   7.090   0.805 -0.3402  0.1977 -0.2594
   13MOL   C149 4013   1.715   7.094   0.670  0.3530  0.1166  0.3281
   13MOL   C150 4014   1.758   7.190   0.582 -0.0665 -0.5027  0.7014
   13MOL   C151 4015   1.842   7.287   0.627 -0.2633  0.0149  0.3654
   13MOL   C152 4016   1.882   7.292   0.758 -0.9801 -0.4831 -0.3823
   13MOL   C153 4017   1.841   7.191   0.851 -0.3731  0.5663 -0.1184
   13MOL   H154 4018   1.715   7.075   1.085  0.5213 -3.3036  1.6175
   13MOL   H155 4019   1.585   7.134   0.991 -0.7901 -0.3726 -0.3782
   13MOL   H156 4020   1.631   6.916   0.852 -0.2873  3.1780 -3.1586
   13MOL   H157 4021   1.654   7.016   0.628 -0.0110 -0.2084  1.4676
   13MOL   H158 4022   1.727   7.186   0.478  2.0113  0.6561  0.0042
   13MOL   H159 4023   1.873   7.367   0.562 -1.4088  1.4364  1.5358
   13MOL   H160 4024   1.943   7.367   0.807 -2.4916  0.1348  0.5866
   13MOL   H161 4025   1.874   7.193   0.954  0.4609  0.1300 -0.3626
   13MOL   C162 4026   1.830   6.880   0.943  0.0766 -0.0294 -0.3485
   13MOL   C163 4027   1.924   6.815   0.845  0.1992  0.2315  0.4412
   13MOL   C164 4028   2.066   6.848   0.881  0.5473  0.2391  1.0838
   13MOL   C165 4029   2.137   6.924   0.794 -0.2648 -0.3388  1.0056
   13MOL   C166 4030   2.275   6.967   0.819  0.7617  0.5064  0.3729
   13MOL   C167 4031   2.343   6.917   0.927 -0.3311  0.0630 -0.2199
   13MOL   C168 4032   2.276   6.836   1.017 -0.1190 -0.0681 -0.1210
   13MOL   C169 4033   2.138   6.811   0.997 -0.4727  0.5406 -0.5581
   13MOL   H170 4034   1.795   6.810   1.020 -3.2759  3.0051  1.0298
   13MOL   H171 4035   1.892   6.940   1.011  1.0143 -2.5264  1.1024
   13MOL   H172 4036   1.915   6.849   0.742  0.2554 -1.3424 -0.1030
   13MOL   H173 4037   2.078   6.955   0.709  1.0366 -0.8989 -0.1326
   13MOL   H174 4038   2.328   7.029   0.747  0.7812  1.6919  1.3871
   13MOL   H175 4039   2.448   6.942   0.937 -0.1631 -0.5730 -0.4041
   13MOL   H176 4040   2.321   6.814   1.113  0.0542  0.1023 -0.1641
   13MOL   H177 4041   2.088   6.742   1.065 -1.3681  0.9062 -0.8322
   13MOL   C178 4042   1.901   6.664   0.821  0.5887  0.6689 -0.2450
   13MOL   C179 4043   1.748   6.619   0.792 -0.1964 -0.3335  0.6074
   13MOL   C180 4044   1.687   6.666   0.659  0.9050 -0.2702 -0.6119
   13MOL   C181 4045   1.542   6.676   0.647  0.4382 -0.0341  0.1671
   13MOL   C182 4046   1.478   6.713   0.522 -0.6574  0.6286 -0.3660
   13MOL   C183 4047   1.562   6.737   0.411 -0.1628 -1.0115 -0.1444
   13MOL   C184 4048   1.704   6.740   0.425  0.0315  0.0959 -0.1485
   13MOL   C185 4049   1.764   6.706   0.546 -0.4581 -0.2043  0.6034
   13MOL   H186 4050   1.921   6.622   0.919 -2.4717  0.0107  0.1362
   13MOL   H187 4051   1.970   6.626   0.745 -1.6817 -1.7038 -1.1934
   13MOL   H188 4052   1.685   6.653   0.874 -1.2215  1.9119 -1.0918
   13MOL   H189 4053   1.473   6.652   0.727 -0.1686 -0.3955 -0.4555
   13MOL   H190 4054   1.370   6.713   0.517 -0.8474  0.9206  2.8125
   13MOL   H191 4055   1.516   6.767   0.318 -0.8579  1.7802  1.0225
   13MOL   H192 4056   1.774   6.749   0.343  1.0819 -0.7124  0.6422
   13MOL   H193 4057   1.872   6.704   0.549 -0.2986  1.0611 -2.3933
   13MOL   C194 4058   1.741   6.469   0.804 -0.4162  0.5322 -0.5937
   13MOL   C195 4059   1.739   6.410   0.950  0.3827  0.5128  0.0734
   13MOL   C196 4060   1.613   6.465   1.024 -0.1466  0.0450  0.0641
   13MOL   C197 4061   1.616   6.562   1.123 -0.5813 -0.5852 -0.4635
   13MOL   C198 4062   1.500   6.590   1.193 -0.3661  0.3011 -0.5536
   13MOL   C199 4063   1.376   6.538   1.156 -0.2446 -0.0158  0.5821
   13MOL   C200 4064   1.373   6.442   1.049 -0.2736  0.1074  0.4244
   13MOL   C201 4065   1.491   6.407   0.987  0.2860  0.5396  0.5169
   13MOL   H202 4066   1.817   6.413   0.748  0.0035  0.1437  0.3572
   13MOL   H203 4067   1.656   6.438   0.744  0.2402 -0.2783 -1.1276
   13MOL   H204 4068   1.824   6.459   0.998  1.6619  0.3394 -1.9669
   13MOL   H205 4069   1.714   6.598   1.150  0.1721 -0.7563 -2.8234
   13MOL   H206 4070   1.507   6.668   1.269  1.4520 -0.5760  0.2219
   13MOL   H207 4071   1.287   6.556   1.214  0.5854 -0.7719  2.1397
   13MOL   H208 4072   1.283   6.387   1.026  0.0230 -1.3701  2.7255
   13MOL   H209 4073   1.484   6.335   0.907  0.5433  0.2336  0.7694
   13MOL   C210 4074   1.764   6.254   0.962 -0.3297 -0.0821  0.0792
   13MOL   C211 4075   1.896   6.202   0.904  0.3888  0.7675  0.1623
   13MOL   C212 4076   2.008   6.292   0.946  1.0015  0.0331 -0.4751
   13MOL   C213 4077   2.079   6.366   0.854  0.1764  0.0215  0.2730
   13MOL   C214 4078   2.176   6.455   0.893  0.1691  0.6373 -0.4418
   13MOL   C215 4079   2.205   6.470   1.032 -1.0615  0.5484  0.1245
   13MOL   C216 4080   2.142   6.388   1.123  0.3939 -0.3058 -0.0605
   13MOL   C217 4081   2.044   6.298   1.085 -0.3061 -0.4935 -0.6769
   13MOL   H218 4082   1.687   6.206   0.903  1.1391  1.2650 -3.0177
   13MOL   H219 4083   1.760   6.225   1.067  0.7106 -1.8948 -0.3709
   13MOL   H220 4084   1.894   6.192   0.795  1.6646  0.6221  0.1374
   13MOL   H221 4085   2.055   6.364   0.749 -0.1213  1.5465  0.3038
   13MOL   H222 4086   2.232   6.517   0.824  1.0707 -0.9818 -1.2096
   13MOL   H223 4087   2.288   6.531   1.064  0.1308 -1.7280  1.4685
   13MOL   H224 4088   2.172   6.390   1.227 -1.3128 -0.4878  0.4570
   13MOL   H225 4089   1.997   6.234   1.158 -0.0684  0.1938  0.0763
   13MOL   C226 4090   1.904   6.045   0.956 -0.5531  0.3577  0.0575
   13MOL   C227 4091   2.027   5.951   0.911  0.6411 -0.0397 -0.4259
   13MOL   C228 4092   2.028   5.818   0.984 -0.2505  0.4629 -0.0893
   13MOL   C229 4093   1.923   5.729   0.977 -0.2102 -0.0431 -0.1823
   13MOL   C230 4094   1.922   5.604   1.047  0.5885  0.0799  0.1913
   13MOL   C231 4095   2.034   5.575   1.126  0.2411  0.0635 -0.3064
   13MOL   C232 4096   2.146   5.661   1.135  0.3129  0.3513 -0.4550
   13MOL   C233 4097   2.140   5.784   1.063  0.1888  0.2826 -0.0515
   13MOL   H234 4098   1.809   5.998   0.930 -1.1588  1.6605 -0.1028
   13MOL   H235 4099   1.898   6.053   1.065  1.6189 -2.2351  0.4324
   13MOL   H236 4100   2.116   6.006   0.942  0.2813 -0.3653  1.2485
   13MOL   H237 4101   1.831   5.745   0.923  0.4078 -0.0981 -1.2521
   13MOL   H238 4102   1.832   5.545   1.042  1.1685 -0.6390 -2.1063
   13MOL   H239 4103   2.041   5.485   1.186 -3.1145 -0.0357  0.0043
   13MOL   H240 4104   2.239   5.632   1.181  0.6421  1.0881 -0.6430
   13MOL   H241 4105   2.226   5.848   1.067  1.8678 -1.8672 -0.7667
   13MOL   C242 4106   2.036   5.950   0.753 -0.0204 -0.5054  0.2636
   13MOL   C243 4107   2.149   5.865   0.696 -0.2253 -1.1737  0.0771
   13MOL   C244 4108   2.090   5.754   0.608  0.4682 -0.1281  1.0645
   13MOL   C245 4109   2.079   5.625   0.659  0.0080  0.0430 -0.0460
   13MOL   C246 4110   2.030   5.526   0.573  0.6243  0.5234 -0.1008
   13MOL   C247 4111   1.993   5.551   0.444  0.4451  0.5347 -0.2075
   13MOL   C248 4112   2.013   5.679   0.389  0.1611  0.1527  0.3672
   13MOL   C249 4113   2.050   5.787   0.472 -0.3763 -0.3432 -0.1432
   13MOL   H250 4114   2.038   6.051   0.713  2.0992 -1.2997 -1.8184
   13MOL   H251 4115   1.937   5.915   0.721 -1.0728  0.0233  2.8554
   13MOL   H252 4116   2.193   5.806   0.777  1.4296  0.7729  0.6171
   13MOL   H253 4117   2.106   5.611   0.763 -3.3152  1.7345  1.1011
   13MOL   H254 4118   2.015   5.426   0.611  1.7327 -0.1920 -1.4668
   13MOL   H255 4119   1.956   5.480   0.372  0.6356 -0.0264  0.2416
   13MOL   H256 4120   2.004   5.694   0.282 -0.3172 -0.0846  0.3703
   13MOL   H257 4121   2.065   5.886   0.431 -3.3313 -0.1027 -0.7262
   13MOL   C258 4122   2.261   5.946   0.620 -0.0964  0.0649  0.0840
   13MOL   C259 4123   2.335   6.058   0.706  0.9389 -0.8344 -0.3507
   13MOL   C260 4124   2.396   6.009   0.839  0.4292 -0.2217 -0.5394
   13MOL   C261 4125   2.458   5.882   0.857  0.4449  0.3693 -0.6488
   13MOL   C262 4126   2.500   5.841   0.984 -0.1501  0.2971 -0.1603
   13MOL   C263 4127   2.486   5.919   1.098 -0.7098 -0.6674  0.2470
   13MOL   C264 4128   2.428   6.051   1.080 -0.0556  0.3189  0.3238
   13MOL   C265 4129   2.383   6.091   0.952 -0.1250 -0.0076 -0.8160
   13MOL   H266 4130   2.204   5.988   0.537 -3.0643 -1.0395  1.5047
   13MOL   H267 4131   2.333   5.876   0.577 -0.0278 -0.6252  1.3032
   13MOL   H268 4132   2.274   6.141   0.742 -0.8776 -2.3879  0.2028
   13MOL   H269 4133   2.476   5.810   0.778  0.6788 -0.9969  0.6293
   13MOL   H270 4134   2.553   5.748   0.996 -1.4157 -0.2695  1.1912
   13MOL   H271 4135   2.505   5.870   1.193 -0.1459 -1.9773 -0.5395
   13MOL   H272 4136   2.422   6.121   1.163  0.6193 -0.4583  1.0382
   13MOL   H273 4137   2.345   6.191   0.937  1.6928  0.8329  0.0440
   13MOL   C274 4138   2.439   6.124   0.609  0.4662  0.2507 -0.3870
   13MOL   C275 4139   2.381   6.217   0.505  0.2479  0.0437  0.5565
   13MOL   C276 4140   2.459   6.344   0.486  0.7257  0.2484 -0.0201
   13MOL   C277 4141   2.587   6.346   0.442 -0.4893 -0.3732  0.2768
   13MOL   C278 4142   2.656   6.467   0.430 -0.0904 -0.1955 -0.1877
   13MOL   C279 4143   2.591   6.589   0.469  0.1406  0.1347 -0.1389
   13MOL   C280 4144   2.455   6.590   0.516 -0.0396  0.3460 -0.1494
   13MOL   C281 4145   2.390   6.468   0.526  0.0417  0.5069  0.6384
   13MOL   H282 4146   2.494   6.044   0.559  0.6381 -0.4738  0.9381
   13MOL   H283 4147   2.516   6.178   0.664 -0.5875 -1.0845  2.4543
   13MOL   H284 4148   2.284   6.249   0.542  0.9746  0.5618  2.0402
   13MOL   H285 4149   2.630   6.252   0.411 -3.8662 -0.7995 -3.4824
   13MOL   H286 4150   2.756   6.466   0.388  0.2479  2.1198  0.4713
   13MOL   H287 4151   2.635   6.687   0.458 -0.9048  0.6129 -0.1313
   13MOL   H288 4152   2.410   6.683   0.549 -2.4577  0.4088 -3.4380
   13MOL   H289 4153   2.292   6.463   0.571 -0.0124  0.6126  0.5338
   13MOL   C290 4154   2.355   6.157   0.354  0.3763 -0.0414 -0.0068
   13MOL   C291 4155   2.247   6.240   0.272  0.7771  0.4624  0.6417
   13MOL   C292 4156   2.280   6.223   0.123  0.1351 -0.2534 -0.2723
   13MOL   C293 4157   2.280   6.339   0.036 -0.3930  0.5181 -0.6114
   13MOL   C294 4158   2.303   6.322   8.011 -0.4030  0.0262 -0.2333
   13MOL   C295 4159   2.314   6.191   7.956 -0.1203 -0.2595  0.0122
   13MOL   C296 4160   2.322   6.082   8.040  0.1561  0.0328 -0.0448
   13MOL   C297 4161   2.303   6.100   0.063 -0.2943 -0.4354 -0.7426
   13MOL   H298 4162   2.340   6.049   0.348  1.0172 -0.1060 -0.4436
   13MOL   H299 4163   2.450   6.163   0.302 -0.0093  1.0611 -0.6055
   13MOL   H300 4164   2.253   6.349   0.282  0.0380  0.9934 -3.5281
   13MOL   H301 4165   2.273   6.444   0.061 -0.6456  0.4903 -0.5728
   13MOL   H302 4166   2.312   6.406   7.944 -2.7058  0.0868 -0.5007
   13MOL   H303 4167   2.334   6.175   7.850 -2.3977  0.1185 -0.4850
   13MOL   H304 4168   2.341   5.991   7.986  2.1699 -0.1995  1.0262
   13MOL   H305 4169   2.314   6.015   0.129  2.6137  0.0932 -0.4762
   13MOL   C306 4170   2.100   6.210   0.288  0.6394  0.5980  0.5523
   13MOL   C307 4171   2.048   6.242   0.429  0.2832 -0.0053 -0.2642
   13MOL   C308 4172   1.897   6.230   0.440 -0.3513 -0.0239  0.1573
   13MOL   C309 4173   1.824   6.347   0.444 -0.5118 -0.2627 -0.1514
   13MOL   C310 4174   1.688   6.351   0.475  0.6491  0.1691  0.4324
   13MOL   C311 4175   1.620   6.231   0.505  0.7510  0.4420 -0.7050
   13MOL   C312 4176   1.691   6.113   0.473 -0.3178  0.5193 -0.3563
   13MOL   C313 4177   1.828   6.113   0.446 -0.5321  0.4795  0.0235
   13MOL   H314 4178   2.066   6.107   0.283  0.4181  0.6260  1.4304
   13MOL   H315 4179   2.042   6.271   0.219 -1.0119 -0.8607  0.6256
   13MOL   H316 4180   2.076   6.340   0.468 -0.8740 -0.6285  2.2677
   13MOL   H317 4181   1.865   6.447   0.433 -2.0027  0.4121  0.2638
   13MOL   H318 4182   1.641   6.448   0.482  0.2415  0.1290 -1.5272
   13MOL   H319 4183   1.520   6.221   0.544  1.0499 -3.2314 -0.6281
   13MOL   H320 4184   1.638   6.023   0.500 -2.3503  2.0974  1.0679
   13MOL   H321 4185   1.889   6.023   0.443 -0.6435  0.4185 -0.5331
   13MOL   H322 4186   2.082   6.164   0.497  0.3218 -0.8040 -1.1916
   14MOL     C1 4187   0.337   0.056   2.488 -0.3642  0.2140 -0.2271
   14MOL     C2 4188   0.329   0.050   2.325 -0.6325 -0.6410 -1.3718
   14MOL     C3 4189   0.311   8.024   2.282  0.6540 -0.6236  0.5138
   14MOL     C4 4190   0.408   7.973   2.188 -0.2754 -0.8308  0.3082
   14MOL     C5 4191   0.408   7.837   2.158  1.1487  0.9740  0.5567
   14MOL     C6 4192   0.308   7.755   2.211  0.0947  0.2067  0.3616
   14MOL     C7 4193   0.208   7.806   2.299  0.2107 -0.5583  0.3570
   14MOL     C8 4194   0.204   7.947   2.324 -0.1943 -0.4515  0.0662
   14MOL     H9 4195   0.335   0.159   2.524  1.1992  0.4327 -0.7507
   14MOL    H10 4196   0.237   0.021   2.514 -1.5647  1.4673 -2.9399
   14MOL    H11 4197   0.423   0.094   2.293 -0.2352 -0.9381 -0.6289
   14MOL    H12 4198   0.494   8.033   2.164 -2.3457  2.8919  1.7741
   14MOL    H13 4199   0.490   7.800   2.099  1.1367 -1.1519  1.8644
   14MOL    H14 4200   0.311   7.652   2.178  0.5513  0.2434  0.2841
   14MOL    H15 4201   0.130   7.749   2.347 -0.8618  0.7368  0.2039
   14MOL    H16 4202   0.132   7.978   2.399 -0.2246 -2.7169  1.0390
   14MOL    H17 4203   0.420   8.114   2.530  0.8453  2.6742  0.7788
   14MOL    C18 4204   0.214   0.135   2.269 -0.4678  0.3169  0.2184
   14MOL    C19 4205   0.210   0.284   2.302  0.4530  0.2115  0.4538
   14MOL    C20 4206   0.349   0.356   2.299 -0.1603  0.2989  0.1558
   14MOL    C21 4207   0.413   0.365   2.175  0.3195 -0.0815  0.4389
   14MOL    C22 4208   0.528   0.443   2.156 -0.2270  0.1804 -0.1065
   14MOL    C23 4209   0.589   0.502   2.268  0.6137  0.0123 -1.3096
   14MOL    C24 4210   0.536   0.488   2.395 -0.3241  0.3769  0.1937
   14MOL    C25 4211   0.412   0.421   2.409  0.2287  0.0536  0.2452
   14MOL    H26 4212   0.120   0.102   2.313  0.6113 -2.3107  0.6155
   14MOL    H27 4213   0.201   0.109   2.164 -2.7206  0.5185  0.4146
   14MOL    H28 4214   0.182   0.288   2.408 -4.0694 -0.9984 -0.6195
   14MOL    H29 4215   0.363   0.327   2.087 -1.4661  0.2905  1.2713
   14MOL    H30 4216   0.563   0.455   2.054 -0.2388 -3.1184 -0.5285
   14MOL    H31 4217   0.680   0.560   2.257 -0.9907  2.7163 -0.7874
   14MOL    H32 4218   0.588   0.527   2.482 -0.4034 -1.9980  1.3594
   14MOL    H33 4219   0.357   0.418   2.502  0.4762 -2.2138  0.3414
   14MOL    C34 4220   0.116   0.374   2.221 -0.5236 -0.0001  0.8346
   14MOL    C35 4221   8.081   0.341   2.221 -0.1955 -0.4742 -0.1046
   14MOL    C36 4222   8.032   0.355   2.368  0.6454 -0.5833  0.1229
   14MOL    C37 4223   7.994   0.237   2.432 -0.6552  0.2639  1.2460
   14MOL    C38 4224   7.947   0.238   2.567 -0.1083 -0.1467 -0.2892
   14MOL    C39 4225   7.929   0.353   2.639  0.1356  0.7432  0.0067
   14MOL    C40 4226   7.961   0.472   2.569  0.4832  0.1084 -0.0461
   14MOL    C41 4227   8.015   0.475   2.437 -0.0871  0.1533 -0.4261
   14MOL    H42 4228   0.142   0.395   2.118  0.9117  0.5952  1.2991
   14MOL    H43 4229   0.126   0.478   2.253 -0.2397  0.5827 -1.0740
   14MOL    H44 4230   8.066   0.239   2.187  0.9610 -0.4671 -0.6418
   14MOL    H45 4231   8.000   0.142   2.381 -0.3107  0.1080  1.5791
   14MOL    H46 4232   7.916   0.151   2.622 -1.1336 -0.0887 -0.7688
   14MOL    H47 4233   7.903   0.341   2.743 -0.9297  1.1522 -0.2025
   14MOL    H48 4234   7.942   0.564   2.622 -1.6455  1.5230 -3.1388
   14MOL    H49 4235   8.021   0.572   2.389 -2.9122 -0.0317 -1.2687
   14MOL    C50 4236   8.004   0.433   2.122 -0.0610  0.1929 -0.3944
   14MOL    C51 4237   8.034   0.392   1.974 -0.1035 -0.5185  0.1975
   14MOL    C52 4238   7.978   0.254   1.956 -1.1145 -0.2892  0.3790
   14MOL    C53 4239   7.842   0.223   1.930 -0.2050 -0.5604  0.1477
   14MOL    C54 4240   7.791   0.095   1.923  0.1467  0.5739 -0.7742
   14MOL    C55 4241   7.878   8.102   1.943 -0.1440 -0.3169  0.3049
   14MOL    C56 4242   8.013   0.013   1.958  0.3647  0.3585 -0.4978
   14MOL    C57 4243   8.065   0.142   1.957 -0.9614  0.2365 -1.2723
   14MOL    H58 4244   8.043   0.532   2.142 -0.1053  0.0775  0.2617
   14MOL    H59 4245   7.897   0.411   2.133  0.1112 -0.4826 -0.0613
   14MOL    H60 4246   0.023   0.394   1.940 -0.1240  1.2094  0.1994
   14MOL    H61 4247   7.764   0.298   1.924 -0.4607 -1.0025 -2.8236
   14MOL    H62 4248   7.688   0.064   1.914  0.3705  0.4967 -3.6220
   14MOL    H63 4249   7.835   8.005   1.964 -2.4768  0.5357 -0.3986
   14MOL    H64 4250   8.088   8.052   1.978  1.1461  1.2964  0.1806
   14MOL    H65 4251   0.057   0.149   1.971 -1.3285  2.0207  0.7598
   14MOL    C66 4252   7.976   0.484   1.868 -0.3275 -0.2225  0.6243
   14MOL    C67 4253   8.030   0.630   1.864  0.0965 -0.6703  0.5146
   14MOL    C68 4254   0.070   0.632   1.901 -0.1051 -0.0224 -0.0602
   14MOL    C69 4255   0.112   0.680   2.028 -0.3238  0.1907 -0.0012
   14MOL    C70 4256   0.246   0.683   2.057  0.3242  0.2348  0.1247
   14MOL    C71 4257   0.345   0.639   1.965  0.4106  0.5996 -0.4875
   14MOL    C72 4258   0.302   0.586   1.845  0.4011 -0.2941  0.1098
   14MOL    C73 4259   0.167   0.584   1.810  0.0720 -0.3037 -0.0631
   14MOL    H74 4260   7.867   0.488   1.874 -0.3918  1.0014 -1.1116
   14MOL    H75 4261   8.004   0.433   1.775  2.4089  1.3491  0.5313
   14MOL    H76 4262   7.980   0.686   1.943 -0.7187  0.0547 -0.5190
   14MOL    H77 4263   0.041   0.722   2.098 -2.0859 -4.0956  0.9110
   14MOL    H78 4264   0.278   0.730   2.149 -2.6624  0.9777  0.8602
   14MOL    H79 4265   0.450   0.645   1.987 -0.0312 -0.6296  2.2801
   14MOL    H80 4266   0.374   0.545   1.776  0.6244  0.6679 -0.2300
   14MOL    H81 4267   0.127   0.534   1.723  0.2102 -1.5523  0.5727
   14MOL    C82 4268   7.997   0.715   1.736 -0.9179  0.2242  0.2084
   14MOL    C83 4269   7.846   0.729   1.715  0.1877  0.6054  0.3341
   14MOL    C84 4270   7.788   0.832   1.800 -0.4628 -0.0172 -0.0048
   14MOL    C85 4271   7.751   0.794   1.929  0.3339 -0.7243 -0.0264
   14MOL    C86 4272   7.683   0.884   2.009  0.3137 -0.4063  0.3501
   14MOL    C87 4273   7.667   1.021   1.970 -0.0060  0.3869 -0.0551
   14MOL    C88 4274   7.719   1.063   1.842  0.5232 -0.4299  0.2705
   14MOL    C89 4275   7.788   0.971   1.765 -0.4368 -0.2348 -0.0339
   14MOL    H90 4276   8.057   0.668   1.659  1.4610  1.9171  0.9549
   14MOL    H91 4277   8.041   0.814   1.753 -1.2245 -0.0727  2.9660
   14MOL    H92 4278   7.794   0.639   1.747 -0.7406  1.1446  0.3639
   14MOL    H93 4279   7.752   0.688   1.952  1.9519 -0.7989 -0.3497
   14MOL    H94 4280   7.647   0.857   2.108  0.4567 -1.6844  0.0541
   14MOL    H95 4281   7.620   1.090   2.038 -0.6108 -1.5670  1.5693
   14MOL    H96 4282   7.712   1.168   1.817 -0.5263 -0.6106 -0.1640
   14MOL    H97 4283   7.838   1.001   1.675  0.0888 -0.3987  0.2013
   14MOL    C98 4284   7.807   0.743   1.564 -0.3306  0.5008  0.0105
   14MOL    C99 4285   7.828   0.621   1.480  0.1822 -0.0404 -0.4944
   14MOL   C100 4286   7.734   0.508   1.519 -0.0331  0.3526  0.6238
   14MOL   C101 4287   7.771   0.394   1.593 -0.4793 -0.2417 -0.1263
   14MOL   C102 4288   7.676   0.301   1.625  0.0783  0.7169 -0.0985
   14MOL   C103 4289   7.541   0.320   1.603 -0.6430  0.3322  0.4973
   14MOL   C104 4290   7.507   0.426   1.519 -0.9041 -0.2236 -0.4059
   14MOL   C105 4291   7.602   0.515   1.476  0.2939 -0.0316 -0.9056
   14MOL   H106 4292   7.876   0.813   1.517  1.2803 -0.6792  0.5730
   14MOL   H107 4293   7.703   0.769   1.545 -0.9562 -2.5599 -0.9494
   14MOL   H108 4294   7.927   0.581   1.502  0.0658 -0.6097 -0.9686
   14MOL   H109 4295   7.876   0.391   1.622 -0.7177  1.0437  0.9165
   14MOL   H110 4296   7.704   0.211   1.680 -2.6451 -0.2296 -0.1985
   14MOL   H111 4297   7.460   0.257   1.637 -1.7035  0.4440 -1.7071
   14MOL   H112 4298   7.406   0.439   1.482 -1.3994  0.6332  1.2159
   14MOL   H113 4299   7.557   0.601   1.428 -1.5375  1.4207  3.2259
   14MOL   C114 4300   7.832   0.641   1.327 -0.2422  0.6029  0.0193
   14MOL   C115 4301   7.940   0.730   1.281  0.6854 -0.0874  0.3899
   14MOL   C116 4302   8.084   0.692   1.325 -0.0988  0.1814 -0.0301
   14MOL   C117 4303   0.050   0.793   1.381 -0.6396  0.3251 -0.0458
   14MOL   C118 4304   0.174   0.758   1.441  0.4361 -0.5144  0.2872
   14MOL   C119 4305   0.225   0.627   1.436 -0.1214  0.0576 -0.3176
   14MOL   C120 4306   0.151   0.532   1.363  0.0290 -0.4509  0.4009
   14MOL   C121 4307   0.028   0.566   1.304  0.2732  0.6945  0.0879
   14MOL   H122 4308   7.737   0.680   1.291 -0.4423  1.4314  1.4328
   14MOL   H123 4309   7.826   0.543   1.280 -1.7646  0.0686  1.3149
   14MOL   H124 4310   7.932   0.834   1.313  1.1126 -0.3731  1.4697
   14MOL   H125 4311   0.012   0.892   1.400  0.0699  0.9199 -1.6282
   14MOL   H126 4312   0.228   0.828   1.503  0.1335  1.1222 -1.2454
   14MOL   H127 4313   0.315   0.597   1.488  0.7841 -1.1705 -2.5005
   14MOL   H128 4314   0.183   0.429   1.356  2.5471  0.4036 -1.4881
   14MOL   H129 4315   8.086   0.488   1.256  0.3577  1.4682 -1.3102
   14MOL   C130 4316   7.930   0.744   1.130  0.2147  0.7872  0.4569
   14MOL   C131 4317   7.865   0.867   1.081  0.2744 -0.6152  0.2542
   14MOL   C132 4318   7.729   0.892   1.143  0.2525  0.0147 -0.2344
   14MOL   C133 4319   7.714   0.972   1.263 -0.7150 -0.2037 -0.0152
   14MOL   C134 4320   7.591   0.993   1.317  0.5399 -0.4464 -0.0259
   14MOL   C135 4321   7.473   0.939   1.267 -0.0731  0.5536 -0.0002
   14MOL   C136 4322   7.486   0.864   1.144  0.0604 -0.2513  0.6149
   14MOL   C137 4323   7.610   0.840   1.084  0.2072  0.0228 -0.5289
   14MOL   H138 4324   7.871   0.664   1.087 -0.4737  0.7855  1.3796
   14MOL   H139 4325   8.023   0.741   1.073  0.1034  0.8722  0.2708
   14MOL   H140 4326   7.828   0.843   0.981 -2.3422 -0.2450  1.0815
   14MOL   H141 4327   7.799   1.028   1.301  0.0484 -0.3613 -1.4432
   14MOL   H142 4328   7.579   1.073   1.389  0.6275 -1.3870  1.0557
   14MOL   H143 4329   7.381   0.974   1.311 -0.0274 -0.5648  1.0155
   14MOL   H144 4330   7.393   0.834   1.097 -1.9335 -1.9221  5.2676
   14MOL   H145 4331   7.607   0.777   0.997 -0.2877  1.0930 -1.3031
   14MOL   C146 4332   7.951   0.998   1.082 -0.1494  0.5639  0.2855
   14MOL   C147 4333   8.076   1.003   0.989  0.0296 -0.3041 -0.5846
   14MOL   C148 4334   8.054   0.959   0.841  0.3770 -0.1088 -0.4115
   14MOL   C149 4335   7.955   1.023   0.760  0.2225 -0.2440  0.3886
   14MOL   C150 4336   7.927   0.977   0.626  0.7413 -0.1864 -0.3837
   14MOL   C151 4337   8.006   0.875   0.572 -0.4244 -0.1023 -0.5196
   14MOL   C152 4338   8.106   0.819   0.649 -0.4283  0.4975  0.0690
   14MOL   C153 4339   0.011   0.857   0.783 -0.9663 -0.3005 -0.0871
   14MOL   H154 4340   7.980   1.021   1.185 -0.3511  0.5428  0.3489
   14MOL   H155 4341   7.879   1.072   1.046  0.9977  2.7691  2.3936
   14MOL   H156 4342   0.028   0.932   1.038  0.6710 -0.5949 -1.8749
   14MOL   H157 4343   7.889   1.101   0.795  0.0923 -0.2304  0.1149
   14MOL   H158 4344   7.847   1.023   0.570 -1.3281 -1.2663  1.6494
   14MOL   H159 4345   7.981   0.836   0.475  2.4208  1.1344 -1.8121
   14MOL   H160 4346   0.040   0.733   0.604 -3.1463 -1.7138  1.2417
   14MOL   H161 4347   0.096   0.819   0.837 -1.6363 -0.1110  1.1146
   14MOL   C162 4348   0.030   1.144   0.984  0.6905  0.0285  0.4307
   14MOL   C163 4349   0.133   1.163   1.101 -0.2730  0.5362  0.6229
   14MOL   C164 4350   0.256   1.078   1.084  0.5162  0.1139 -0.3676
   14MOL   C165 4351   0.285   0.969   1.166 -0.4785  0.1882  0.2428
   14MOL   C166 4352   0.392   0.880   1.140 -0.3125 -0.2349  0.7785
   14MOL   C167 4353   0.494   0.926   1.049  0.0471 -0.3561 -0.2339
   14MOL   C168 4354   0.480   1.051   0.987 -1.1273  0.0509 -0.1392
   14MOL   C169 4355   0.355   1.112   0.988 -0.3419 -0.3793  0.3417
   14MOL   H170 4356   8.075   1.227   0.976 -0.7062 -1.1360  0.4217
   14MOL   H171 4357   0.092   1.153   0.894 -0.7052  0.2718 -0.5148
   14MOL   H172 4358   0.104   1.129   1.201 -0.1331  3.4218  1.6803
   14MOL   H173 4359   0.207   0.934   1.232  0.1750 -0.9057  0.4627
   14MOL   H174 4360   0.396   0.781   1.182 -0.5344 -0.0313  1.2745
   14MOL   H175 4361   0.578   0.863   1.023  1.0964  0.6671  0.6215
   14MOL   H176 4362   0.552   1.099   0.923  0.5093 -0.9031  0.9491
   14MOL   H177 4363   0.354   1.207   0.936  1.6701  0.0434  1.0339
   14MOL   C178 4364   0.156   1.317   1.118  0.4537 -0.3371  0.3585
   14MOL   C179 4365   0.039   1.406   1.172  0.2837  0.8022 -0.2072
   14MOL   C180 4366   8.091   1.352   1.304  0.3439  0.8064 -0.2195
   14MOL   C181 4367   7.952   1.333   1.320 -0.1987  0.4485 -0.3419
   14MOL   C182 4368   7.890   1.279   1.439 -0.2427 -0.0047 -0.3919
   14MOL   C183 4369   7.980   1.252   1.542 -0.3298  0.0362  0.3497
   14MOL   C184 4370   0.005   1.256   1.525 -1.5723  0.3451 -0.2248
   14MOL   C185 4371   0.061   1.320   1.412 -0.2230 -0.7711 -0.3458
   14MOL   H186 4372   0.198   1.361   1.027 -0.5781  0.0494  0.0698
   14MOL   H187 4373   0.228   1.333   1.198 -0.5789 -1.1223  1.4552
   14MOL   H188 4374   8.074   1.411   1.097  0.6728  1.6452 -0.5802
   14MOL   H189 4375   7.893   1.347   1.231  0.1285 -0.7441 -0.7687
   14MOL   H190 4376   7.783   1.263   1.444 -1.2794  5.6275 -1.0675
   14MOL   H191 4377   7.938   1.228   1.639 -0.1166  0.3913  0.5347
   14MOL   H192 4378   0.061   1.250   1.617 -0.3555  2.3288 -0.8071
   14MOL   H193 4379   0.167   1.337   1.403 -0.0745 -0.9357  0.9669
   14MOL   C194 4380   0.087   1.551   1.184  0.5159  0.7905  0.1905
   14MOL   C195 4381   8.089   1.661   1.226  0.0004  0.4941  0.4174
   14MOL   C196 4382   0.033   1.730   1.350 -0.3904 -0.3529 -0.1169
   14MOL   C197 4383   0.018   1.676   1.478  0.2953 -0.0591 -0.4928
   14MOL   C198 4384   0.087   1.721   1.593  0.4333 -0.7403  0.2796
   14MOL   C199 4385   0.183   1.818   1.576  0.0178 -0.6572 -0.6412
   14MOL   C200 4386   0.191   1.891   1.457  0.1615  0.2729 -0.6655
   14MOL   C201 4387   0.122   1.840   1.344 -0.4381  0.7171  0.6555
   14MOL   H202 4388   0.140   1.579   1.093  2.2306  1.5038  1.3708
   14MOL   H203 4389   0.161   1.562   1.263 -0.8394  0.9585  1.4765
   14MOL   H204 4390   8.000   1.613   1.267  0.0133  1.4282  1.5415
   14MOL   H205 4391   8.071   1.589   1.497 -0.2733  0.6038  0.7680
   14MOL   H206 4392   0.069   1.674   1.688  1.5658 -0.8857  0.4290
   14MOL   H207 4393   0.240   1.849   1.663 -1.5161  1.5136 -0.3893
   14MOL   H208 4394   0.259   1.974   1.462  0.4509  0.0316 -0.5760
   14MOL   H209 4395   0.144   1.891   1.252  1.9905  0.1476  0.8842
   14MOL   C210 4396   8.029   1.752   1.113  0.0622  0.0837 -0.8350
   14MOL   C211 4397   7.958   1.653   1.004 -0.0409 -0.6784 -0.5605
   14MOL   C212 4398   7.838   1.576   1.061  0.0984 -0.8957 -0.2117
   14MOL   C213 4399   7.810   1.459   0.994  0.6208  0.4911  1.2606
   14MOL   C214 4400   7.708   1.373   1.031  0.4863  0.3542 -0.6667
   14MOL   C215 4401   7.645   1.397   1.151  0.6459 -0.2175  0.5242
   14MOL   C216 4402   7.662   1.524   1.215 -0.3564  0.3224  0.2181
   14MOL   C217 4403   7.759   1.616   1.171 -0.2431 -0.3526 -0.2702
   14MOL   H218 4404   8.111   1.799   1.058 -2.3231  2.2073 -2.6748
   14MOL   H219 4405   7.960   1.826   1.152 -0.0323  1.5900 -3.7019
   14MOL   H220 4406   8.025   1.572   0.975 -0.2988 -0.5281 -1.6163
   14MOL   H221 4407   7.871   1.428   0.910 -2.3724  0.0186 -0.7973
   14MOL   H222 4408   7.701   1.282   0.974 -0.4019  2.1889 -3.6361
   14MOL   H223 4409   7.566   1.334   1.191  0.2325 -0.7312 -1.0591
   14MOL   H224 4410   7.610   1.533   1.309 -0.9723 -0.0058 -0.0856
   14MOL   H225 4411   7.786   1.694   1.241 -0.0993  0.2797 -1.0311
   14MOL   C226 4412   7.923   1.729   0.875 -0.1502 -0.0026 -0.2569
   14MOL   C227 4413   8.043   1.777   0.781 -0.7127  0.0603 -0.4425
   14MOL   C228 4414   0.050   1.683   0.791 -0.1534  0.1898  0.0754
   14MOL   C229 4415   0.039   1.541   0.771  0.1259 -0.4806 -0.0798
   14MOL   C230 4416   0.150   1.462   0.796 -0.2907 -0.0515 -0.1833
   14MOL   C231 4417   0.276   1.517   0.820  0.1487  0.2739  0.3368
   14MOL   C232 4418   0.285   1.656   0.834 -0.4535  0.6929 -0.0029
   14MOL   C233 4419   0.176   1.739   0.824 -0.4277 -0.0407 -0.2191
   14MOL   H234 4420   7.851   1.808   0.897 -0.5920 -0.6477  0.6439
   14MOL   H235 4421   7.848   1.661   0.834 -3.4591  0.5110  4.4729
   14MOL   H236 4422   8.074   1.877   0.810 -1.0912  0.3234 -0.9439
   14MOL   H237 4423   8.065   1.497   0.728 -0.3214  0.1504  0.1900
   14MOL   H238 4424   0.144   1.355   0.784  0.2550 -0.4656  2.8744
   14MOL   H239 4425   0.368   1.461   0.831  1.8073  2.8176 -0.1962
   14MOL   H240 4426   0.382   1.696   0.858 -1.0835  1.8745  0.6366
   14MOL   H241 4427   0.187   1.846   0.836  0.9140 -0.1268 -0.6164
   14MOL   C242 4428   7.998   1.793   0.633  0.0820  0.2621 -0.5578
   14MOL   C243 4429   8.030   1.932   0.570  0.8503 -0.0825 -0.1612
   14MOL   C244 4430   0.064   1.964   0.562 -0.2961 -0.0227  0.0193
   14MOL   C245 4431   0.114   2.082   0.626  0.8499 -0.3193  0.9156
   14MOL   C246 4432   0.253   2.111   0.626  0.3743 -0.2183  0.5008
   14MOL   C247 4433   0.345   2.018   0.568  0.4674 -0.5122  0.0162
   14MOL   C248 4434   0.295   1.895   0.515  0.2228  0.3207 -0.0432
   14MOL   C249 4435   0.155   1.872   0.505  0.0300 -0.1008  0.0024
   14MOL   H250 4436   7.891   1.773   0.624 -0.3940  2.5761 -0.3154
   14MOL   H251 4437   8.046   1.714   0.575  0.3050  0.3602 -0.5062
   14MOL   H252 4438   7.992   2.004   0.643 -0.9523 -2.9948  1.8605
   14MOL   H253 4439   0.047   2.149   0.677  0.5718 -0.2142  0.4171
   14MOL   H254 4440   0.294   2.204   0.662 -1.8398  0.4366  1.4375
   14MOL   H255 4441   0.451   2.037   0.558  0.3357  1.2441  1.7227
   14MOL   H256 4442   0.371   1.827   0.478 -0.0742 -0.3319  0.5285
   14MOL   H257 4443   0.116   1.778   0.469  0.0627  1.4396 -4.2916
   14MOL   C258 4444   7.965   1.938   0.436  0.1642  0.4271  0.1448
   14MOL   C259 4445   7.905   2.079   0.396 -0.7978  0.5160  0.0006
   14MOL   C260 4446   8.015   2.186   0.391  0.0115 -0.5932  0.1377
   14MOL   C261 4447   8.104   2.182   0.281  0.2605  0.4222  0.4632
   14MOL   C262 4448   0.085   2.285   0.266 -0.1580 -0.0456 -0.6866
   14MOL   C263 4449   0.098   2.389   0.356 -0.1278 -0.1853  0.1838
   14MOL   C264 4450   0.005   2.396   0.462  0.6352 -0.4634 -0.3932
   14MOL   C265 4451   8.020   2.300   0.476 -0.6851 -0.4473 -0.2615
   14MOL   H266 4452   7.871   1.883   0.431 -0.5426  1.7169 -1.5499
   14MOL   H267 4453   8.023   1.889   0.357  0.1173 -0.0419  0.3981
   14MOL   H268 4454   7.849   2.123   0.478  1.4169  1.0962  1.2529
   14MOL   H269 4455   8.085   2.105   0.208 -0.2139 -1.1587  2.2245
   14MOL   H270 4456   0.152   2.296   0.182  2.1312 -0.3892  1.0526
   14MOL   H271 4457   0.181   2.457   0.350  1.2212 -1.7160  1.1032
   14MOL   H272 4458   0.016   2.468   0.541 -1.9663  1.4574 -1.7044
   14MOL   H273 4459   7.956   2.312   0.563  1.1031  2.7131  0.6667
   14MOL   C274 4460   7.818   2.075   0.261  0.2327 -0.6540 -0.1903
   14MOL   C275 4461   7.660   2.067   0.282 -0.2108 -0.1507 -0.5267
   14MOL   C276 4462   7.609   2.180   0.365  0.5881  0.6907 -0.2562
   14MOL   C277 4463   7.610   2.307   0.315 -0.6567  0.4486 -0.8271
   14MOL   C278 4464   7.561   2.412   0.387  0.7308  0.0078 -0.5710
   14MOL   C279 4465   7.515   2.395   0.523 -0.7631 -0.2924  0.3946
   14MOL   C280 4466   7.528   2.268   0.583 -0.2242  0.0494 -0.3914
   14MOL   C281 4467   7.574   2.156   0.502 -0.0909 -0.1832 -0.4559
   14MOL   H282 4468   7.849   2.002   0.186 -0.7240 -0.2593 -0.9727
   14MOL   H283 4469   7.841   2.162   0.200 -2.1103 -1.4856 -2.3272
   14MOL   H284 4470   7.636   1.980   0.343  0.3689 -0.7301 -1.1125
   14MOL   H285 4471   7.650   2.318   0.215 -0.4717 -2.3134 -1.0939
   14MOL   H286 4472   7.563   2.510   0.342 -0.2659  1.5307  2.5867
   14MOL   H287 4473   7.476   2.481   0.574 -0.6893  0.2052 -0.3897
   14MOL   H288 4474   7.491   2.255   0.683 -1.3199  0.1816 -0.7780
   14MOL   H289 4475   7.559   2.059   0.547 -3.1982  0.4383  0.0161
   14MOL   C290 4476   7.569   2.041   0.156  0.0512  0.0945  0.1604
   14MOL   C291 4477   7.566   1.895   0.100 -0.9596 -0.4172 -0.0407
   14MOL   C292 4478   7.481   1.795   0.178  0.7732  1.0941 -0.3891
   14MOL   C293 4479   7.347   1.829   0.216 -0.0697 -0.2341  0.1265
   14MOL   C294 4480   7.273   1.736   0.285 -0.1298  0.2337 -0.4051
   14MOL   C295 4481   7.332   1.614   0.327  0.7662 -0.0774  0.2286
   14MOL   C296 4482   7.459   1.580   0.290  0.2716 -0.4139 -0.7721
   14MOL   C297 4483   7.534   1.669   0.212  0.4784 -0.6208  0.0685
   14MOL   H298 4484   7.612   2.109   0.082 -0.3521 -0.9817 -1.0900
   14MOL   H299 4485   7.471   2.083   0.178  0.7086  1.9915 -0.4180
   14MOL   H300 4486   7.668   1.860   0.110 -1.2003 -1.1946 -0.2697
   14MOL   H301 4487   7.312   1.929   0.196  0.4951 -0.2510 -0.9714
   14MOL   H302 4488   7.168   1.745   0.308 -0.4578 -1.2067 -1.3292
   14MOL   H303 4489   7.273   1.542   0.382 -1.6948  1.4341 -0.3827
   14MOL   H304 4490   7.498   1.485   0.325  0.4422  0.1814  0.7032
   14MOL   H305 4491   7.628   1.636   0.170  1.4812  1.1408  0.8681
   14MOL   C306 4492   7.542   1.894   8.059  0.2244  0.0389  0.1322
   14MOL   C307 4493   7.546   1.749   7.986  0.2358 -0.6942  0.1139
   14MOL   C308 4494   7.526   1.765   7.838  0.3069  0.1715 -0.0358
   14MOL   C309 4495   7.628   1.799   7.749  0.1833  0.3135  0.2189
   14MOL   C310 4496   7.603   1.803   7.614 -0.0236 -0.6169  0.8655
   14MOL   C311 4497   7.480   1.776   7.557  0.4974  0.5436 -0.2375
   14MOL   C312 4498   7.379   1.755   7.649  0.6834  0.7837 -0.1428
   14MOL   C313 4499   7.398   1.744   7.790  0.2253  0.4691  0.0101
   14MOL   H314 4500   7.628   1.943   8.014 -0.9433  0.8029 -1.3242
   14MOL   H315 4501   7.456   1.954   8.028 -0.1728 -0.8785 -0.5487
   14MOL   H316 4502   7.473   1.679   8.028  0.9131 -1.1742  0.4925
   14MOL   H317 4503   7.734   1.803   7.770  0.3838 -1.2472 -0.4391
   14MOL   H318 4504   7.685   1.820   7.547 -1.0327  0.1349 -0.1897
   14MOL   H319 4505   7.451   1.783   7.453 -0.2235 -0.5681 -0.1230
   14MOL   H320 4506   7.277   1.746   7.616  0.6201 -1.5032  0.6311
   14MOL   H321 4507   7.314   1.725   7.854  0.5504 -3.3502 -0.5872
   14MOL   H322 4508   7.646   1.718   8.015  0.1749 -0.9819  0.0128
   15MOL     C1 4509   5.912   2.778   1.209 -0.1621  0.8666 -0.4849
   15MOL     C2 4510   5.826   2.904   1.237  0.2260  0.5606  0.1328
   15MOL     C3 4511   5.690   2.887   1.280 -0.2605 -0.1228  0.0343
   15MOL     C4 4512   5.586   2.953   1.215  0.7336  0.1367  0.4486
   15MOL     C5 4513   5.452   2.920   1.241 -0.4326  0.3634 -0.9134
   15MOL     C6 4514   5.423   2.827   1.343  0.1297  0.3636 -0.1100
   15MOL     C7 4515   5.527   2.766   1.414  0.2435  0.0162 -0.1566
   15MOL     C8 4516   5.661   2.805   1.384 -0.4341  0.3883  0.0004
   15MOL     H9 4517   5.866   2.697   1.152  0.3281  0.2405  0.0040
   15MOL    H10 4518   6.000   2.790   1.147  0.3129  2.3824  0.4426
   15MOL    H11 4519   5.824   2.949   1.138 -0.1568 -2.5921 -1.3518
   15MOL    H12 4520   5.599   3.015   1.127 -2.2633 -0.7038 -0.6825
   15MOL    H13 4521   5.367   2.958   1.186 -1.7811  1.1002  1.6526
   15MOL    H14 4522   5.320   2.815   1.373  0.3336  0.1789  0.5209
   15MOL    H15 4523   5.510   2.692   1.491 -2.4500  0.4317 -0.3314
   15MOL    H16 4524   5.739   2.750   1.436  0.3436  0.6175 -0.9213
   15MOL    H17 4525   5.947   2.730   1.301  0.9919  0.3334 -1.1890
   15MOL    C18 4526   5.903   2.998   1.329  0.6980 -0.2268  0.3361
   15MOL    C19 4527   5.824   3.114   1.403 -0.4773  0.0635  0.4247
   15MOL    C20 4528   5.909   3.183   1.516 -0.2530 -0.3079  0.1888
   15MOL    C21 4529   6.047   3.195   1.508 -0.1420 -0.0866  0.1324
   15MOL    C22 4530   6.115   3.267   1.604 -0.4593 -0.4496  0.0346
   15MOL    C23 4531   6.050   3.318   1.719  0.2512  0.2797 -0.3747
   15MOL    C24 4532   5.910   3.300   1.732 -0.4486 -0.6895  0.0967
   15MOL    C25 4533   5.843   3.228   1.631  0.0996 -0.2090 -0.5629
   15MOL    H26 4534   5.985   3.031   1.265 -0.8206  0.9492 -1.0595
   15MOL    H27 4535   5.952   2.943   1.409  1.6666 -1.1924 -0.9235
   15MOL    H28 4536   5.732   3.073   1.444 -0.2574 -0.6929  0.1707
   15MOL    H29 4537   6.091   3.147   1.422  1.0377 -0.7663  1.1073
   15MOL    H30 4538   6.221   3.285   1.594 -0.4342 -1.3393 -1.3307
   15MOL    H31 4539   6.099   3.382   1.791  0.5555 -1.5508  1.0790
   15MOL    H32 4540   5.848   3.337   1.812  2.2289 -0.0042  1.9201
   15MOL    H33 4541   5.737   3.208   1.641  0.2286 -1.9875 -2.4025
   15MOL    C34 4542   5.776   3.223   1.311  0.0416 -0.5212  0.4521
   15MOL    C35 4543   5.870   3.324   1.247 -0.1725  0.4223  0.5276
   15MOL    C36 4544   5.975   3.259   1.155 -0.5116 -0.0568  0.3795
   15MOL    C37 4545   6.112   3.260   1.194 -0.6809 -0.4757 -0.9524
   15MOL    C38 4546   6.203   3.182   1.116  1.1977 -0.2439 -0.7365
   15MOL    C39 4547   6.163   3.107   1.008  0.2016 -0.0752  0.0078
   15MOL    C40 4548   6.033   3.107   0.965 -0.0854 -0.4387  0.0460
   15MOL    C41 4549   5.940   3.185   1.039 -0.3499  0.6880 -0.6688
   15MOL    H42 4550   5.704   3.284   1.365  0.6912  1.6167 -1.0218
   15MOL    H43 4551   5.721   3.177   1.229  0.0473 -0.4774  0.4231
   15MOL    H44 4552   5.917   3.388   1.322 -0.8083 -0.9307  2.1244
   15MOL    H45 4553   6.149   3.314   1.279  3.1427 -1.9994 -1.5613
   15MOL    H46 4554   6.307   3.182   1.147  0.5423  0.1187  1.5823
   15MOL    H47 4555   6.234   3.050   0.951  1.4993 -0.6772  2.1681
   15MOL    H48 4556   5.996   3.059   0.876 -0.5457 -0.0862  0.0412
   15MOL    H49 4557   5.834   3.187   1.015 -0.1435 -1.5550 -1.9509
   15MOL    C50 4558   5.786   3.433   1.178  0.3496 -0.2826 -0.4435
   15MOL    C51 4559   5.665   3.504   1.252 -0.1125  0.5231 -0.5933
   15MOL    C52 4560   5.705   3.578   1.376  0.0801  0.4080 -0.4867
   15MOL    C53 4561   5.637   3.555   1.498  0.0085  0.2480  1.1904
   15MOL    C54 4562   5.686   3.616   1.611  0.4112  0.0163 -0.0174
   15MOL    C55 4563   5.787   3.715   1.604 -0.6647  0.3922  0.2679
   15MOL    C56 4564   5.857   3.737   1.483  0.5835  0.3556  0.3092
   15MOL    C57 4565   5.818   3.662   1.372  0.1838 -0.4930  0.2456
   15MOL    H58 4566   5.750   3.391   1.085 -1.3361  2.0039 -0.8795
   15MOL    H59 4567   5.857   3.510   1.147 -0.2200 -0.6532 -2.7565
   15MOL    H60 4568   5.590   3.430   1.283  0.4864 -0.7448 -2.1269
   15MOL    H61 4569   5.548   3.495   1.510  0.2363 -0.0140  1.5934
   15MOL    H62 4570   5.637   3.593   1.704 -0.6950  0.2712 -0.5195
   15MOL    H63 4571   5.829   3.760   1.692  1.5711 -1.9755  0.4596
   15MOL    H64 4572   5.936   3.811   1.475  1.6925 -0.7571  0.7857
   15MOL    H65 4573   5.865   3.683   1.277 -0.5041 -1.6692 -0.3673
   15MOL    C66 4574   5.582   3.583   1.150 -0.7005  0.5089  0.5822
   15MOL    C67 4575   5.452   3.637   1.195 -0.0576  0.0087 -0.2648
   15MOL    C68 4576   5.434   3.784   1.148 -0.8350 -0.0010  0.3749
   15MOL    C69 4577   5.403   3.890   1.239  0.4322 -0.6292 -0.9547
   15MOL    C70 4578   5.403   4.024   1.193  0.2104  0.2534  0.3284
   15MOL    C71 4579   5.411   4.052   1.055 -0.5086  0.0841  0.8506
   15MOL    C72 4580   5.438   3.949   0.965 -0.0793  0.4737  0.2996
   15MOL    C73 4581   5.457   3.815   1.010  0.5421  0.1463 -0.0500
   15MOL    H74 4582   5.566   3.519   1.064 -0.9228  2.8373 -1.1649
   15MOL    H75 4583   5.648   3.664   1.118 -0.5212  0.5958  1.1544
   15MOL    H76 4584   5.445   3.646   1.303  0.8745 -0.3623 -0.1688
   15MOL    H77 4585   5.393   3.868   1.344  2.2369  1.8155 -0.2259
   15MOL    H78 4586   5.386   4.105   1.262  1.7890  1.7008 -0.9301
   15MOL    H79 4587   5.419   4.152   1.014 -0.3729 -1.1796 -2.3577
   15MOL    H80 4588   5.460   3.964   0.860  0.1163  1.3600  0.4625
   15MOL    H81 4589   5.495   3.747   0.935 -2.0196 -0.1172 -1.1451
   15MOL    C82 4590   5.331   3.554   1.139 -0.0540 -0.4962 -0.0299
   15MOL    C83 4591   5.325   3.408   1.182  0.3960  0.2027  0.3221
   15MOL    C84 4592   5.333   3.385   1.336 -0.2325  0.0676  0.2958
   15MOL    C85 4593   5.396   3.270   1.389  0.0123 -0.0156  0.1587
   15MOL    C86 4594   5.398   3.240   1.523 -0.1735 -0.0645  0.5245
   15MOL    C87 4595   5.345   3.336   1.619 -0.3826 -0.8286 -0.0863
   15MOL    C88 4596   5.290   3.454   1.570 -0.5645 -0.2972 -0.1884
   15MOL    C89 4597   5.274   3.478   1.430  0.0239  0.6603  0.6353
   15MOL    H90 4598   5.321   3.554   1.030 -0.6783 -3.4499 -0.0000
   15MOL    H91 4599   5.237   3.600   1.169 -0.5431 -1.0608 -0.6852
   15MOL    H92 4600   5.410   3.354   1.139  0.8197 -1.2178  2.8570
   15MOL    H93 4601   5.447   3.203   1.323  1.6027  1.8372 -0.5355
   15MOL    H94 4602   5.448   3.149   1.554 -1.0087 -0.3678  0.9901
   15MOL    H95 4603   5.350   3.321   1.726  0.0748  0.2332  0.0495
   15MOL    H96 4604   5.246   3.526   1.637 -0.8107  1.3990 -2.1167
   15MOL    H97 4605   5.223   3.568   1.399  0.5831  0.4791 -0.8302
   15MOL    C98 4606   5.196   3.335   1.138  0.2121 -0.3140  0.2817
   15MOL    C99 4607   5.151   3.339   0.991 -0.0724  0.3779  0.2966
   15MOL   C100 4608   5.264   3.335   0.884 -0.1546  0.2267 -0.4095
   15MOL   C101 4609   5.279   3.437   0.789 -0.3510 -0.2615 -0.3676
   15MOL   C102 4610   5.381   3.445   0.694 -0.0835  0.1849 -0.0758
   15MOL   C103 4611   5.481   3.343   0.690  0.8618 -0.4276  0.0723
   15MOL   C104 4612   5.469   3.239   0.784  1.0166  0.3011  0.2713
   15MOL   C105 4613   5.358   3.234   0.876 -0.2316  0.2614 -0.8360
   15MOL   H106 4614   5.114   3.368   1.202  1.9668  0.0903  2.3923
   15MOL   H107 4615   5.204   3.229   1.162  2.1490 -0.5634 -1.2798
   15MOL   H108 4616   5.087   3.424   0.974  0.7720  0.8910 -0.3708
   15MOL   H109 4617   5.207   3.515   0.807 -0.7675 -1.0595  1.5634
   15MOL   H110 4618   5.384   3.537   0.638  1.1902  0.6876  0.8013
   15MOL   H111 4619   5.555   3.349   0.612 -0.3226 -0.2666 -1.0613
   15MOL   H112 4620   5.539   3.156   0.775 -0.0504 -0.6345  0.4599
   15MOL   H113 4621   5.357   3.149   0.943 -1.4111  1.2194  0.3666
   15MOL   C114 4622   5.056   3.216   0.965 -0.1113  0.6187 -0.5126
   15MOL   C115 4623   4.934   3.200   1.057  0.1366 -0.6968 -0.2238
   15MOL   C116 4624   4.836   3.310   1.040  0.6799 -0.3523  0.2499
   15MOL   C117 4625   4.773   3.331   0.911  0.8187  0.3582  0.0860
   15MOL   C118 4626   4.699   3.448   0.892 -0.0120  0.4912  0.0243
   15MOL   C119 4627   4.681   3.538   1.001  0.7038  0.5777 -0.4721
   15MOL   C120 4628   4.720   3.508   1.133 -0.2472  0.4465  0.1923
   15MOL   C121 4629   4.797   3.391   1.150 -0.4260 -0.3469  0.1400
   15MOL   H122 4630   5.110   3.122   0.976 -0.7369  0.3364  0.1819
   15MOL   H123 4631   5.033   3.231   0.860  0.5479 -1.4152 -0.9701
   15MOL   H124 4632   4.964   3.197   1.162 -1.3471 -1.0284  0.1980
   15MOL   H125 4633   4.788   3.263   0.829  3.5909  0.2683  0.6171
   15MOL   H126 4634   4.646   3.477   0.802 -1.0780 -0.2404  0.4096
   15MOL   H127 4635   4.612   3.620   0.984 -1.4681 -1.3304 -1.0846
   15MOL   H128 4636   4.691   3.566   1.219 -0.6055  1.6045 -0.6968
   15MOL   H129 4637   4.833   3.365   1.249  0.8697  1.7721  0.2533
   15MOL   C130 4638   4.867   3.062   1.017  0.0735 -0.1192  0.0519
   15MOL   C131 4639   4.920   2.927   1.082  0.1565  0.9974  0.5013
   15MOL   C132 4640   4.922   2.944   1.233  1.0490  0.8016 -0.0187
   15MOL   C133 4641   4.795   2.941   1.302 -0.3911 -0.5232 -0.0160
   15MOL   C134 4642   4.800   2.937   1.445 -0.0573  0.1106 -0.5492
   15MOL   C135 4643   4.926   2.947   1.512 -0.6864 -0.0534 -0.4627
   15MOL   C136 4644   5.046   2.952   1.438 -0.8484 -0.2788  0.0423
   15MOL   C137 4645   5.044   2.948   1.299 -0.0994  0.3025 -0.3980
   15MOL   H138 4646   4.861   3.053   0.908 -0.2659  1.9881 -0.1296
   15MOL   H139 4647   4.766   3.081   1.053  0.5683  2.2521  0.2970
   15MOL   H140 4648   5.021   2.918   1.040 -0.4087 -0.0735 -0.6650
   15MOL   H141 4649   4.699   2.940   1.253  0.6713 -1.7065 -2.1355
   15MOL   H142 4650   4.724   2.945   1.521  1.1893  1.2200  0.6143
   15MOL   H143 4651   4.936   2.942   1.619  0.2453  0.1755 -0.5384
   15MOL   H144 4652   5.141   2.951   1.489  0.7726 -0.0349 -2.8964
   15MOL   H145 4653   5.138   2.954   1.247  0.2520  1.9532  0.4043
   15MOL   C146 4654   4.839   2.804   1.031  0.1980  0.4018 -0.4490
   15MOL   C147 4655   4.875   2.662   1.089 -0.4769 -0.7676 -0.1303
   15MOL   C148 4656   4.792   2.552   1.014 -0.8367 -0.4362  0.0753
   15MOL   C149 4657   4.719   2.455   1.090  0.3301 -0.0026 -0.2788
   15MOL   C150 4658   4.651   2.351   1.028 -0.1599 -0.2505 -0.0665
   15MOL   C151 4659   4.653   2.345   0.884  0.5574  0.0154  0.3430
   15MOL   C152 4660   4.721   2.443   0.805 -0.7020 -0.7940  0.5949
   15MOL   C153 4661   4.794   2.545   0.874  0.4449  0.4065 -0.1754
   15MOL   H154 4662   4.831   2.815   0.923 -0.1161  0.8849 -0.3826
   15MOL   H155 4663   4.738   2.829   1.063  0.1948  2.3857 -1.9083
   15MOL   H156 4664   4.852   2.665   1.195  4.2346 -1.1708  1.0100
   15MOL   H157 4665   4.721   2.456   1.198  0.2054  0.1052 -0.2778
   15MOL   H158 4666   4.600   2.268   1.075  2.4331 -0.8169  1.8538
   15MOL   H159 4667   4.595   2.264   0.843  0.2186 -0.0947  1.0265
   15MOL   H160 4668   4.725   2.444   0.697  1.4585 -1.0291  0.6387
   15MOL   H161 4669   4.843   2.624   0.819  1.2757  1.9330  2.6505
   15MOL   C162 4670   5.033   2.645   1.083 -0.1454  0.2702  0.3273
   15MOL   C163 4671   5.082   2.495   1.104  0.0194  0.1101 -0.5652
   15MOL   C164 4672   5.217   2.481   1.034 -0.2050  0.3214 -0.2183
   15MOL   C165 4673   5.327   2.554   1.080 -0.1811 -0.5596  0.4093
   15MOL   C166 4674   5.450   2.553   1.014 -0.2129 -0.2546 -0.1404
   15MOL   C167 4675   5.457   2.487   0.895  0.6656 -0.1036  0.6125
   15MOL   C168 4676   5.349   2.423   0.836 -0.6608 -1.1642  0.4945
   15MOL   C169 4677   5.228   2.408   0.910  0.0990 -0.1112 -0.4034
   15MOL   H170 4678   5.094   2.709   1.146 -0.8219  1.3834 -0.1227
   15MOL   H171 4679   5.069   2.680   0.986  2.1161 -2.1824  0.2373
   15MOL   H172 4680   5.015   2.427   1.050 -0.1727 -0.7224  0.7176
   15MOL   H173 4681   5.324   2.603   1.176 -0.4661 -1.8608  1.0745
   15MOL   H174 4682   5.525   2.621   1.053  1.3178 -2.5419  1.0036
   15MOL   H175 4683   5.541   2.484   0.827 -0.1378  0.9949 -0.4560
   15MOL   H176 4684   5.366   2.381   0.738 -2.8050  1.4620 -1.0510
   15MOL   H177 4685   5.147   2.352   0.866 -0.3939 -0.3294  0.7611
   15MOL   C178 4686   5.093   2.458   1.252  0.3131 -0.2399 -0.1589
   15MOL   C179 4687   5.122   2.313   1.273 -0.4511 -0.2494  0.7594
   15MOL   C180 4688   5.186   2.290   1.409  0.5041 -0.0346  0.0447
   15MOL   C181 4689   5.107   2.264   1.520 -0.3221  0.7739  0.9343
   15MOL   C182 4690   5.164   2.248   1.647  0.4788  1.0516 -0.2493
   15MOL   C183 4691   5.307   2.253   1.665 -0.1269 -0.1083 -0.1496
   15MOL   C184 4692   5.386   2.280   1.549 -0.0623  0.2583 -0.7270
   15MOL   C185 4693   5.328   2.306   1.425 -0.1753 -0.8393  0.7324
   15MOL   H186 4694   5.008   2.489   1.312 -0.6084 -1.3166 -0.8731
   15MOL   H187 4695   5.169   2.518   1.301 -1.7463  1.5926  0.8689
   15MOL   H188 4696   5.190   2.286   1.191  0.2952 -1.9354  1.9091
   15MOL   H189 4697   5.000   2.274   1.529 -0.7076 -0.9129 -1.4457
   15MOL   H190 4698   5.106   2.248   1.738 -1.0162  3.0235 -1.1498
   15MOL   H191 4699   5.354   2.236   1.761 -0.9156  2.0635  0.6573
   15MOL   H192 4700   5.494   2.283   1.556 -0.0792 -2.6270  2.1955
   15MOL   H193 4701   5.400   2.332   1.348  1.5868 -2.7789  1.6772
   15MOL   C194 4702   4.994   2.223   1.252 -0.0810 -0.3551 -0.0850
   15MOL   C195 4703   5.028   2.078   1.207  0.9297 -0.2438  0.2873
   15MOL   C196 4704   4.894   1.992   1.220 -0.3551  0.0971 -0.1160
   15MOL   C197 4705   4.866   1.914   1.334  0.1720 -0.4264  0.3164
   15MOL   C198 4706   4.743   1.842   1.347  0.1387  0.3244  0.4725
   15MOL   C199 4707   4.639   1.850   1.249 -0.0760 -0.2105  0.3739
   15MOL   C200 4708   4.666   1.936   1.142  0.1412 -0.1774 -0.1008
   15MOL   C201 4709   4.787   2.005   1.118 -0.6270  0.6324 -0.2311
   15MOL   H202 4710   4.933   2.277   1.180  0.0555  0.0163  0.0758
   15MOL   H203 4711   4.935   2.214   1.343  0.9132 -0.4849  0.5607
   15MOL   H204 4712   5.104   2.032   1.271  1.5727  0.1575 -0.1837
   15MOL   H205 4713   4.943   1.889   1.405 -0.3042 -0.0922  0.9563
   15MOL   H206 4714   4.738   1.777   1.433  1.4284  0.2002  0.4562
   15MOL   H207 4715   4.548   1.791   1.248 -0.3263  0.1516 -1.4994
   15MOL   H208 4716   4.589   1.947   1.067  1.5010  1.1506 -1.3289
   15MOL   H209 4717   4.783   2.064   1.028 -0.4697  0.8524 -0.0948
   15MOL   C210 4718   5.074   2.076   1.056  0.2097  0.4435 -0.8714
   15MOL   C211 4719   5.089   1.937   0.994 -0.1073  0.4786 -0.0581
   15MOL   C212 4720   5.139   1.941   0.847  0.0724  0.2067 -0.0418
   15MOL   C213 4721   5.270   1.977   0.812 -0.3404  0.0261 -0.1982
   15MOL   C214 4722   5.315   1.995   0.680  0.1915  0.4740 -0.1286
   15MOL   C215 4723   5.225   1.981   0.571 -0.6545  0.0890  0.1274
   15MOL   C216 4724   5.094   1.936   0.602 -0.6915 -0.8564  0.2998
   15MOL   C217 4725   5.053   1.916   0.735  0.1855  0.3104  0.3496
   15MOL   H218 4726   5.174   2.121   1.056  0.7314 -0.6476  0.9619
   15MOL   H219 4727   5.009   2.137   0.993  0.2409  1.8149  0.4176
   15MOL   H220 4728   4.992   1.890   0.979 -0.6537  1.2103  1.1706
   15MOL   H221 4729   5.336   2.002   0.894 -0.1659  4.9101 -1.6724
   15MOL   H222 4730   5.416   2.026   0.656  0.7211  0.0599  1.5276
   15MOL   H223 4731   5.266   2.010   0.475  0.3240 -1.7782 -0.0617
   15MOL   H224 4732   5.019   1.921   0.526 -0.0506  1.4599 -0.8135
   15MOL   H225 4733   4.949   1.888   0.746  0.4147 -0.9384 -0.5229
   15MOL   C226 4734   5.170   1.833   1.069  0.3082 -0.9901  0.6622
   15MOL   C227 4735   5.116   1.689   1.072 -0.3401  0.4979 -0.0295
   15MOL   C228 4736   5.123   1.627   0.929 -0.6319  0.3248 -0.4513
   15MOL   C229 4737   5.248   1.621   0.863  0.5839 -0.8140 -0.4319
   15MOL   C230 4738   5.255   1.592   0.725  0.6271 -0.4666 -1.9925
   15MOL   C231 4739   5.138   1.572   0.651  0.2483  0.3903 -0.1518
   15MOL   C232 4740   5.017   1.560   0.728 -0.1205 -0.5513  0.2117
   15MOL   C233 4741   5.011   1.584   0.862 -0.7935  0.0905  0.0442
   15MOL   H234 4742   5.164   1.869   1.172 -1.8262 -0.3027  0.3268
   15MOL   H235 4743   5.277   1.850   1.055  0.2577 -0.4111  0.9440
   15MOL   H236 4744   5.013   1.698   1.106 -0.1339  3.4483 -0.0452
   15MOL   H237 4745   5.335   1.644   0.923  0.4571  0.5186 -0.7291
   15MOL   H238 4746   5.354   1.578   0.684  0.4170 -1.0787 -2.2923
   15MOL   H239 4747   5.129   1.559   0.544  0.7094  0.6586 -0.2224
   15MOL   H240 4748   4.921   1.537   0.684 -0.1702  1.9191 -1.0985
   15MOL   H241 4749   4.914   1.582   0.910 -0.6967  0.3437  0.2499
   15MOL   C242 4750   5.199   1.598   1.169 -0.6762 -0.4736 -0.2553
   15MOL   C243 4751   5.113   1.541   1.292 -0.0329  0.0962  0.1651
   15MOL   C244 4752   5.020   1.431   1.251 -0.1227 -0.2025 -0.0704
   15MOL   C245 4753   5.073   1.301   1.223 -0.2540 -0.7200  0.4435
   15MOL   C246 4754   4.985   1.195   1.200 -0.3912  0.2669  0.0296
   15MOL   C247 4755   4.847   1.210   1.203 -0.5368  0.4022 -0.1040
   15MOL   C248 4756   4.798   1.336   1.220  0.5139 -0.1487 -0.6025
   15MOL   C249 4757   4.880   1.444   1.238 -0.6980  0.0646 -0.2004
   15MOL   H250 4758   5.269   1.664   1.221 -1.6286 -1.1258  1.9310
   15MOL   H251 4759   5.252   1.519   1.117  0.3564 -0.0213  0.0975
   15MOL   H252 4760   5.048   1.624   1.319  0.3631  0.3585  0.3164
   15MOL   H253 4761   5.176   1.277   1.247 -0.4999 -0.2077  2.0587
   15MOL   H254 4762   5.036   1.101   1.189  1.3124  1.4185 -2.4849
   15MOL   H255 4763   4.776   1.132   1.178  0.7051 -0.6405 -0.4366
   15MOL   H256 4764   4.691   1.348   1.223  0.3904 -1.4964  1.0868
   15MOL   H257 4765   4.833   1.532   1.281 -0.6459 -1.0616  2.2289
   15MOL   C258 4766   5.194   1.471   1.408  0.7574  0.3360 -0.5814
   15MOL   C259 4767   5.238   1.555   1.532  0.3486  0.4929 -0.1132
   15MOL   C260 4768   5.119   1.619   1.606 -0.2665 -0.1465 -0.3877
   15MOL   C261 4769   5.044   1.544   1.701  0.2083 -0.0190 -0.0655
   15MOL   C262 4770   4.936   1.597   1.766 -0.0135  0.2687  0.4466
   15MOL   C263 4771   4.905   1.738   1.747 -0.9852  0.0423 -0.6700
   15MOL   C264 4772   4.983   1.816   1.656 -1.0088  1.0254  0.9437
   15MOL   C265 4773   5.085   1.756   1.586 -0.0705 -0.1614 -0.5997
   15MOL   H266 4774   5.281   1.421   1.364  1.2526 -0.4903  1.2821
   15MOL   H267 4775   5.130   1.396   1.454  2.2652 -0.2313  0.6392
   15MOL   H268 4776   5.290   1.642   1.492 -3.1942  1.4049 -3.0701
   15MOL   H269 4777   5.075   1.446   1.734 -1.4897 -0.3292  0.6826
   15MOL   H270 4778   4.890   1.537   1.844 -0.9238 -1.7571 -1.6121
   15MOL   H271 4779   4.816   1.773   1.798 -0.3453 -1.1780  1.3139
   15MOL   H272 4780   4.962   1.921   1.645  0.6529  1.2857  0.0579
   15MOL   H273 4781   5.128   1.813   1.505  0.4651 -0.1496 -0.3143
   15MOL   C274 4782   5.336   1.471   1.627  0.4130 -0.2619 -0.1080
   15MOL   C275 4783   5.415   1.553   1.727 -0.0112  0.0176  0.4219
   15MOL   C276 4784   5.460   1.463   1.845 -0.0422 -0.0548 -0.1597
   15MOL   C277 4785   5.423   1.500   1.975 -0.2169  0.2877  0.0393
   15MOL   C278 4786   5.473   1.430   2.085 -0.8104 -0.1176  0.2488
   15MOL   C279 4787   5.555   1.320   2.070  0.1207 -0.4157  0.2273
   15MOL   C280 4788   5.580   1.272   1.939  0.6291  0.3649 -0.3867
   15MOL   C281 4789   5.532   1.343   1.826 -0.5002 -0.4086  0.1032
   15MOL   H282 4790   5.409   1.416   1.567 -0.0721  0.9929 -1.8829
   15MOL   H283 4791   5.291   1.388   1.681  0.1018  0.8973  1.4583
   15MOL   H284 4792   5.354   1.627   1.777  3.0539  0.9002  3.0261
   15MOL   H285 4793   5.351   1.580   1.984 -0.3686 -0.0439  1.9171
   15MOL   H286 4794   5.427   1.441   2.182 -1.0830 -3.4739  0.5896
   15MOL   H287 4795   5.568   1.250   2.152  0.8942 -3.0054 -2.0172
   15MOL   H288 4796   5.631   1.178   1.925 -0.1668 -0.1700  0.2362
   15MOL   H289 4797   5.558   1.321   1.724  0.3122 -3.0267  0.8273
   15MOL   C290 4798   5.541   1.615   1.663  0.8966  0.6736 -0.5329
   15MOL   C291 4799   5.595   1.747   1.728 -0.3068 -0.3255  0.1564
   15MOL   C292 4800   5.747   1.757   1.728  0.2816 -0.3893  0.4149
   15MOL   C293 4801   5.812   1.776   1.851  0.5092  0.0147 -0.6999
   15MOL   C294 4802   5.951   1.792   1.860  0.2444 -0.3774  0.6368
   15MOL   C295 4803   6.025   1.763   1.751 -0.3715  0.3070  0.1235
   15MOL   C296 4804   5.957   1.742   1.625 -0.2464 -0.1461 -0.4517
   15MOL   C297 4805   5.819   1.753   1.612  0.5709  0.4206 -0.2479
   15MOL   H298 4806   5.529   1.635   1.557  3.3980 -3.2708 -1.6723
   15MOL   H299 4807   5.625   1.548   1.647 -1.5988 -2.4474 -1.0267
   15MOL   H300 4808   5.571   1.758   1.834  1.0688  1.5002  0.2997
   15MOL   H301 4809   5.757   1.793   1.942  1.3794  0.7995 -0.3124
   15MOL   H302 4810   5.998   1.807   1.956  1.1532 -0.1797  0.1689
   15MOL   H303 4811   6.133   1.763   1.751 -0.3162  2.7479 -1.7989
   15MOL   H304 4812   6.020   1.727   1.539  0.4114  0.8919 -0.1615
   15MOL   H305 4813   5.769   1.731   1.519  1.0501 -1.1298 -0.1602
   15MOL   C306 4814   5.530   1.872   1.672 -0.5152 -0.3510 -0.3883
   15MOL   C307 4815   5.380   1.892   1.700 -0.7010  0.8348 -0.4428
   15MOL   C308 4816   5.360   1.905   1.855  0.4778 -0.1371 -0.2075
   15MOL   C309 4817   5.431   1.997   1.937 -0.9172  0.5954 -0.0596
   15MOL   C310 4818   5.402   2.014   2.071  0.2461 -0.7199  0.1089
   15MOL   C311 4819   5.296   1.936   2.130 -0.1062 -0.2645  0.6849
   15MOL   C312 4820   5.215   1.855   2.049 -0.0499  0.5119 -0.5312
   15MOL   C313 4821   5.250   1.840   1.911 -0.1954  0.3014  0.0445
   15MOL   H314 4822   5.554   1.868   1.566  0.8361 -1.8940 -0.0382
   15MOL   H315 4823   5.593   1.952   1.710 -2.6654  1.4959 -0.5790
   15MOL   H316 4824   5.330   1.805   1.658 -1.7170  1.3288 -0.2787
   15MOL   H317 4825   5.511   2.056   1.897 -0.7687 -0.3721 -1.1990
   15MOL   H318 4826   5.468   2.071   2.135 -0.3730 -1.5350  1.5181
   15MOL   H319 4827   5.280   1.954   2.235 -2.4197  0.8579  0.1811
   15MOL   H320 4828   5.133   1.794   2.082  0.1502 -0.0380 -1.0469
   15MOL   H321 4829   5.187   1.774   1.854 -0.6949  2.0929 -1.5481
   15MOL   H322 4830   5.343   1.984   1.655  0.0404  2.0775  1.4134
   16MOL     C1 4831   6.748   3.434   7.264  0.1792  0.5621  0.8794
   16MOL     C2 4832   6.835   3.385   7.384  0.6129  0.1588  0.1584
   16MOL     C3 4833   6.795   3.473   7.501 -0.4753 -0.9283  0.2881
   16MOL     C4 4834   6.673   3.447   7.569 -0.0403  0.3065  0.6043
   16MOL     C5 4835   6.629   3.546   7.662  0.1856 -0.0238 -0.2317
   16MOL     C6 4836   6.706   3.654   7.699  0.2626 -0.0084  0.1146
   16MOL     C7 4837   6.820   3.686   7.619 -0.4244 -0.7409  0.4183
   16MOL     C8 4838   6.858   3.598   7.516 -0.2454  0.0119 -0.1916
   16MOL     H9 4839   6.746   3.543   7.267  1.3195  0.5903  0.6226
   16MOL    H10 4840   6.771   3.396   7.165  2.5269 -1.6175  2.2136
   16MOL    H11 4841   6.942   3.401   7.368  0.4234  1.9942  0.6382
   16MOL    H12 4842   6.611   3.361   7.552  0.1151 -0.1655  2.3732
   16MOL    H13 4843   6.536   3.531   7.714  0.9686 -0.7858  0.9901
   16MOL    H14 4844   6.664   3.722   7.771 -2.1100  0.3185 -1.5122
   16MOL    H15 4845   6.870   3.781   7.622 -1.2264 -0.2934 -0.1622
   16MOL    H16 4846   6.941   3.630   7.455  0.7262  1.3397  1.7754
   16MOL    H17 4847   6.644   3.408   7.284  0.7289 -2.7806 -0.3856
   16MOL    C18 4848   6.803   3.235   7.416  0.2772  0.2759 -0.6107
   16MOL    C19 4849   6.826   3.137   7.295 -0.1177  0.4435 -0.5756
   16MOL    C20 4850   6.966   3.141   7.241  0.3752  0.6567 -0.1223
   16MOL    C21 4851   6.977   3.152   7.102 -0.1818  0.4330  0.2696
   16MOL    C22 4852   7.101   3.164   7.041  0.4747  1.5895 -0.2238
   16MOL    C23 4853   7.216   3.151   7.123  0.0617  0.0392 -0.1596
   16MOL    C24 4854   7.210   3.127   7.257 -0.2379 -0.1695 -1.0358
   16MOL    C25 4855   7.083   3.119   7.319 -0.4548 -0.7893  0.0774
   16MOL    H26 4856   6.696   3.220   7.424  0.2137  1.0157 -0.0046
   16MOL    H27 4857   6.854   3.207   7.508 -1.7636 -1.6285 -0.0120
   16MOL    H28 4858   6.763   3.168   7.211 -0.1924  0.4992 -0.4979
   16MOL    H29 4859   6.891   3.161   7.038 -2.2068 -1.2234  2.6286
   16MOL    H30 4860   7.112   3.194   6.937  2.5049  0.5116 -0.3480
   16MOL    H31 4861   7.309   3.156   7.068  0.0149 -0.4475 -0.2924
   16MOL    H32 4862   7.298   3.105   7.316 -1.8070 -1.0332  1.0542
   16MOL    H33 4863   7.072   3.115   7.426 -1.9696  0.7312  0.0243
   16MOL    C34 4864   6.776   2.993   7.316 -0.6456  0.3808 -0.5251
   16MOL    C35 4865   6.626   2.963   7.328  0.0102  0.1208  0.0335
   16MOL    C36 4866   6.550   3.019   7.210  0.6788 -0.0596  0.4250
   16MOL    C37 4867   6.456   3.120   7.241 -0.6022  0.1704  0.3870
   16MOL    C38 4868   6.397   3.201   7.138 -0.1035  0.2471 -0.1822
   16MOL    C39 4869   6.442   3.182   7.002  0.3717 -0.0557  0.3656
   16MOL    C40 4870   6.524   3.068   6.976 -0.4371 -0.1695 -0.1388
   16MOL    C41 4871   6.578   2.988   7.078  0.0640  0.9430 -0.2093
   16MOL    H42 4872   6.825   2.941   7.398 -0.0134 -1.7606 -2.2016
   16MOL    H43 4873   6.811   2.945   7.224 -1.5176  1.7009 -1.5634
   16MOL    H44 4874   6.605   3.014   7.422 -0.8561 -1.7635  0.9047
   16MOL    H45 4875   6.442   3.153   7.343  0.2652  3.1713 -0.4221
   16MOL    H46 4876   6.325   3.275   7.170 -1.1538 -2.2193  3.5392
   16MOL    H47 4877   6.420   3.248   6.920 -0.4503 -3.4734 -2.2623
   16MOL    H48 4878   6.555   3.053   6.874 -0.1822  0.7740 -0.2043
   16MOL    H49 4879   6.644   2.908   7.048  2.0625  2.8068 -0.8847
   16MOL    C50 4880   6.593   2.813   7.352 -0.1178 -0.7261 -0.0636
   16MOL    C51 4881   6.443   2.773   7.364 -0.7278 -0.2815 -0.3927
   16MOL    C52 4882   6.425   2.623   7.371 -0.0174 -0.0807  0.3053
   16MOL    C53 4883   6.336   2.555   7.279  0.2262  0.1701  0.2857
   16MOL    C54 4884   6.333   2.415   7.274  0.6662 -0.4856  0.4761
   16MOL    C55 4885   6.402   2.335   7.369 -0.0542  0.1034  0.2596
   16MOL    C56 4886   6.484   2.404   7.465 -0.2065  0.3487  0.9155
   16MOL    C57 4887   6.498   2.546   7.465  0.5038 -0.5648 -0.4172
   16MOL    H58 4888   6.647   2.785   7.443  0.2731  0.1886 -0.0110
   16MOL    H59 4889   6.649   2.749   7.284  0.3350 -0.4878  0.0821
   16MOL    H60 4890   6.395   2.807   7.272  0.5785  1.7045 -0.3636
   16MOL    H61 4891   6.279   2.607   7.204 -0.0559 -2.4040 -1.3216
   16MOL    H62 4892   6.272   2.369   7.198  0.9104  1.2164 -0.7690
   16MOL    H63 4893   6.393   2.228   7.360 -1.6999  0.2064  0.5592
   16MOL    H64 4894   6.546   2.353   7.537  0.4904  0.1949  0.2095
   16MOL    H65 4895   6.571   2.587   7.533 -0.6051  1.1791 -0.2362
   16MOL    C66 4896   6.376   2.854   7.475  0.0051 -0.2238  0.8421
   16MOL    C67 4897   6.245   2.793   7.534 -0.6348 -0.5028  0.4004
   16MOL    C68 4898   6.270   2.685   7.634 -0.0992  0.1328  0.7727
   16MOL    C69 4899   6.346   2.697   7.750  0.2187 -0.0634 -0.3200
   16MOL    C70 4900   6.357   2.584   7.831 -0.4342  1.4126 -0.2630
   16MOL    C71 4901   6.297   2.457   7.806 -0.4723  0.1492 -0.4173
   16MOL    C72 4902   6.221   2.454   7.689 -0.7220 -0.0338 -0.5693
   16MOL    C73 4903   6.204   2.560   7.599 -0.6137 -0.7905 -0.1898
   16MOL    H74 4904   6.363   2.957   7.444  0.7542 -0.9177 -1.9829
   16MOL    H75 4905   6.434   2.859   7.567 -0.6383  1.3142  1.1700
   16MOL    H76 4906   6.186   2.757   7.449  0.7024  0.0257 -0.7863
   16MOL    H77 4907   6.396   2.787   7.784 -1.3296  0.3670  0.8449
   16MOL    H78 4908   6.419   2.597   7.919  0.1141 -2.4615  0.0056
   16MOL    H79 4909   6.311   2.373   7.872  0.0177 -0.9125 -1.8742
   16MOL    H80 4910   6.168   2.363   7.667 -1.6381 -0.0886  1.7343
   16MOL    H81 4911   6.152   2.542   7.506 -0.2193  0.1012 -0.5922
   16MOL    C82 4912   6.169   2.907   7.607 -0.3503  0.0523 -0.2938
   16MOL    C83 4913   6.028   2.873   7.663  0.1419 -0.5259 -0.2029
   16MOL    C84 4914   5.981   2.973   7.772  0.2309  0.5145 -0.3777
   16MOL    C85 4915   5.965   3.109   7.744  0.5909 -0.1449  0.2196
   16MOL    C86 4916   5.908   3.200   7.837  0.3404  0.9221  0.4519
   16MOL    C87 4917   5.885   3.153   7.972 -0.2736 -0.0037 -0.2705
   16MOL    C88 4918   5.911   3.016   8.002  0.0809  0.5371  0.7442
   16MOL    C89 4919   5.950   2.928   7.903  0.0670  0.2100  0.8696
   16MOL    H90 4920   6.156   2.994   7.542 -0.3092  0.9662  0.9104
   16MOL    H91 4921   6.225   2.938   7.695 -0.6258 -0.0860 -0.0703
   16MOL    H92 4922   6.041   2.776   7.712  0.6268 -0.8040 -0.8813
   16MOL    H93 4923   5.982   3.145   7.644  3.7406 -1.7913  0.1101
   16MOL    H94 4924   5.892   3.302   7.805  0.4760  0.9963  0.6179
   16MOL    H95 4925   5.840   3.211   8.051  1.2325  0.8849 -0.0449
   16MOL    H96 4926   5.887   2.988   8.103  0.1973 -0.6101  0.4634
   16MOL    H97 4927   5.949   2.822   7.924 -0.4977  0.1864  0.7274
   16MOL    C98 4928   5.917   2.863   7.554  0.2221  0.9793  0.5584
   16MOL    C99 4929   5.844   2.722   7.534 -0.1949  0.3710  0.3161
   16MOL   C100 4930   5.809   2.669   7.676 -0.4211 -0.2263 -0.0363
   16MOL   C101 4931   5.834   2.540   7.728 -0.1858  0.3289  0.5255
   16MOL   C102 4932   5.789   2.505   7.857 -0.3015 -0.4945 -0.0201
   16MOL   C103 4933   5.718   2.599   7.934 -0.5199  0.2654 -0.0613
   16MOL   C104 4934   5.693   2.726   7.891  0.1400  0.4579 -0.2108
   16MOL   C105 4935   5.738   2.761   7.763 -0.1491  0.4478 -0.1606
   16MOL   H106 4936   5.958   2.889   7.457 -0.8562  0.4109 -0.0618
   16MOL   H107 4937   5.840   2.938   7.573 -2.6824 -1.7626  0.0732
   16MOL   H108 4938   5.922   2.653   7.503 -0.1698  0.9042 -0.8082
   16MOL   H109 4939   5.890   2.470   7.667 -0.3795  1.2694 -0.7650
   16MOL   H110 4940   5.805   2.404   7.894 -0.2678 -0.5775 -0.2595
   16MOL   H111 4941   5.694   2.565   8.034 -1.1368  0.3729 -0.1684
   16MOL   H112 4942   5.633   2.797   7.946 -1.8241  0.2292 -1.9596
   16MOL   H113 4943   5.706   2.860   7.732 -1.9523  0.5035  1.7749
   16MOL   C114 4944   5.736   2.716   7.416  0.2371 -1.3513 -0.0364
   16MOL   C115 4945   5.613   2.632   7.435  0.5405  0.1440 -1.3692
   16MOL   C116 4946   5.500   2.687   7.353  0.5223 -0.4948  0.4684
   16MOL   C117 4947   5.423   2.795   7.395  0.5534  0.3894  0.3325
   16MOL   C118 4948   5.304   2.834   7.328 -0.2698  0.3375  0.4439
   16MOL   C119 4949   5.274   2.786   7.202  0.3661 -0.8195 -0.0481
   16MOL   C120 4950   5.354   2.679   7.155 -0.5123 -0.1352  0.0085
   16MOL   C121 4951   5.464   2.627   7.228 -0.1436 -0.4074 -0.4003
   16MOL   H122 4952   5.790   2.690   7.325 -0.6723 -1.4635 -0.5485
   16MOL   H123 4953   5.711   2.820   7.395  5.0986  0.1248  0.6783
   16MOL   H124 4954   5.594   2.658   7.539 -1.7753 -2.3703 -1.1107
   16MOL   H125 4955   5.453   2.840   7.488  1.9647  1.2085 -0.4901
   16MOL   H126 4956   5.249   2.919   7.365  0.1993 -0.0114  1.9521
   16MOL   H127 4957   5.202   2.834   7.137 -1.3769  0.1549  2.5401
   16MOL   H128 4958   5.354   2.661   7.049  1.6053  0.9920 -0.2145
   16MOL   H129 4959   5.529   2.552   7.186 -0.0983 -0.7889  0.3427
   16MOL   C130 4960   5.633   2.472   7.421 -0.7339 -0.0166 -0.0498
   16MOL   C131 4961   5.523   2.391   7.493  0.1973  0.0755  1.1233
   16MOL   C132 4962   5.490   2.272   7.407 -0.4834  0.7753 -0.2535
   16MOL   C133 4963   5.577   2.158   7.400 -0.0423  0.3194  0.2666
   16MOL   C134 4964   5.536   2.042   7.330  0.5379 -0.5921 -0.1617
   16MOL   C135 4965   5.415   2.034   7.253 -0.0400  0.5405  0.1833
   16MOL   C136 4966   5.336   2.149   7.255  1.1497  0.1007  0.5257
   16MOL   C137 4967   5.371   2.266   7.327  0.4811  0.6887 -0.4664
   16MOL   H138 4968   5.730   2.439   7.457 -1.9040 -0.7239  2.5929
   16MOL   H139 4969   5.633   2.439   7.317 -1.9447  0.0598 -0.0863
   16MOL   H140 4970   5.433   2.451   7.505  1.3571  1.9856  0.4593
   16MOL   H141 4971   5.668   2.166   7.458  1.2593 -2.6539 -1.2744
   16MOL   H142 4972   5.603   1.958   7.339  3.0937  1.4203 -0.0069
   16MOL   H143 4973   5.389   1.946   7.195  0.0065 -0.6613  1.9394
   16MOL   H144 4974   5.241   2.149   7.204  1.3715  0.8730  0.1014
   16MOL   H145 4975   5.311   2.356   7.328  1.3200  1.2826  2.6215
   16MOL   C146 4976   5.571   2.353   7.638  0.7216  0.7291 -0.2265
   16MOL   C147 4977   5.461   2.273   7.717  0.1516 -0.1330  0.8124
   16MOL   C148 4978   5.496   2.120   7.717 -0.1916  0.6294  0.0272
   16MOL   C149 4979   5.610   2.079   7.785 -1.0292  0.0828 -0.0046
   16MOL   C150 4980   5.643   1.943   7.781 -0.1646  0.2738 -0.6152
   16MOL   C151 4981   5.557   1.855   7.713  0.2014 -0.3864  0.2420
   16MOL   C152 4982   5.438   1.894   7.649  0.1845  0.5458 -0.5502
   16MOL   C153 4983   5.408   2.030   7.654  0.1362  0.1665  0.1667
   16MOL   H154 4984   5.599   2.444   7.691  1.1960  0.8330 -0.6521
   16MOL   H155 4985   5.663   2.294   7.642 -1.5384 -2.9283 -0.2180
   16MOL   H156 4986   5.374   2.292   7.653  0.4689 -1.6127 -0.0829
   16MOL   H157 4987   5.678   2.140   7.842 -0.0731 -0.3509 -0.6669
   16MOL   H158 4988   5.735   1.907   7.823 -0.5790  1.4427  1.3395
   16MOL   H159 4989   5.591   1.753   7.714 -0.5608 -0.6727  4.5372
   16MOL   H160 4990   5.376   1.825   7.593  3.4932 -0.3345 -3.3200
   16MOL   H161 4991   5.330   2.070   7.592  1.1584  0.6132 -0.8613
   16MOL   C162 4992   5.428   2.324   7.852  0.6022  0.1253 -0.2683
   16MOL   C163 4993   5.311   2.245   7.926  0.1092  0.0974  0.3389
   16MOL   C164 4994   5.301   2.287   8.076 -0.0260  0.0859  0.4076
   16MOL   C165 4995   5.292   2.426   8.109  0.0916 -0.7265 -1.0454
   16MOL   C166 4996   5.288   2.471   0.128 -0.6079  0.8311  0.1145
   16MOL   C167 4997   5.311   2.380   0.230 -0.9358  0.5683 -0.2754
   16MOL   C168 4998   5.324   2.238   0.201 -0.4195 -0.2741  0.4627
   16MOL   C169 4999   5.325   2.191   0.066 -0.1922  0.0068 -0.0414
   16MOL   H170 5000   5.409   2.431   7.860 -1.3933 -0.1798 -0.5952
   16MOL   H171 5001   5.519   2.313   7.912  0.2344 -2.8898 -0.1864
   16MOL   H172 5002   5.337   2.139   7.923 -1.4926 -0.3291  0.7306
   16MOL   H173 5003   5.276   2.501   8.033 -2.9799 -2.2506 -1.9900
   16MOL   H174 5004   5.269   2.576   0.142 -0.2795  0.9061 -0.0094
   16MOL   H175 5005   5.305   2.421   0.329 -1.9763  2.5884 -1.1437
   16MOL   H176 5006   5.357   2.165   0.274 -1.9017 -0.6387  0.7806
   16MOL   H177 5007   5.339   2.086   0.044  1.4758  0.0214  0.8829
   16MOL   C178 5008   5.176   2.266   7.847 -0.0925 -0.3967 -0.2482
   16MOL   C179 5009   5.057   2.198   7.910  0.0684 -0.0165 -0.0597
   16MOL   C180 5010   4.938   2.227   7.825  1.1040 -0.0382 -0.6616
   16MOL   C181 5011   4.837   2.317   7.867  0.8262 -0.2507  0.6325
   16MOL   C182 5012   4.726   2.349   7.781 -0.8138 -0.3141 -0.1210
   16MOL   C183 5013   4.721   2.291   7.653  0.2179  0.4825  0.1520
   16MOL   C184 5014   4.823   2.205   7.613 -0.6373  0.9636 -0.0951
   16MOL   C185 5015   4.933   2.173   7.695  0.7775  0.0512  0.3345
   16MOL   H186 5016   5.194   2.217   7.751 -0.4470 -1.3045  0.1453
   16MOL   H187 5017   5.147   2.368   7.821 -0.5823 -0.2143  0.9850
   16MOL   H188 5018   5.027   2.248   8.003 -2.5998  2.1317 -2.0104
   16MOL   H189 5019   4.851   2.364   7.963  2.7408  0.5362 -0.0175
   16MOL   H190 5020   4.653   2.419   7.819  0.0379 -0.4044  1.7562
   16MOL   H191 5021   4.658   2.330   7.576 -0.5131 -0.2250  0.3843
   16MOL   H192 5022   4.832   2.184   7.507  0.6970  1.6089 -0.1191
   16MOL   H193 5023   5.006   2.106   7.650 -2.1060 -4.2763  1.7795
   16MOL   C194 5024   5.077   2.046   7.926 -0.4795 -0.4514  0.0493
   16MOL   C195 5025   4.950   1.967   7.958 -0.2324  0.2493  0.8160
   16MOL   C196 5026   4.981   1.819   7.938 -0.3611 -0.5461 -0.1195
   16MOL   C197 5027   4.927   1.748   7.825 -0.1211  0.0021 -0.5084
   16MOL   C198 5028   4.961   1.609   7.803  0.4414  0.1866 -0.2200
   16MOL   C199 5029   5.048   1.538   7.892  0.3303  0.3861  0.0871
   16MOL   C200 5030   5.110   1.618   7.990  0.2787  0.2044  0.4863
   16MOL   C201 5031   5.080   1.755   8.016  0.5408 -0.6997 -0.7435
   16MOL   H202 5032   5.147   2.037   8.010 -1.0706 -0.7865  0.5172
   16MOL   H203 5033   5.125   2.002   7.839 -1.4576  2.2458 -1.9111
   16MOL   H204 5034   4.876   1.983   7.880 -1.0480  0.8436  1.6894
   16MOL   H205 5035   4.860   1.799   7.758 -0.3951 -1.1143 -1.0881
   16MOL   H206 5036   4.915   1.550   7.725  2.3322 -1.9196  0.2151
   16MOL   H207 5037   5.069   1.432   7.892  1.0450  0.5205 -0.3582
   16MOL   H208 5038   5.183   1.570   8.053  0.8794 -1.6449 -1.5398
   16MOL   H209 5039   5.124   1.799   8.104 -0.5535 -0.2005 -0.4439
   16MOL   C210 5040   4.881   2.008   8.090 -0.2763  0.6481 -0.1875
   16MOL   C211 5041   4.732   1.982   8.106  0.0915  0.5592  0.2391
   16MOL   C212 5042   4.688   1.842   8.056  0.3657 -0.8056 -0.0019
   16MOL   C213 5043   4.732   1.728   0.019 -0.6523  0.1942  0.5217
   16MOL   C214 5044   4.676   1.603   8.106 -0.7834  0.5986  0.0477
   16MOL   C215 5045   4.572   1.593   8.016  0.1492  0.1816 -0.3790
   16MOL   C216 5046   4.538   1.699   7.931 -0.0244 -0.1822 -0.3214
   16MOL   C217 5047   4.594   1.828   7.949  0.2624 -0.2798  0.4811
   16MOL   H218 5048   4.880   2.117   8.091 -2.6742  0.6366  0.7284
   16MOL   H219 5049   4.941   1.974   0.059 -1.9560 -1.4930  0.1878
   16MOL   H220 5050   4.683   2.052   8.039 -1.7198  0.1668  1.1193
   16MOL   H221 5051   4.823   1.735   0.078  0.5929  0.2029 -1.3530
   16MOL   H222 5052   4.704   1.510   0.040 -3.5895 -0.5445 -0.4357
   16MOL   H223 5053   4.518   1.501   7.997  0.6181  0.2931 -2.3874
   16MOL   H224 5054   4.465   1.686   7.852  0.3987 -1.6080 -0.4860
   16MOL   H225 5055   4.549   1.911   7.895  1.2910 -1.4363 -2.2027
   16MOL   C226 5056   4.665   2.007   0.128  0.4062 -0.5522 -0.2717
   16MOL   C227 5057   4.639   2.149   0.166  0.1026 -0.5714 -0.3872
   16MOL   C228 5058   4.542   2.220   0.062 -0.4615 -0.1593 -0.2888
   16MOL   C229 5059   4.570   2.353   0.034 -0.1855  0.2796  0.5097
   16MOL   C230 5060   4.502   2.424   8.051 -0.1709  0.2170  0.6024
   16MOL   C231 5061   4.379   2.376   7.996  0.0311  0.1618  0.2525
   16MOL   C232 5062   4.347   2.241   8.031  0.1691  0.3334 -0.0082
   16MOL   C233 5063   4.432   2.160   8.111 -0.2233  0.3563  0.6036
   16MOL   H234 5064   4.741   1.976   0.200 -0.3651  0.4443  0.9860
   16MOL   H235 5065   4.577   1.943   0.133 -1.8148  2.4573  0.2105
   16MOL   H236 5066   4.738   2.193   0.161  0.2676 -0.8509  0.4188
   16MOL   H237 5067   4.645   2.409   0.090  0.4685  1.5707 -1.6125
   16MOL   H238 5068   4.530   2.525   8.022 -0.9582  0.0711 -0.7099
   16MOL   H239 5069   4.327   2.438   7.925  1.5399  1.9029  0.6130
   16MOL   H240 5070   4.272   2.188   7.974  1.2737 -0.8356 -0.4167
   16MOL   H241 5071   4.422   2.053   8.105  0.4675  0.3682 -0.9836
   16MOL   C242 5072   4.575   2.168   0.308 -0.2008  0.3171  0.6416
   16MOL   C243 5073   4.675   2.157   0.421  0.0091 -0.5666 -0.3817
   16MOL   C244 5074   4.766   2.278   0.413 -0.0415 -0.4546 -0.1619
   16MOL   C245 5075   4.906   2.251   0.409 -0.3780 -0.8492  0.1950
   16MOL   C246 5076   4.992   2.363   0.417  0.0318 -0.2950  0.0518
   16MOL   C247 5077   4.944   2.495   0.425  0.0725  0.1229  0.1394
   16MOL   C248 5078   4.807   2.514   0.436  0.5516  0.5316 -0.2688
   16MOL   C249 5079   4.720   2.410   0.434  0.5047 -0.0596 -0.6201
   16MOL   H250 5080   4.489   2.101   0.311  0.9197 -1.2528 -1.1207
   16MOL   H251 5081   4.529   2.266   0.302 -0.6522  0.1503  1.3036
   16MOL   H252 5082   4.739   2.069   0.415  1.4549  0.2378  2.4385
   16MOL   H253 5083   4.952   2.154   0.411  0.9766 -0.2358 -0.3842
   16MOL   H254 5084   5.099   2.348   0.419  0.2928  1.1172 -1.6175
   16MOL   H255 5085   5.012   2.579   0.413 -0.7114  0.9591  1.3940
   16MOL   H256 5086   4.771   2.615   0.441  2.2491  1.1282  0.2582
   16MOL   H257 5087   4.616   2.440   0.441  0.6391  0.3623 -0.3942
   16MOL   C258 5088   4.610   2.153   0.558  0.3776  0.2644  0.3670
   16MOL   C259 5089   4.515   2.035   0.585 -0.3311  0.1902  0.7995
   16MOL   C260 5090   4.579   1.904   0.523  0.2432  0.4694 -0.2689
   16MOL   C261 5091   4.711   1.868   0.563  0.1698  0.0034  0.3804
   16MOL   C262 5092   4.778   1.761   0.501  0.2468  0.0930  0.7497
   16MOL   C263 5093   4.712   1.689   0.404 -0.3669  0.9032  0.3204
   16MOL   C264 5094   4.582   1.721   0.371 -0.0695 -0.5299  0.4291
   16MOL   C265 5095   4.508   1.828   0.423 -0.4636 -0.6264 -0.2737
   16MOL   H266 5096   4.543   2.239   0.563  0.4868  0.4050 -0.4205
   16MOL   H267 5097   4.686   2.162   0.635  0.9412 -0.6218 -0.0763
   16MOL   H268 5098   4.427   2.042   0.522 -2.0360 -0.4444  3.0492
   16MOL   H269 5099   4.756   1.929   0.640  0.3079 -3.6910  3.3459
   16MOL   H270 5100   4.881   1.739   0.523  0.1864  0.9031  1.8710
   16MOL   H271 5101   4.761   1.619   0.337  0.6268  0.7790  1.1705
   16MOL   H272 5102   4.537   1.662   0.292 -0.3267  1.9678 -1.3121
   16MOL   H273 5103   4.409   1.852   0.388 -0.5156  1.6721  1.2952
   16MOL   C274 5104   4.481   2.025   0.737  0.4515 -0.5040  0.3461
   16MOL   C275 5105   4.367   2.127   0.782 -0.6161  0.4281 -0.3845
   16MOL   C276 5106   4.249   2.119   0.684  0.3667 -0.5885  0.1045
   16MOL   C277 5107   4.184   1.992   0.661 -0.0373  0.1214 -0.2685
   16MOL   C278 5108   4.085   1.980   0.564 -0.3379 -0.3113  0.1425
   16MOL   C279 5109   4.026   2.095   0.508 -0.4270 -0.4283  0.3055
   16MOL   C280 5110   4.072   2.219   0.548  0.3468  0.5985  0.0108
   16MOL   C281 5111   4.184   2.232   0.628 -0.1055  0.3961  0.3271
   16MOL   H282 5112   4.559   2.021   0.813  1.0161 -2.3989 -0.3143
   16MOL   H283 5113   4.448   1.922   0.746  0.4478 -0.2541  4.0160
   16MOL   H284 5114   4.413   2.225   0.776  1.3503 -0.4470  0.0310
   16MOL   H285 5115   4.217   1.907   0.719 -0.0816 -0.7150 -1.4555
   16MOL   H286 5116   4.044   1.884   0.538 -0.2006 -0.2263 -0.3783
   16MOL   H287 5117   3.943   2.087   0.439 -1.6885  2.6838  1.3529
   16MOL   H288 5118   4.024   2.307   0.509  3.2017  1.9006 -0.7054
   16MOL   H289 5119   4.211   2.334   0.650  0.5071  0.4823 -0.8017
   16MOL   C290 5120   4.331   2.102   0.931  0.6930 -0.0962 -0.3599
   16MOL   C291 5121   4.224   2.199   0.993  0.8121 -0.0503  0.5289
   16MOL   C292 5122   4.193   2.152   1.137 -0.4747  0.4619  0.9333
   16MOL   C293 5123   4.061   2.124   1.177 -0.5923  0.0995  0.5897
   16MOL   C294 5124   4.024   2.069   1.296  0.3464 -0.5370  0.0077
   16MOL   C295 5125   4.126   2.052   1.386 -0.1281 -0.0944  0.1045
   16MOL   C296 5126   4.261   2.084   1.358 -0.5957  0.1757 -0.1808
   16MOL   C297 5127   4.300   2.126   1.231 -0.0016  0.3839 -0.4483
   16MOL   H298 5128   4.424   2.102   0.989 -0.1214 -1.0514  0.9703
   16MOL   H299 5129   4.294   1.999   0.928 -1.2879  0.5741  0.3785
   16MOL   H300 5130   4.134   2.190   0.932 -0.0855  0.2051  1.7976
   16MOL   H301 5131   3.985   2.140   1.102  0.0500  0.7602  0.0718
   16MOL   H302 5132   3.922   2.059   1.328  0.0162  0.0003 -0.8619
   16MOL   H303 5133   4.089   2.014   1.479 -1.6346  1.3762  0.1293
   16MOL   H304 5134   4.341   2.067   1.428  0.4023 -2.3289 -1.8671
   16MOL   H305 5135   4.402   2.123   1.198 -0.4121 -1.2641 -1.6742
   16MOL   C306 5136   4.281   2.341   0.987  0.3539 -0.2023 -0.3487
   16MOL   C307 5137   4.188   2.456   1.042 -0.1889  0.1539 -0.3053
   16MOL   C308 5138   4.229   2.589   1.000 -0.1547 -0.6112 -0.7023
   16MOL   C309 5139   4.345   2.640   1.057  0.7471 -0.7731 -0.2171
   16MOL   C310 5140   4.401   2.763   1.010 -0.0998 -0.0755  0.6308
   16MOL   C311 5141   4.331   2.835   0.907 -0.0205  0.3809  0.8199
   16MOL   C312 5142   4.215   2.783   0.854  0.1524 -0.5344  0.2756
   16MOL   C313 5143   4.155   2.668   0.907  0.2965  0.4389  0.2858
   16MOL   H314 5144   4.303   2.368   0.883  0.8515  1.3518  0.1514
   16MOL   H315 5145   4.372   2.346   1.045 -0.1392  3.4813  0.2629
   16MOL   H316 5146   4.193   2.427   1.147  1.6531 -1.7045 -0.8707
   16MOL   H317 5147   4.399   2.575   1.126  2.1823  1.0421  0.4099
   16MOL   H318 5148   4.493   2.802   1.051  0.1907  1.1422 -1.1540
   16MOL   H319 5149   4.374   2.921   0.859  1.2214 -1.6029 -1.7378
   16MOL   H320 5150   4.181   2.841   0.769 -0.1206 -2.4320 -0.9435
   16MOL   H321 5151   4.059   2.632   0.874  0.6202  0.9446 -1.2728
   16MOL   H322 5152   4.085   2.441   1.009  0.1485 -2.2073 -0.3965
   17MOL     C1 5153   2.638   1.857   3.663  0.3933 -0.3224 -0.3811
   17MOL     C2 5154   2.483   1.841   3.660 -1.0706  0.0301 -0.3677
   17MOL     C3 5155   2.400   1.945   3.727 -0.1148 -0.5824  0.0374
   17MOL     C4 5156   2.291   1.911   3.810 -0.4443  0.1848  0.5177
   17MOL     C5 5157   2.223   2.011   3.885 -0.2932  0.2628 -0.1595
   17MOL     C6 5158   2.241   2.146   3.848 -0.2465 -0.0172 -0.8674
   17MOL     C7 5159   2.350   2.182   3.767  0.1481  0.3059  0.8811
   17MOL     C8 5160   2.436   2.081   3.716  0.5232  0.3916  0.2095
   17MOL     H9 5161   2.680   1.951   3.625 -2.2760  1.2843  0.5408
   17MOL    H10 5162   2.669   1.841   3.766  0.0457  1.7031  0.0726
   17MOL    H11 5163   2.455   1.746   3.706  0.3596 -0.2204  0.0075
   17MOL    H12 5164   2.259   1.808   3.811  1.1391 -0.3373 -1.0891
   17MOL    H13 5165   2.131   1.988   3.938  0.5909 -1.2254  0.7733
   17MOL    H14 5166   2.176   2.221   3.890  2.3837  2.4646 -1.0265
   17MOL    H15 5167   2.370   2.282   3.730  1.2137 -1.0620 -2.4228
   17MOL    H16 5168   2.527   2.117   3.670 -0.5056  2.4663 -0.2508
   17MOL    H17 5169   2.693   1.775   3.618 -1.0670 -2.1284  1.0681
   17MOL    C18 5170   2.434   1.832   3.512  0.9548 -0.3474 -0.1176
   17MOL    C19 5171   2.478   1.702   3.428 -0.2733  0.2132  0.7491
   17MOL    C20 5172   2.444   1.579   3.503  0.1263  0.0952  0.7998
   17MOL    C21 5173   2.310   1.533   3.524 -0.0899 -0.4770 -0.1670
   17MOL    C22 5174   2.280   1.417   3.611  0.1798 -0.2889 -0.0893
   17MOL    C23 5175   2.388   1.362   3.677  0.5654  0.5136 -0.0124
   17MOL    C24 5176   2.519   1.405   3.661  0.4496 -1.0028  0.0115
   17MOL    C25 5177   2.548   1.510   3.579  0.2870 -0.3666  0.3539
   17MOL    H26 5178   2.474   1.920   3.463  1.1931 -0.0979  0.5165
   17MOL    H27 5179   2.326   1.842   3.511  0.8363 -1.4392  0.4470
   17MOL    H28 5180   2.585   1.719   3.422 -0.1052 -0.8296  0.6629
   17MOL    H29 5181   2.226   1.577   3.472 -1.0098  1.2352  2.6664
   17MOL    H30 5182   2.180   1.377   3.617  0.6234 -1.5820 -1.2413
   17MOL    H31 5183   2.364   1.288   3.752 -1.1712 -0.0876 -1.1312
   17MOL    H32 5184   2.603   1.357   3.709  3.5148  1.7523 -2.4054
   17MOL    H33 5185   2.652   1.540   3.582  0.1479  0.0830  1.0343
   17MOL    C34 5186   2.422   1.712   3.282 -0.2872  1.0626 -0.2449
   17MOL    C35 5187   2.468   1.596   3.187  0.5192 -0.2051 -0.2861
   17MOL    C36 5188   2.344   1.506   3.136 -0.7969  0.8434 -0.7723
   17MOL    C37 5189   2.238   1.565   3.073 -0.5442  0.5821 -1.0233
   17MOL    C38 5190   2.127   1.484   3.032 -0.0091  0.4718 -0.3537
   17MOL    C39 5191   2.147   1.345   3.033  0.2768  0.2951  0.1111
   17MOL    C40 5192   2.252   1.288   3.103 -0.6017 -0.3181 -0.9050
   17MOL    C41 5193   2.356   1.366   3.151  0.3094  0.6231 -0.1350
   17MOL    H42 5194   2.440   1.809   3.236 -1.2437  1.1247 -0.4783
   17MOL    H43 5195   2.314   1.703   3.293 -0.1443 -0.8501 -0.2573
   17MOL    H44 5196   2.533   1.527   3.240  0.1143  0.7613  1.5119
   17MOL    H45 5197   2.234   1.672   3.055 -0.9298  0.5259 -1.2680
   17MOL    H46 5198   2.036   1.528   2.994 -0.6809 -0.6452 -0.0499
   17MOL    H47 5199   2.063   1.288   2.996  0.1792  1.1727 -1.0529
   17MOL    H48 5200   2.256   1.180   3.107 -1.6792 -0.2873  2.5306
   17MOL    H49 5201   2.447   1.315   3.179  1.6757  2.1153 -1.7107
   17MOL    C50 5202   2.536   1.656   3.061  0.3385  0.0002 -0.1761
   17MOL    C51 5203   2.673   1.720   3.097 -0.2352 -0.2001  0.1223
   17MOL    C52 5204   2.785   1.614   3.127  0.1585 -0.0130  0.3133
   17MOL    C53 5205   2.832   1.590   3.255 -0.1623  0.7255  0.3349
   17MOL    C54 5206   2.940   1.499   3.271 -0.2786  0.1118 -0.2338
   17MOL    C55 5207   3.005   1.436   3.161 -0.0199 -0.2934 -0.1204
   17MOL    C56 5208   2.953   1.454   3.030 -0.0042 -0.2315  0.4645
   17MOL    C57 5209   2.842   1.546   3.013  0.1310 -0.5343  0.3094
   17MOL    H58 5210   2.467   1.725   3.014  0.1642 -0.4172 -0.5373
   17MOL    H59 5211   2.553   1.594   2.972 -3.7938 -2.3905  0.5910
   17MOL    H60 5212   2.665   1.777   3.189  1.0339  0.2358 -0.0217
   17MOL    H61 5213   2.789   1.649   3.335 -0.1459 -0.7686  1.4562
   17MOL    H62 5214   2.992   1.504   3.366 -0.7449 -1.2641  0.1076
   17MOL    H63 5215   3.101   1.392   3.182  1.3230  3.4938  2.1720
   17MOL    H64 5216   3.009   1.402   2.953 -2.3012 -1.5610 -0.3753
   17MOL    H65 5217   2.810   1.578   2.915 -2.4139 -1.3231  0.8434
   17MOL    C66 5218   2.723   1.824   2.995 -0.1232 -0.1074  0.0212
   17MOL    C67 5219   2.652   1.968   3.002 -0.0019  0.0665 -0.1524
   17MOL    C68 5220   2.683   2.047   3.133  0.6078  0.9687  0.5315
   17MOL    C69 5221   2.807   2.111   3.143 -0.5498  0.2541  0.9010
   17MOL    C70 5222   2.842   2.182   3.258  0.4199 -0.6367 -0.2943
   17MOL    C71 5223   2.753   2.190   3.366  0.2056  0.1920 -0.0873
   17MOL    C72 5224   2.623   2.141   3.346  0.1275  0.1644  0.1016
   17MOL    C73 5225   2.589   2.065   3.231  0.7159  0.3926 -0.0092
   17MOL    H74 5226   2.716   1.788   2.892 -1.3217 -0.4213  0.2028
   17MOL    H75 5227   2.830   1.837   3.008 -0.5010  2.9225  0.3598
   17MOL    H76 5228   2.547   1.945   2.991  0.0741 -0.3570  0.0037
   17MOL    H77 5229   2.875   2.115   3.059 -0.4949 -1.0706  0.8768
   17MOL    H78 5230   2.940   2.227   3.258 -1.2022  3.1179  0.3017
   17MOL    H79 5231   2.787   2.253   3.447 -0.6486 -0.2702  0.6356
   17MOL    H80 5232   2.545   2.139   3.421  0.5162 -0.0537  0.5003
   17MOL    H81 5233   2.493   2.015   3.222  0.7396  0.3584 -0.0673
   17MOL    C82 5234   2.684   2.063   2.879  0.0746 -0.4998  0.1247
   17MOL    C83 5235   2.630   2.022   2.740  0.3556  0.6886 -0.1508
   17MOL    C84 5236   2.487   1.971   2.740  0.2370 -0.0136 -0.0078
   17MOL    C85 5237   2.385   2.065   2.770  0.1163 -0.4671  0.2157
   17MOL    C86 5238   2.251   2.015   2.785 -0.2742  0.1030 -0.5007
   17MOL    C87 5239   2.225   1.879   2.775 -0.2361  0.7657 -0.2964
   17MOL    C88 5240   2.327   1.786   2.737 -0.1069  0.2345  1.4190
   17MOL    C89 5241   2.458   1.834   2.721  0.0683 -0.1793 -0.2577
   17MOL    H90 5242   2.792   2.076   2.867  0.0428 -0.7032 -0.3959
   17MOL    H91 5243   2.636   2.159   2.900  0.0941 -0.4991  0.1648
   17MOL    H92 5244   2.693   1.935   2.721 -1.3231 -0.2408 -1.5730
   17MOL    H93 5245   2.407   2.169   2.790  0.0538 -0.2511 -0.8278
   17MOL    H94 5246   2.172   2.084   2.812 -0.7186 -1.4118  2.3305
   17MOL    H95 5247   2.129   1.830   2.783 -0.6739  1.5861 -0.4953
   17MOL    H96 5248   2.302   1.684   2.711  2.3331  0.3366 -1.5308
   17MOL    H97 5249   2.530   1.763   2.683 -0.4756 -1.3327  0.8337
   17MOL    C98 5250   2.655   2.124   2.638 -0.2475 -0.7682  0.3265
   17MOL    C99 5251   2.786   2.140   2.567 -0.1407 -0.6994 -0.8916
   17MOL   C100 5252   2.816   2.018   2.481  0.4943  0.3214  0.0498
   17MOL   C101 5253   2.750   2.000   2.354  0.5474 -0.0391  0.8665
   17MOL   C102 5254   2.792   1.896   2.262 -0.5160 -0.2603 -0.2762
   17MOL   C103 5255   2.901   1.821   2.298  0.4437  0.3044 -0.5228
   17MOL   C104 5256   2.965   1.831   2.418 -0.6858  0.6833  0.6621
   17MOL   C105 5257   2.913   1.925   2.513  0.1286 -0.5303  0.1431
   17MOL   H106 5258   2.626   2.220   2.681  0.3999  0.2791 -1.4779
   17MOL   H107 5259   2.576   2.099   2.567  1.1521 -3.3927 -0.3851
   17MOL   H108 5260   2.848   2.158   2.655  0.2412  1.1194 -1.4972
   17MOL   H109 5261   2.673   2.069   2.322  0.6237 -0.8034 -1.0586
   17MOL   H110 5262   2.746   1.884   2.165  1.2458  0.1069 -1.1920
   17MOL   H111 5263   2.933   1.745   2.229 -0.9741 -0.9304  0.1419
   17MOL   H112 5264   3.043   1.763   2.448 -1.4713  0.1827  1.5741
   17MOL   H113 5265   2.960   1.928   2.610 -1.8029  0.7724  1.0763
   17MOL   C114 5266   2.797   2.271   2.487 -0.2080 -0.2745  0.0357
   17MOL   C115 5267   2.917   2.280   2.385 -0.0505 -0.1330  0.6504
   17MOL   C116 5268   2.877   2.399   2.288 -0.5984 -0.3287 -0.7564
   17MOL   C117 5269   2.848   2.531   2.326 -0.6199 -0.1213 -0.1412
   17MOL   C118 5270   2.804   2.625   2.241 -0.1294  0.0471  1.0194
   17MOL   C119 5271   2.780   2.596   2.108  0.2094 -0.3491  1.1288
   17MOL   C120 5272   2.799   2.458   2.064  0.7010 -0.3024 -0.0142
   17MOL   C121 5273   2.856   2.366   2.153  0.0079 -0.5205 -0.1806
   17MOL   H122 5274   2.806   2.360   2.548 -0.5338  0.7074 -1.3267
   17MOL   H123 5275   2.704   2.268   2.431 -0.3703 -1.1473  0.3455
   17MOL   H124 5276   2.931   2.182   2.338 -0.7183  0.2624 -0.3878
   17MOL   H125 5277   2.877   2.563   2.425 -1.7118 -1.8532  0.7639
   17MOL   H126 5278   2.785   2.720   2.288  1.4235  0.1103  1.5446
   17MOL   H127 5279   2.750   2.669   2.035  1.2412 -1.0868 -0.0449
   17MOL   H128 5280   2.765   2.427   1.967  0.7687 -1.6611  0.3853
   17MOL   H129 5281   2.870   2.266   2.112  1.1246  0.4985 -2.3822
   17MOL   C130 5282   3.048   2.319   2.463  0.4092 -0.0958  0.2429
   17MOL   C131 5283   3.166   2.224   2.418  0.1609  0.0266 -0.1913
   17MOL   C132 5284   3.179   2.215   2.269  0.2514 -0.2703  0.0928
   17MOL   C133 5285   3.227   2.102   2.211  0.0645 -0.2071 -0.6570
   17MOL   C134 5286   3.261   2.107   2.074 -0.2313 -0.0714  1.3389
   17MOL   C135 5287   3.225   2.206   1.987  1.6272 -0.0072 -0.1523
   17MOL   C136 5288   3.177   2.321   2.044 -0.3656 -0.1697 -0.1766
   17MOL   C137 5289   3.165   2.330   2.189  0.2170 -0.0787  0.1862
   17MOL   H138 5290   3.046   2.314   2.571 -1.8388 -1.0691  0.1853
   17MOL   H139 5291   3.070   2.423   2.440 -1.0448  0.1638  0.0167
   17MOL   H140 5292   3.147   2.124   2.456  1.5857  0.8730  2.9115
   17MOL   H141 5293   3.242   2.011   2.269  0.2946  0.8031  0.8954
   17MOL   H142 5294   3.321   2.026   2.035  1.1315  0.2485  2.7025
   17MOL   H143 5295   3.241   2.198   1.880  0.8403  1.7016 -0.4152
   17MOL   H144 5296   3.158   2.409   1.984  2.6700  0.7620  0.1335
   17MOL   H145 5297   3.142   2.428   2.228  1.7841 -0.3464  1.8099
   17MOL   C146 5298   3.307   2.264   2.467 -0.0613  0.2388 -0.4392
   17MOL   C147 5299   3.329   2.253   2.627 -0.0270  0.3065  0.4890
   17MOL   C148 5300   3.275   2.120   2.691 -0.6990  0.4556 -0.7041
   17MOL   C149 5301   3.330   1.991   2.654 -0.6580 -0.2081 -0.1685
   17MOL   C150 5302   3.287   1.874   2.715 -0.0507  0.3293  0.6038
   17MOL   C151 5303   3.185   1.882   2.809  0.7495  0.3051 -0.5948
   17MOL   C152 5304   3.122   2.010   2.842  0.0676 -0.6682 -0.1841
   17MOL   C153 5305   3.171   2.126   2.784  0.3070  0.4458  0.3234
   17MOL   H154 5306   3.332   2.367   2.441  1.5306  0.0503  0.2858
   17MOL   H155 5307   3.386   2.205   2.422 -0.1016 -2.2085  2.5736
   17MOL   H156 5308   3.268   2.331   2.673 -1.4290  0.8271 -2.1673
   17MOL   H157 5309   3.414   1.977   2.587  0.1509 -1.1040  1.0001
   17MOL   H158 5310   3.331   1.779   2.687  3.1032  1.5150  1.2944
   17MOL   H159 5311   3.139   1.787   2.831 -0.9232  1.4681  1.0229
   17MOL   H160 5312   3.038   2.028   2.908  0.4313 -0.1333  0.1366
   17MOL   H161 5313   3.118   2.217   2.806 -0.5071  0.5352 -1.8750
   17MOL   C162 5314   3.477   2.290   2.661  0.4259 -0.2162 -0.2100
   17MOL   C163 5315   3.524   2.280   2.814 -0.3851  0.0056 -1.0346
   17MOL   C164 5316   3.672   2.311   2.831 -0.5362 -0.2500  0.4965
   17MOL   C165 5317   3.763   2.206   2.858  0.5319 -0.0773  0.3643
   17MOL   C166 5318   3.902   2.219   2.858 -0.1676 -0.3099  0.4678
   17MOL   C167 5319   3.958   2.345   2.823 -0.3639 -0.2106 -0.3647
   17MOL   C168 5320   3.869   2.452   2.791  0.3507  0.5040  0.4578
   17MOL   C169 5321   3.731   2.432   2.789  0.5509  0.5570  0.3278
   17MOL   H170 5322   3.488   2.397   2.639  0.4694 -0.1305  0.2192
   17MOL   H171 5323   3.546   2.235   2.597  0.8998 -0.9865  0.9467
   17MOL   H172 5324   3.508   2.176   2.844 -0.2614  0.4579  0.6431
   17MOL   H173 5325   3.716   2.113   2.885  0.4334 -0.4669 -1.1320
   17MOL   H174 5326   3.968   2.136   2.875 -2.4086 -1.9977  1.1653
   17MOL   H175 5327   4.062   2.374   2.826 -0.2653 -0.6653  1.1827
   17MOL   H176 5328   3.896   2.555   2.774 -0.1772  0.4533 -0.7177
   17MOL   H177 5329   3.659   2.502   2.749 -0.7088 -0.6152  0.5247
   17MOL   C178 5330   3.435   2.367   2.905 -0.0860  0.4116 -0.1937
   17MOL   C179 5331   3.451   2.339   3.060 -0.6637 -0.6204 -0.0053
   17MOL   C180 5332   3.422   2.475   3.130 -0.0058  0.2198 -0.0312
   17MOL   C181 5333   3.289   2.523   3.125  0.1910  0.5801 -0.4247
   17MOL   C182 5334   3.257   2.641   3.190 -0.0709 -0.0064 -0.0117
   17MOL   C183 5335   3.360   2.709   3.264  0.2509  0.1999  1.4997
   17MOL   C184 5336   3.494   2.661   3.263  0.2554  0.5915  0.4721
   17MOL   C185 5337   3.527   2.542   3.199  0.3359 -0.3915  0.0698
   17MOL   H186 5338   3.330   2.352   2.882 -0.0364  0.7057 -0.6072
   17MOL   H187 5339   3.461   2.470   2.883 -0.8333  0.2243 -2.0762
   17MOL   H188 5340   3.557   2.321   3.079 -0.5942 -2.0060 -1.5686
   17MOL   H189 5341   3.224   2.466   3.060  0.7721  0.5954 -1.0365
   17MOL   H190 5342   3.158   2.685   3.199  0.5028  1.5927 -1.3695
   17MOL   H191 5343   3.336   2.795   3.325  0.6996  2.0375 -0.8212
   17MOL   H192 5344   3.568   2.706   3.328  1.7018 -1.8431  0.5712
   17MOL   H193 5345   3.626   2.501   3.207 -0.2405 -2.6617 -3.5217
   17MOL   C194 5346   3.364   2.221   3.119 -1.0514  0.4481  0.0957
   17MOL   C195 5347   3.375   2.192   3.265 -0.1341  0.2088  0.3742
   17MOL   C196 5348   3.254   2.102   3.308  0.1556 -0.0690 -0.2052
   17MOL   C197 5349   3.196   2.117   3.435  0.1891  0.1801  0.3594
   17MOL   C198 5350   3.091   2.036   3.479 -0.5166  0.6575  0.3126
   17MOL   C199 5351   3.047   1.941   3.396 -0.1795  0.1626  0.1431
   17MOL   C200 5352   3.106   1.910   3.270  0.2128 -0.0317  0.6858
   17MOL   C201 5353   3.216   1.988   3.226  0.4523 -0.1352 -0.2222
   17MOL   H202 5354   3.371   2.127   3.064 -0.1138  0.2911  0.4894
   17MOL   H203 5355   3.261   2.254   3.106 -1.7285 -0.2370  3.3555
   17MOL   H204 5356   3.369   2.286   3.320 -2.9846 -0.4398  1.2437
   17MOL   H205 5357   3.241   2.188   3.502 -0.4594  1.4860 -0.5828
   17MOL   H206 5358   3.050   2.059   3.577  1.1162  2.0033  0.6867
   17MOL   H207 5359   2.964   1.882   3.431  1.6060 -1.0722  2.4315
   17MOL   H208 5360   3.061   1.825   3.220  0.3065 -0.6538  1.6351
   17MOL   H209 5361   3.269   1.950   3.141 -0.6386 -1.0268 -0.5149
   17MOL   C210 5362   3.513   2.121   3.293  0.5956 -0.1589  1.0525
   17MOL   C211 5363   3.542   2.083   3.445 -0.1177 -0.1297 -0.4125
   17MOL   C212 5364   3.649   1.981   3.437 -0.0039 -0.3535 -0.1979
   17MOL   C213 5365   3.632   1.847   3.477 -0.2679  0.0538 -0.2894
   17MOL   C214 5366   3.744   1.756   3.470 -0.1202 -1.0463 -0.2399
   17MOL   C215 5367   3.869   1.799   3.418 -0.0533 -0.1715 -0.1469
   17MOL   C216 5368   3.883   1.935   3.377  1.2215  0.4461 -0.4253
   17MOL   C217 5369   3.773   2.024   3.390 -0.3928 -0.0308 -0.8771
   17MOL   H218 5370   3.589   2.180   3.242  0.3664 -2.0582 -1.6679
   17MOL   H219 5371   3.520   2.029   3.234 -0.9657  0.2942  0.1042
   17MOL   H220 5372   3.451   2.030   3.472  0.1202 -0.6527 -0.6278
   17MOL   H221 5373   3.531   1.813   3.496  0.0892 -0.4669  0.6692
   17MOL   H222 5374   3.722   1.652   3.490  1.0224 -1.1983  0.2726
   17MOL   H223 5375   3.961   1.744   3.426  0.5467  1.0257  1.4212
   17MOL   H224 5376   3.980   1.979   3.361  1.6191  0.4976  1.9410
   17MOL   H225 5377   3.789   2.130   3.377 -0.1728 -0.3235 -3.2796
   17MOL   C226 5378   3.562   2.204   3.534 -0.0781 -0.9589  0.2120
   17MOL   C227 5379   3.500   2.197   3.676 -0.0563  0.6056 -0.5083
   17MOL   C228 5380   3.545   2.070   3.755 -0.4030 -0.2945  0.2889
   17MOL   C229 5381   3.452   2.007   3.835  0.0394 -0.5140  0.2299
   17MOL   C230 5382   3.484   1.887   3.904  0.0971 -0.1264 -0.4940
   17MOL   C231 5383   3.609   1.831   3.895 -0.9502 -0.3101 -0.3260
   17MOL   C232 5384   3.707   1.898   3.812  0.4320 -0.2273 -0.1141
   17MOL   C233 5385   3.676   2.012   3.739  0.5110  0.0928 -0.1507
   17MOL   H234 5386   3.534   2.301   3.494  0.5596 -0.0857  1.7996
   17MOL   H235 5387   3.669   2.217   3.549 -0.6046  1.8221  2.0040
   17MOL   H236 5388   3.391   2.189   3.672 -0.1111  1.6482 -1.3795
   17MOL   H237 5389   3.350   2.044   3.844  0.1341  0.0329 -0.8225
   17MOL   H238 5390   3.410   1.836   3.964 -0.8790 -0.8231 -2.2545
   17MOL   H239 5391   3.631   1.741   3.950  2.4220 -0.1791 -1.3159
   17MOL   H240 5392   3.806   1.855   3.806  0.2395 -0.8781  1.1196
   17MOL   H241 5393   3.754   2.068   3.691  0.2889 -0.5068 -1.2174
   17MOL   C242 5394   3.524   2.324   3.773 -0.1000 -0.4400 -0.2951
   17MOL   C243 5395   3.463   2.459   3.725  0.4985  0.5140  0.3846
   17MOL   C244 5396   3.320   2.441   3.664 -0.7179  0.0790 -0.0055
   17MOL   C245 5397   3.291   2.495   3.536 -0.0218 -0.8861 -0.0622
   17MOL   C246 5398   3.163   2.468   3.476 -0.0894 -0.5641  0.2367
   17MOL   C247 5399   3.061   2.398   3.551  0.0564  0.1655  0.4510
   17MOL   C248 5400   3.084   2.367   3.686  0.2913  0.4253 -0.0641
   17MOL   C249 5401   3.218   2.378   3.735  0.5089  0.8720 -0.1044
   17MOL   H250 5402   3.633   2.333   3.770  0.0652 -2.0276  0.5858
   17MOL   H251 5403   3.497   2.300   3.875 -1.5596 -2.8374 -1.1856
   17MOL   H252 5404   3.522   2.507   3.647 -0.0826  0.2806 -0.2015
   17MOL   H253 5405   3.374   2.535   3.480 -0.9938 -1.7582 -2.1819
   17MOL   H254 5406   3.143   2.512   3.379  1.3960  1.3047  0.7635
   17MOL   H255 5407   2.965   2.371   3.510  0.5465 -0.7358 -0.1018
   17MOL   H256 5408   3.008   2.314   3.741 -0.1836 -0.5424 -1.6169
   17MOL   H257 5409   3.238   2.327   3.828  1.7658 -0.5605 -1.1375
   17MOL   C258 5410   3.446   2.568   3.830  0.0700  1.0096  0.1076
   17MOL   C259 5411   3.581   2.628   3.894  0.3412 -0.0425 -0.3576
   17MOL   C260 5412   3.685   2.687   3.801 -0.5923  0.1315 -0.2113
   17MOL   C261 5413   3.823   2.678   3.829 -0.2500 -0.8529  0.1374
   17MOL   C262 5414   3.911   2.745   3.740  0.5850  0.2697  0.2204
   17MOL   C263 5415   3.868   2.811   3.628  0.4427  0.1702  0.1005
   17MOL   C264 5416   3.732   2.805   3.594  0.2254  0.5760 -0.2836
   17MOL   C265 5417   3.644   2.752   3.686  0.2565 -0.2665 -0.5116
   17MOL   H266 5418   3.385   2.529   3.912  0.5989 -0.8931 -0.3900
   17MOL   H267 5419   3.389   2.651   3.789  0.4690  0.5570 -1.3881
   17MOL   H268 5420   3.632   2.537   3.926 -0.6748 -1.2802 -2.2229
   17MOL   H269 5421   3.858   2.622   3.914 -0.3314  0.9509  1.3939
   17MOL   H270 5422   4.014   2.761   3.769  0.3309  2.3611  0.0170
   17MOL   H271 5423   3.924   2.879   3.566 -0.9556  0.1958 -1.1590
   17MOL   H272 5424   3.696   2.857   3.507  0.9408  1.3914 -0.1117
   17MOL   H273 5425   3.540   2.772   3.665  0.2129  0.8025  0.6638
   17MOL   C274 5426   3.560   2.721   4.011  0.1411 -0.0633 -0.0315
   17MOL   C275 5427   3.497   2.663   4.144 -0.5312 -0.3295  0.0936
   17MOL   C276 5428   3.532   2.516   4.179 -0.5896  0.6908  0.4191
   17MOL   C277 5429   3.432   2.419   4.199  0.0077  0.7706  0.3589
   17MOL   C278 5430   3.454   2.283   4.235  0.2374 -0.4778 -0.1943
   17MOL   C279 5431   3.588   2.242   4.235 -0.7875 -0.1710 -0.1103
   17MOL   C280 5432   3.686   2.336   4.205 -0.2176 -0.0036 -0.6643
   17MOL   C281 5433   3.667   2.471   4.183  0.0024  0.6813 -0.2665
   17MOL   H282 5434   3.508   2.810   3.977  3.3087  2.2305  0.8749
   17MOL   H283 5435   3.657   2.756   4.047  0.9465 -2.7791  0.6367
   17MOL   H284 5436   3.389   2.669   4.129 -0.7869 -1.7523  1.2278
   17MOL   H285 5437   3.332   2.458   4.206  0.1175  1.4120 -1.4152
   17MOL   H286 5438   3.368   2.218   4.243 -1.4934  1.9279  1.7544
   17MOL   H287 5439   3.604   2.136   4.249  0.4889  0.3183  2.3723
   17MOL   H288 5440   3.785   2.294   4.203  0.3611  1.3150 -0.0214
   17MOL   H289 5441   3.746   2.542   4.164 -0.9507  1.8639  0.0885
   17MOL   C290 5442   3.521   2.765   4.264 -0.7698  0.3781  0.6026
   17MOL   C291 5443   3.456   2.738   4.401 -0.3272 -0.5510 -0.3933
   17MOL   C292 5444   3.548   2.796   4.509 -0.5253 -1.0324 -0.1703
   17MOL   C293 5445   3.604   2.712   4.609  0.6729 -0.1882  0.3912
   17MOL   C294 5446   3.667   2.768   4.724 -0.1772  0.2841  0.2399
   17MOL   C295 5447   3.686   2.909   4.732  0.0190 -0.3256 -1.0584
   17MOL   C296 5448   3.637   2.995   4.639 -0.5042 -0.2784 -0.6086
   17MOL   C297 5449   3.563   2.938   4.531  1.0511  0.3183  0.2549
   17MOL   H298 5450   3.499   2.866   4.229  2.5146  1.4981  1.6101
   17MOL   H299 5451   3.628   2.765   4.286 -0.6162  0.6676 -0.1044
   17MOL   H300 5452   3.449   2.630   4.408  0.2054 -0.4209  2.8899
   17MOL   H301 5453   3.595   2.604   4.610 -2.5072  0.0474  1.5229
   17MOL   H302 5454   3.709   2.704   4.800  0.2321 -0.7303 -0.8213
   17MOL   H303 5455   3.745   2.937   4.818 -1.6631 -2.6715  0.9648
   17MOL   H304 5456   3.633   3.103   4.645 -3.2019 -0.2787 -1.6835
   17MOL   H305 5457   3.510   2.997   4.457 -1.3733  1.9671  3.2335
   17MOL   C306 5458   3.312   2.776   4.418  0.6208  0.0767  0.3850
   17MOL   C307 5459   3.238   2.743   4.549 -0.6732 -0.1186 -0.3942
   17MOL   C308 5460   3.236   2.592   4.566 -0.4635  1.1294 -0.0040
   17MOL   C309 5461   3.165   2.508   4.477 -0.2551  0.0938  0.0475
   17MOL   C310 5462   3.163   2.369   4.497 -0.2027  0.2938  0.2826
   17MOL   C311 5463   3.243   2.313   4.596  0.0321  0.5901  0.6928
   17MOL   C312 5464   3.315   2.396   4.684 -0.1811 -0.4555 -0.0673
   17MOL   C313 5465   3.314   2.533   4.669  0.2842 -0.5478  0.2273
   17MOL   H314 5466   3.251   2.728   4.342  2.5493 -1.6906 -0.0852
   17MOL   H315 5467   3.300   2.884   4.409 -0.3263 -0.2485 -2.6945
   17MOL   H316 5468   3.135   2.780   4.544 -0.7536 -0.2053  0.5469
   17MOL   H317 5469   3.098   2.548   4.402 -0.3653 -0.2295 -0.0303
   17MOL   H318 5470   3.105   2.307   4.431 -1.5273  2.6448 -0.8313
   17MOL   H319 5471   3.243   2.209   4.624  0.0312  1.2685  3.3418
   17MOL   H320 5472   3.378   2.354   4.761 -0.4848  0.8909  0.9282
   17MOL   H321 5473   3.365   2.599   4.736 -1.6605 -1.6763  2.9367
   17MOL   H322 5474   3.286   2.797   4.630  0.7542 -2.0628  0.0843
   18MOL     C1 5475   5.523   0.814   0.607 -0.0485 -0.0240  1.0132
   18MOL     C2 5476   5.619   0.927   0.559 -0.1487 -0.1365 -0.7500
   18MOL     C3 5477   5.715   0.970   0.670  0.3147 -0.3067  0.5928
   18MOL     C4 5478   5.830   0.894   0.689  0.0215  0.1519 -1.3377
   18MOL     C5 5479   5.922   0.917   0.792  0.1625 -0.0154  0.3129
   18MOL     C6 5480   5.888   1.013   0.888 -0.3026 -0.1611  0.4572
   18MOL     C7 5481   5.782   1.099   0.858  0.0388  0.5550 -0.3418
   18MOL     C8 5482   5.692   1.082   0.748  0.4149 -0.5072 -0.5433
   18MOL     H9 5483   5.447   0.801   0.531 -1.5221  0.3716  2.3982
   18MOL    H10 5484   5.588   0.730   0.632 -0.7450 -1.3093 -1.3953
   18MOL    H11 5485   5.558   1.014   0.535  2.6073  1.6848 -1.3645
   18MOL    H12 5486   5.849   0.812   0.621 -2.3612 -1.5736 -0.0148
   18MOL    H13 5487   6.016   0.865   0.805 -0.6829 -1.4516  0.8142
   18MOL    H14 5488   5.954   1.030   0.972 -0.6061 -0.0088  0.6642
   18MOL    H15 5489   5.769   1.187   0.920 -0.7722  0.7345 -0.7607
   18MOL    H16 5490   5.612   1.153   0.733 -2.3007 -3.7743 -2.0251
   18MOL    H17 5491   5.467   0.844   0.696 -0.9239  0.0387  0.4411
   18MOL    C18 5492   5.689   0.887   0.425 -0.4031  0.6661  0.1128
   18MOL    C19 5493   5.589   0.877   0.300 -0.5600  0.2685 -1.5230
   18MOL    C20 5494   5.661   0.955   0.189 -0.4534  0.7820  0.1688
   18MOL    C21 5495   5.772   0.901   0.115 -0.0366 -0.1329  0.0539
   18MOL    C22 5496   5.848   0.984   0.031 -0.0434 -0.5334 -0.3856
   18MOL    C23 5497   5.815   1.119   0.017 -0.4490 -0.0436  0.5905
   18MOL    C24 5498   5.705   1.175   0.080 -0.6536  0.2060 -0.3457
   18MOL    C25 5499   5.625   1.090   0.169 -1.1401  0.1563  0.0454
   18MOL    H26 5500   5.754   0.800   0.422 -0.3560  0.5542  3.0414
   18MOL    H27 5501   5.742   0.981   0.407  1.5298 -0.3992  0.1198
   18MOL    H28 5502   5.495   0.923   0.329  0.4609  1.3361  0.1602
   18MOL    H29 5503   5.802   0.798   0.130 -0.8678 -0.4306 -0.2846
   18MOL    H30 5504   5.935   0.948   8.092  1.4788  1.8852  0.3635
   18MOL    H31 5505   5.874   1.187   8.072  1.3595 -0.0882  2.2719
   18MOL    H32 5506   5.679   1.280   0.074  0.9017  0.6195 -0.1192
   18MOL    H33 5507   5.538   1.122   0.224 -0.5736  0.5954  0.6833
   18MOL    C34 5508   5.562   0.731   0.272 -0.0266  0.3383  0.0021
   18MOL    C35 5509   5.469   0.701   0.150  0.0210  0.4919  0.0792
   18MOL    C36 5510   5.465   0.545   0.138 -0.5253  0.7497 -0.0751
   18MOL    C37 5511   5.401   0.464   0.231  0.3562 -0.8143  0.4710
   18MOL    C38 5512   5.391   0.326   0.203  0.0775 -0.1126  0.1937
   18MOL    C39 5513   5.435   0.266   0.082 -0.0312  0.1070 -0.4368
   18MOL    C40 5514   5.516   0.351   8.112 -0.1281 -0.6982  0.5456
   18MOL    C41 5515   5.523   0.491   0.022  0.2181 -0.2333 -0.0302
   18MOL    H42 5516   5.521   0.676   0.357  2.9756 -1.0085  0.6350
   18MOL    H43 5517   5.663   0.692   0.267 -0.0465  0.4244 -1.1798
   18MOL    H44 5518   5.529   0.742   0.069  0.8013  0.3724  0.5889
   18MOL    H45 5519   5.355   0.496   0.324 -1.6006  0.3063 -0.8475
   18MOL    H46 5520   5.331   0.274   0.276  0.0362 -1.0629 -0.4999
   18MOL    H47 5521   5.423   0.159   0.082  1.5195 -0.0803 -0.3160
   18MOL    H48 5522   5.573   0.306   8.032  0.3250 -1.2108  1.1484
   18MOL    H49 5523   5.585   0.552   8.072 -0.6508  0.5843 -0.1011
   18MOL    C50 5524   5.328   0.756   0.156  0.1108  0.9131 -0.3693
   18MOL    C51 5525   5.307   0.884   0.063  0.7918  0.2293 -0.1554
   18MOL    C52 5526   5.360   0.873   8.036 -0.3372  0.2239  0.6174
   18MOL    C53 5527   5.306   0.776   7.954 -0.5304  0.5386 -0.2712
   18MOL    C54 5528   5.350   0.763   7.816  0.2641 -0.2683 -0.0314
   18MOL    C55 5529   5.447   0.854   7.760  0.3325  0.1330 -0.3934
   18MOL    C56 5530   5.509   0.946   7.854  0.3711 -0.0845  0.2574
   18MOL    C57 5531   5.457   0.959   7.988 -0.9356 -0.0796 -0.2541
   18MOL    H58 5532   5.301   0.776   0.260  0.0285  3.7782 -0.8989
   18MOL    H59 5533   5.268   0.676   0.113 -0.0458  1.0885 -0.4780
   18MOL    H60 5534   5.379   0.958   0.097 -0.2903  0.5467  1.4996
   18MOL    H61 5535   5.234   0.706   7.993 -0.1836  1.0262  1.2689
   18MOL    H62 5536   5.305   0.688   7.752  2.2748 -1.1386 -0.4479
   18MOL    H63 5537   5.475   0.843   7.657  1.2817 -1.2811  0.0003
   18MOL    H64 5538   5.584   1.018   7.822  1.6048 -1.2508  0.5082
   18MOL    H65 5539   5.492   1.038   8.053 -1.0523  1.3738 -1.9177
   18MOL    C66 5540   5.162   0.931   0.067 -0.6335  0.4174  0.7995
   18MOL    C67 5541   5.105   0.974   0.210  0.6424 -0.1838  0.0300
   18MOL    C68 5542   5.083   1.122   0.218  0.0730 -0.2411 -0.3803
   18MOL    C69 5543   5.185   1.205   0.266 -0.4070 -0.1887 -0.1205
   18MOL    C70 5544   5.163   1.342   0.269  0.1098 -0.2132 -0.3260
   18MOL    C71 5545   5.035   1.399   0.239  0.2504 -0.4440 -0.2706
   18MOL    C72 5546   4.938   1.315   0.179 -0.0567  0.1268  0.5261
   18MOL    C73 5547   4.965   1.177   0.166  0.6514  0.2700  0.1756
   18MOL    H74 5548   5.115   0.842   0.024  3.0035 -0.0649 -2.5380
   18MOL    H75 5549   5.145   1.011   8.110  3.2647  0.0856 -0.6833
   18MOL    H76 5550   5.176   0.962   0.291  0.0842  0.2925  0.5974
   18MOL    H77 5551   5.278   1.165   0.303 -0.9057 -1.1916  0.0402
   18MOL    H78 5552   5.239   1.409   0.306 -1.9896  2.5947 -0.9549
   18MOL    H79 5553   5.010   1.504   0.231 -0.4174 -0.5187  0.7789
   18MOL    H80 5554   4.847   1.366   0.151  0.1982 -0.8023 -2.0630
   18MOL    H81 5555   4.886   1.112   0.132  0.8287  0.4660 -0.6095
   18MOL    C82 5556   4.974   0.903   0.248  0.0423  0.2930  0.6314
   18MOL    C83 5557   4.997   0.759   0.283 -0.3536 -0.2713  0.5483
   18MOL    C84 5558   5.071   0.729   0.417  0.4153 -0.7787  0.1444
   18MOL    C85 5559   5.113   0.595   0.436 -0.8795  0.3806  0.5868
   18MOL    C86 5560   5.170   0.546   0.557 -0.5773 -0.5949 -0.6356
   18MOL    C87 5561   5.183   0.639   0.660  0.5683 -0.1421  0.1227
   18MOL    C88 5562   5.147   0.773   0.645 -0.1907  0.1614  0.0067
   18MOL    C89 5563   5.093   0.820   0.522 -0.0201  0.4759 -0.3919
   18MOL    H90 5564   4.908   0.901   0.162 -1.8689  2.4539  2.0101
   18MOL    H91 5565   4.926   0.949   0.334  0.7789 -2.2654  2.4690
   18MOL    H92 5566   5.059   0.713   0.206  0.4000 -0.0907  1.0467
   18MOL    H93 5567   5.100   0.520   0.360  4.0905  0.8498 -0.9423
   18MOL    H94 5568   5.203   0.443   0.566 -1.1248 -0.6575  0.8733
   18MOL    H95 5569   5.216   0.617   0.761 -0.5944  1.1468  0.8115
   18MOL    H96 5570   5.173   0.846   0.720  0.8343  0.3692 -0.5369
   18MOL    H97 5571   5.063   0.924   0.522  1.4277  0.9136  1.3843
   18MOL    C98 5572   4.856   0.686   0.279  0.1230 -0.2309 -0.4183
   18MOL    C99 5573   4.846   0.608   0.142 -0.4906  0.4132  0.1302
   18MOL   C100 5574   4.907   0.467   0.151  0.3038 -0.5752 -0.0004
   18MOL   C101 5575   4.843   0.371   0.231 -0.0461  0.2820  0.3028
   18MOL   C102 5576   4.907   0.246   0.250  0.0333  0.0894 -0.1937
   18MOL   C103 5577   5.023   0.206   0.187 -0.1395  0.6149  0.2014
   18MOL   C104 5578   5.081   0.306   0.105 -0.5831  0.7687 -0.7831
   18MOL   C105 5579   5.027   0.436   0.086 -0.0175  0.3951  1.0055
   18MOL   H106 5580   4.768   0.750   0.291  2.0999  2.5865 -0.4762
   18MOL   H107 5581   4.836   0.604   0.347 -2.0992  1.4722  1.0797
   18MOL   H108 5582   4.908   0.654   0.064 -0.2800 -0.3438 -0.1591
   18MOL   H109 5583   4.749   0.385   0.281 -1.0632 -0.6090 -1.3213
   18MOL   H110 5584   4.858   0.177   0.318  0.9072 -0.5455 -0.1948
   18MOL   H111 5585   5.075   0.112   0.193  0.8212  1.1327  0.0770
   18MOL   H112 5586   5.176   0.288   0.056  0.7153  1.0215  1.5866
   18MOL   H113 5587   5.082   0.513   0.033  0.4980  0.0625  1.0500
   18MOL   C114 5588   4.703   0.608   0.076  0.3838  0.2562 -0.2973
   18MOL   C115 5589   4.692   0.718   8.085 -0.5055 -0.1327  0.8909
   18MOL   C116 5590   4.778   0.684   7.960 -0.1815  0.3212  0.1183
   18MOL   C117 5591   4.773   0.552   7.905  0.1327 -0.2428  0.2975
   18MOL   C118 5592   4.859   0.520   7.804 -0.0689 -0.3908 -0.7065
   18MOL   C119 5593   4.964   0.612   7.767  0.1532 -0.2035 -0.4828
   18MOL   C120 5594   4.972   0.747   7.819 -0.5233 -0.3980  0.2022
   18MOL   C121 5595   4.876   0.776   7.918  0.3216  0.7135  0.3428
   18MOL   H122 5596   4.627   0.627   0.152 -0.3026  1.0613 -1.1685
   18MOL   H123 5597   4.683   0.509   0.035 -1.8808  0.5544  0.0207
   18MOL   H124 5598   4.727   0.815   0.003  0.4123  0.5435 -1.9855
   18MOL   H125 5599   4.696   0.482   7.933 -0.3556 -0.6804 -2.0416
   18MOL   H126 5600   4.844   0.421   7.763 -1.3348 -1.6410  2.5361
   18MOL   H127 5601   5.044   0.586   7.699  0.0874 -1.4580 -0.0866
   18MOL   H128 5602   5.050   0.814   7.783  0.0118 -0.8008  0.6152
   18MOL   H129 5603   4.895   0.873   7.962  0.2734  0.6523  0.4991
   18MOL   C130 5604   4.543   0.750   8.044 -0.8226  0.6932 -0.1837
   18MOL   C131 5605   4.448   0.823   0.035  0.8214  0.1863  0.5759
   18MOL   C132 5606   4.516   0.934   0.114 -0.6354 -0.0509  0.5964
   18MOL   C133 5607   4.560   0.904   0.244  0.3197 -0.0910 -0.5771
   18MOL   C134 5608   4.620   0.996   0.327 -0.4647  0.3003 -0.1467
   18MOL   C135 5609   4.644   1.123   0.279 -0.8788  0.2249  0.1554
   18MOL   C136 5610   4.614   1.158   0.143  0.3912 -0.1428 -0.0051
   18MOL   C137 5611   4.538   1.066   0.059 -0.2907  0.2847 -0.0551
   18MOL   H138 5612   4.491   0.668   7.995  1.6012  0.4380 -2.4327
   18MOL   H139 5613   4.562   0.820   7.963 -0.7805  1.9394  0.8921
   18MOL   H140 5614   4.427   0.744   0.107  2.8658 -1.9932 -1.1108
   18MOL   H141 5615   4.542   0.803   0.279  0.9346 -0.2619 -0.7366
   18MOL   H142 5616   4.650   0.966   0.426 -0.6357  2.4531  0.5815
   18MOL   H143 5617   4.693   1.193   0.345 -0.0250  0.3888 -0.6407
   18MOL   H144 5618   4.641   1.256   0.107  0.9032  0.0604  0.9228
   18MOL   H145 5619   4.513   1.095   8.073 -1.0163 -0.6700 -0.1513
   18MOL   C146 5620   4.320   0.873   8.089  0.1520 -0.4195 -0.2887
   18MOL   C147 5621   4.214   0.773   8.059 -0.2714  0.0338 -0.4006
   18MOL   C148 5622   4.162   0.698   0.060  0.1225  0.0059 -0.6492
   18MOL   C149 5623   4.147   0.558   0.047  0.2089  0.3699  0.4815
   18MOL   C150 5624   4.107   0.473   0.156  0.0415 -0.7018 -0.2817
   18MOL   C151 5625   4.091   0.538   0.282 -0.0031  0.2957  0.4990
   18MOL   C152 5626   4.104   0.676   0.299 -0.6370 -0.0473  0.0483
   18MOL   C153 5627   4.139   0.758   0.189  0.4740 -0.2029  0.2675
   18MOL   H154 5628   4.345   0.931   8.000 -1.1771  1.7925  0.7241
   18MOL   H155 5629   4.280   0.943   0.048  0.8542 -2.3592  1.9818
   18MOL   H156 5630   4.269   0.698   8.002 -0.7458 -0.7394  0.1605
   18MOL   H157 5631   4.145   0.513   8.063 -1.5136  3.5641 -0.9859
   18MOL   H158 5632   4.095   0.365   0.161 -2.4357 -0.5613 -2.3296
   18MOL   H159 5633   4.055   0.478   0.363 -0.8917 -1.1086 -0.9162
   18MOL   H160 5634   4.076   0.731   0.387 -1.9744 -1.1326  0.3087
   18MOL   H161 5635   4.165   0.862   0.205 -0.6918  0.1331  0.0081
   18MOL   C162 5636   4.094   0.829   7.978  0.9731  0.0388 -0.1575
   18MOL   C163 5637   4.107   0.851   7.825 -0.0673 -0.4909 -0.6125
   18MOL   C164 5638   4.119   0.718   7.744 -0.9589 -0.1337  0.3061
   18MOL   C165 5639   4.014   0.626   7.753 -0.5714 -0.1823  0.5101
   18MOL   C166 5640   4.040   0.498   7.697 -0.3631 -0.7770  0.0339
   18MOL   C167 5641   4.157   0.454   7.632  0.6194  0.7221 -0.5406
   18MOL   C168 5642   4.254   0.551   7.619  0.1847 -0.5446 -0.1188
   18MOL   C169 5643   4.239   0.682   7.671  0.3290 -0.0973 -0.2224
   18MOL   H170 5644   4.064   0.922   8.026  1.3302  0.1006 -0.0530
   18MOL   H171 5645   4.010   0.764   8.001 -0.3398  2.1458  1.0518
   18MOL   H172 5646   4.204   0.899   7.812 -1.2846  1.8222 -1.4818
   18MOL   H173 5647   3.924   0.655   7.804  1.0934  3.6627  1.4710
   18MOL   H174 5648   3.968   0.420   7.716 -0.8544  0.1204  1.9256
   18MOL   H175 5649   4.171   0.359   7.583 -0.7936 -0.3952  1.1477
   18MOL   H176 5650   4.347   0.538   7.564  0.5800  0.9988  0.1852
   18MOL   H177 5651   4.319   0.755   7.669  0.2426  0.0004 -0.1078
   18MOL   C178 5652   4.009   0.955   7.770 -1.0481  0.0288 -0.2860
   18MOL   C179 5653   4.047   0.993   7.627 -0.6179 -1.0137  0.2634
   18MOL   C180 5654   3.938   0.966   7.523  0.1719  0.2692 -0.0625
   18MOL   C181 5655   3.964   0.874   7.412 -0.9622 -0.1915 -0.2271
   18MOL   C182 5656   3.869   0.854   7.311  0.3469  0.2351 -0.3929
   18MOL   C183 5657   3.747   0.915   7.317 -0.8255 -0.3204  1.2947
   18MOL   C184 5658   3.716   1.004   7.425 -0.2019 -0.2597 -0.7099
   18MOL   C185 5659   3.812   1.021   7.528  0.1002 -0.6490  0.7680
   18MOL   H186 5660   4.010   1.042   7.837  1.2142  2.1336 -2.9381
   18MOL   H187 5661   3.911   0.908   7.774 -0.0160 -2.4887 -2.9572
   18MOL   H188 5662   4.129   0.928   7.599 -0.7353 -1.5090  1.0733
   18MOL   H189 5663   4.058   0.823   7.396 -0.3854  1.3372 -1.8679
   18MOL   H190 5664   3.897   0.791   7.228  0.6797 -0.3398  0.1512
   18MOL   H191 5665   3.683   0.891   7.234  0.3153 -1.7164  0.7973
   18MOL   H192 5666   3.624   1.061   7.430 -0.2464 -0.2725 -1.3156
   18MOL   H193 5667   3.794   1.086   7.613  2.6835  1.1011  0.0579
   18MOL   C194 5668   4.113   1.134   7.605 -0.1742  0.2619 -0.4034
   18MOL   C195 5669   4.242   1.178   7.684 -0.2331 -0.5392 -0.9324
   18MOL   C196 5670   4.364   1.083   7.675 -0.3222 -0.8324 -0.0111
   18MOL   C197 5671   4.395   1.007   7.558  0.4002 -0.2482 -0.1178
   18MOL   C198 5672   4.509   0.928   7.546  0.5189  0.5397  0.2309
   18MOL   C199 5673   4.596   0.924   7.654 -0.3896  0.2585 -0.3949
   18MOL   C200 5674   4.575   1.001   7.765  0.2498 -0.1601 -0.5027
   18MOL   C201 5675   4.461   1.078   7.774 -0.3712  0.0511 -0.7127
   18MOL   H202 5676   4.036   1.211   7.616 -0.8320 -0.2361 -1.4890
   18MOL   H203 5677   4.138   1.139   7.499 -0.8831  0.5476 -0.5616
   18MOL   H204 5678   4.213   1.185   7.789  1.5365 -1.5183 -0.3562
   18MOL   H205 5679   4.330   1.016   7.473 -0.5912  0.8908  0.7406
   18MOL   H206 5680   4.533   0.883   7.451  0.8810 -2.5871  1.7220
   18MOL   H207 5681   4.686   0.867   7.638 -2.7497 -3.6341 -0.4204
   18MOL   H208 5682   4.652   1.010   7.840 -0.5646 -0.8373  0.4298
   18MOL   H209 5683   4.452   1.142   7.861 -0.4212 -0.6634 -0.1834
   18MOL   C210 5684   4.264   1.319   7.632  0.0290 -0.5494 -0.1999
   18MOL   C211 5685   4.176   1.438   7.679  0.3723  0.3716 -0.9329
   18MOL   C212 5686   4.143   1.437   7.828  0.3757 -0.3621  0.9226
   18MOL   C213 5687   4.231   1.494   7.921 -0.9011 -0.4580 -0.1812
   18MOL   C214 5688   4.204   1.484   8.058  0.4728 -0.1126 -0.0694
   18MOL   C215 5689   4.086   1.423   8.105 -0.1750  0.1753 -0.1528
   18MOL   C216 5690   3.995   1.382   8.011 -0.0626  0.0542  0.0406
   18MOL   C217 5691   4.026   1.385   7.871 -0.3149 -0.4847 -0.4250
   18MOL   H218 5692   4.273   1.332   7.524  1.7173 -2.3122 -0.3028
   18MOL   H219 5693   4.360   1.342   7.677 -0.3556  0.5145  0.0833
   18MOL   H220 5694   4.081   1.426   7.628 -0.3817 -0.8155  0.6999
   18MOL   H221 5695   4.326   1.530   7.884 -0.1327 -3.0922 -0.9377
   18MOL   H222 5696   4.278   1.512   0.017 -0.4833  0.1425  0.7929
   18MOL   H223 5697   4.063   1.428   0.096  0.0692 -3.4932  0.1281
   18MOL   H224 5698   3.895   1.357   8.040 -0.1555  0.8317  0.4056
   18MOL   H225 5699   3.953   1.353   7.798 -0.0361 -1.8401 -0.1109
   18MOL   C226 5700   4.249   1.563   7.618 -0.7101  0.4983 -0.3095
   18MOL   C227 5701   4.177   1.699   7.642  0.1932  0.1515 -0.7298
   18MOL   C228 5702   4.272   1.815   7.617  0.8977 -0.2042 -0.0275
   18MOL   C229 5703   4.279   1.909   7.721  0.5898 -0.9900  0.3684
   18MOL   C230 5704   4.371   2.013   7.707 -0.2840 -0.7176  0.1312
   18MOL   C231 5705   4.454   2.024   7.595 -1.0293 -0.1869  0.5013
   18MOL   C232 5706   4.450   1.928   7.494  0.2917 -0.6268  0.1712
   18MOL   C233 5707   4.352   1.821   7.502 -0.1887  0.4295  0.0700
   18MOL   H234 5708   4.257   1.549   7.510  1.8192 -0.2779 -0.0591
   18MOL   H235 5709   4.353   1.567   7.651 -0.2845 -1.5715 -1.2740
   18MOL   H236 5710   4.154   1.698   7.749  0.5064  1.0602 -0.6515
   18MOL   H237 5711   4.216   1.903   7.809 -0.2645  0.8289 -0.0921
   18MOL   H238 5712   4.379   2.091   7.782  0.0923  0.1245 -0.7778
   18MOL   H239 5713   4.529   2.101   7.582  0.6730 -1.6618  1.4037
   18MOL   H240 5714   4.512   1.928   7.406  0.9691 -2.4333  0.6262
   18MOL   H241 5715   4.351   1.748   7.423 -0.7301  1.2310 -0.6684
   18MOL   C242 5716   4.041   1.718   7.565 -0.6367  0.9853 -0.0845
   18MOL   C243 5717   3.969   1.847   7.584 -0.1730 -0.1317  0.4729
   18MOL   C244 5718   3.972   1.934   7.459  0.9571 -0.6657  0.6961
   18MOL   C245 5719   4.074   2.028   7.441 -0.2645 -0.7039  0.2057
   18MOL   C246 5720   4.069   2.125   7.339 -0.5352 -0.5933  0.0550
   18MOL   C247 5721   3.957   2.135   7.253 -0.3577  0.6756  0.7994
   18MOL   C248 5722   3.855   2.034   7.268 -0.5624  0.1379  0.2337
   18MOL   C249 5723   3.866   1.938   7.371  1.3923  0.5927  0.0370
   18MOL   H250 5724   3.972   1.635   7.579 -0.3165  0.8730  0.8424
   18MOL   H251 5725   4.056   1.703   7.458 -1.2630 -2.9268  0.3232
   18MOL   H252 5726   4.031   1.905   7.652  2.3579 -1.4176 -0.6474
   18MOL   H253 5727   4.156   2.043   7.508 -0.7378  1.9660  0.2379
   18MOL   H254 5728   4.151   2.195   7.329  0.5557 -1.4271  2.7271
   18MOL   H255 5729   3.953   2.200   7.167 -2.3326  0.0876  0.4205
   18MOL   H256 5730   3.769   2.035   7.203  0.0075  1.1319 -0.5021
   18MOL   H257 5731   3.782   1.870   7.377  0.8265  1.1527 -1.3865
   18MOL   C258 5732   3.828   1.829   7.645 -0.2378 -0.1793  0.0301
   18MOL   C259 5733   3.815   1.773   7.786  0.1984  0.6716  0.0304
   18MOL   C260 5734   3.909   1.839   7.892 -0.5291 -0.5144 -0.0485
   18MOL   C261 5735   3.915   1.981   7.908 -0.0890 -0.1920 -0.0647
   18MOL   C262 5736   4.003   2.035   8.002  0.1789 -0.5014  0.3319
   18MOL   C263 5737   4.078   1.947   8.082  0.5217  0.1290 -0.0820
   18MOL   C264 5738   4.077   1.806   8.064  0.6938  0.2738  0.1302
   18MOL   C265 5739   3.996   1.757   7.965 -0.0688  0.1193  0.7842
   18MOL   H266 5740   3.775   1.758   7.581  1.6647 -1.4580 -0.1524
   18MOL   H267 5741   3.792   1.932   7.645 -0.6871 -0.3253 -1.1921
   18MOL   H268 5742   3.840   1.667   7.786  1.1080  0.8487 -3.1121
   18MOL   H269 5743   3.851   2.047   7.853 -0.5241  0.1549  0.8439
   18MOL   H270 5744   4.010   2.142   8.013 -2.2391 -0.1886 -0.9088
   18MOL   H271 5745   4.145   1.994   0.037 -0.0812  1.2475 -0.2298
   18MOL   H272 5746   4.145   1.739   0.000 -0.9475 -1.3188  0.2676
   18MOL   H273 5747   3.999   1.650   7.949  0.4770  0.5936 -2.7945
   18MOL   C274 5748   3.666   1.780   7.842  0.2143  0.6120  0.3147
   18MOL   C275 5749   3.563   1.690   7.774  0.4859 -0.0379 -0.3635
   18MOL   C276 5750   3.587   1.547   7.802  0.4009 -0.0705 -0.1370
   18MOL   C277 5751   3.582   1.464   7.688 -0.1937  0.0789 -0.2532
   18MOL   C278 5752   3.594   1.325   7.703 -0.7056  0.2732  0.5560
   18MOL   C279 5753   3.594   1.264   7.826 -0.3690  0.0320  0.0382
   18MOL   C280 5754   3.592   1.351   7.938  0.0037 -0.1799 -0.2226
   18MOL   C281 5755   3.589   1.489   7.927 -0.4763  0.0575 -0.0597
   18MOL   H282 5756   3.632   1.884   7.837 -2.0266 -0.1558 -1.6332
   18MOL   H283 5757   3.664   1.748   7.946  2.1749 -0.8023 -0.0642
   18MOL   H284 5758   3.572   1.705   7.666  1.7082 -2.4652 -0.6226
   18MOL   H285 5759   3.568   1.500   7.588 -1.5049  1.5420  0.4457
   18MOL   H286 5760   3.582   1.264   7.614  0.7028 -0.5847  0.9511
   18MOL   H287 5761   3.603   1.159   7.849  2.1741  0.0074 -0.9368
   18MOL   H288 5762   3.598   1.317   8.041 -0.6868  0.9326  0.2033
   18MOL   H289 5763   3.602   1.551   8.015  1.1185  0.7382 -0.7530
   18MOL   C290 5764   3.413   1.730   7.801  0.7363  0.1103 -0.0457
   18MOL   C291 5765   3.301   1.620   7.794 -0.4013 -0.7922 -0.5094
   18MOL   C292 5766   3.187   1.635   7.896  0.2752  0.4730  1.0231
   18MOL   C293 5767   3.113   1.751   7.892 -0.2103  0.2340 -0.1066
   18MOL   C294 5768   3.006   1.766   7.985  0.0875 -0.0929 -0.6205
   18MOL   C295 5769   2.978   1.669   8.078 -0.1014  0.0477 -0.3168
   18MOL   C296 5770   3.049   1.550   8.080  0.5614 -0.7179 -0.7595
   18MOL   C297 5771   3.156   1.533   7.988 -0.1619  0.0309 -0.0027
   18MOL   H298 5772   3.384   1.818   7.744 -1.6359  0.6493  1.9413
   18MOL   H299 5773   3.426   1.765   7.903 -1.2780  1.0622 -0.1039
   18MOL   H300 5774   3.339   1.522   7.823  0.2267 -0.6484 -0.8408
   18MOL   H301 5775   3.138   1.815   7.809  1.6752 -0.9860 -0.5049
   18MOL   H302 5776   2.951   1.859   7.987  0.9694  0.4209 -0.2522
   18MOL   H303 5777   2.896   1.690   0.031  1.0493  2.1789  0.4454
   18MOL   H304 5778   3.039   1.476   0.043  1.0971 -0.7985 -0.7634
   18MOL   H305 5779   3.222   1.448   7.997  0.9668  0.6544 -2.0530
   18MOL   C306 5780   3.246   1.603   7.654 -0.4563 -0.1235 -0.2783
   18MOL   C307 5781   3.172   1.467   7.641 -0.0579 -0.1301 -0.4588
   18MOL   C308 5782   3.134   1.436   7.498  0.7156  0.0685  0.1111
   18MOL   C309 5783   2.997   1.438   7.454  0.3048  1.1720 -0.8105
   18MOL   C310 5784   2.973   1.412   7.317  0.3517 -0.1524  0.1118
   18MOL   C311 5785   3.075   1.388   7.226 -0.7184 -0.4638 -0.7649
   18MOL   C312 5786   3.209   1.401   7.266  0.5969 -0.5061  0.2583
   18MOL   C313 5787   3.229   1.431   7.403  0.1148 -0.4346 -0.6154
   18MOL   H314 5788   3.334   1.601   7.590 -0.9873 -0.2113 -1.0100
   18MOL   H315 5789   3.180   1.687   7.634 -1.3389 -0.4388  1.2705
   18MOL   H316 5790   3.088   1.460   7.710 -0.5570 -2.0011 -1.2430
   18MOL   H317 5791   2.920   1.456   7.527 -0.1538 -1.7421 -0.5437
   18MOL   H318 5792   2.870   1.410   7.284  1.0125 -0.2366 -2.0410
   18MOL   H319 5793   3.053   1.350   7.127  1.7941  1.4559 -2.1225
   18MOL   H320 5794   3.288   1.389   7.193  0.0268  0.9097 -0.6206
   18MOL   H321 5795   3.329   1.441   7.443  0.2671 -0.9392 -0.8709
   18MOL   H322 5796   3.232   1.386   7.683 -1.2549 -0.1556  1.2567
   19MOL     C1 5797   5.881   2.721   5.392 -0.0247 -0.1373  0.7111
   19MOL     C2 5798   5.786   2.841   5.395 -0.2585 -0.3237 -0.3677
   19MOL     C3 5799   5.697   2.850   5.271  0.7073  0.5049  0.0622
   19MOL     C4 5800   5.719   2.957   5.179  0.1650 -0.4594  0.4463
   19MOL     C5 5801   5.643   2.965   5.057 -0.0465 -0.1319  0.1561
   19MOL     C6 5802   5.549   2.872   5.020 -0.1259 -0.2386 -0.9793
   19MOL     C7 5803   5.526   2.768   5.117  0.1431  0.5334  0.5996
   19MOL     C8 5804   5.595   2.752   5.240  0.0763 -0.4159  0.3784
   19MOL     H9 5805   5.944   2.703   5.478  0.3272 -1.7246  0.1417
   19MOL    H10 5806   5.821   2.630   5.379 -1.9933  1.1922  0.1480
   19MOL    H11 5807   5.850   2.930   5.399 -0.6357 -0.1040  0.9222
   19MOL    H12 5808   5.802   3.025   5.195  0.1939 -0.1173 -1.1243
   19MOL    H13 5809   5.657   3.046   4.987  0.8946 -1.2732 -0.9884
   19MOL    H14 5810   5.489   2.879   4.931 -0.8385  1.1634 -0.3926
   19MOL    H15 5811   5.441   2.708   5.088  1.7862 -1.1825 -0.8468
   19MOL    H16 5812   5.581   2.666   5.304  2.7557 -0.9005  0.3991
   19MOL    H17 5813   5.939   2.729   5.300 -1.7071  0.9344 -0.3035
   19MOL    C18 5814   5.703   2.834   5.523  0.1926  0.8595 -0.5296
   19MOL    C19 5815   5.682   2.974   5.585 -0.4757 -0.0869 -0.6055
   19MOL    C20 5816   5.642   3.081   5.485  0.2218  0.3117 -0.1718
   19MOL    C21 5817   5.722   3.192   5.456 -0.6528  0.0876  0.5007
   19MOL    C22 5818   5.683   3.285   5.354  0.1442 -0.2375  0.1111
   19MOL    C23 5819   5.568   3.257   5.277 -0.3416  0.0314 -0.2509
   19MOL    C24 5820   5.479   3.155   5.320 -0.5082  0.2102 -0.1821
   19MOL    C25 5821   5.521   3.061   5.415  0.4755 -0.0896  0.7841
   19MOL    H26 5822   5.758   2.792   5.608 -0.6411 -0.3468 -0.5717
   19MOL    H27 5823   5.610   2.777   5.529  0.5544  0.4102  0.9996
   19MOL    H28 5824   5.784   3.001   5.615 -0.9845  1.8178 -0.5059
   19MOL    H29 5825   5.811   3.220   5.509 -1.4333 -0.6330  2.2504
   19MOL    H30 5826   5.739   3.376   5.336  1.2358 -1.0995 -0.8939
   19MOL    H31 5827   5.548   3.316   5.189 -0.8882 -1.7624 -1.3544
   19MOL    H32 5828   5.387   3.127   5.270 -0.0800 -0.3581 -0.6524
   19MOL    H33 5829   5.457   2.978   5.442 -1.3868  1.1347  0.2829
   19MOL    C34 5830   5.589   2.979   5.714 -0.4205 -0.1494  0.4011
   19MOL    C35 5831   5.630   2.887   5.835  0.4671 -0.2924  0.3929
   19MOL    C36 5832   5.757   2.934   5.898  0.0107  0.3811  0.6181
   19MOL    C37 5833   5.761   3.059   5.960 -0.1003 -0.7978  0.2874
   19MOL    C38 5834   5.875   3.104   6.025  0.0549  0.3586  0.1748
   19MOL    C39 5835   5.987   3.019   6.036 -0.2730 -0.0307 -0.4900
   19MOL    C40 5836   5.986   2.889   5.976 -0.0721 -0.2280 -0.1100
   19MOL    C41 5837   5.868   2.846   5.909 -0.3902  0.2904 -0.2630
   19MOL    H42 5838   5.492   2.942   5.679 -0.5449  0.5399  0.0127
   19MOL    H43 5839   5.566   3.077   5.755  1.3186  1.1263 -1.5913
   19MOL    H44 5840   5.646   2.784   5.806 -0.8802 -0.3707 -0.0880
   19MOL    H45 5841   5.670   3.118   5.961 -0.2483 -0.9292 -2.1806
   19MOL    H46 5842   5.885   3.196   6.080  0.3587 -0.2609  1.1827
   19MOL    H47 5843   6.070   3.044   6.099 -1.9175 -0.2293  1.8166
   19MOL    H48 5844   6.072   2.825   5.972 -0.1093 -0.2901  0.0600
   19MOL    H49 5845   5.850   2.755   5.854  0.0104 -0.9998  1.6796
   19MOL    C50 5846   5.510   2.864   5.929 -0.2211  0.3462  0.4756
   19MOL    C51 5847   5.540   2.799   6.068  0.0197  0.7287 -0.1892
   19MOL    C52 5848   5.411   2.808   6.153  0.4397  0.0559  0.5993
   19MOL    C53 5849   5.314   2.700   6.171  0.5271 -0.1386 -0.8950
   19MOL    C54 5850   5.197   2.719   6.243 -0.2812  0.4340  0.5059
   19MOL    C55 5851   5.172   2.847   6.305 -0.2643  0.0050  0.6404
   19MOL    C56 5852   5.266   2.950   6.295  0.3915 -0.9535 -0.0783
   19MOL    C57 5853   5.379   2.932   6.216 -0.3342  0.1088 -0.1905
   19MOL    H58 5854   5.442   2.793   5.882  2.0466 -2.4978  1.3836
   19MOL    H59 5855   5.459   2.960   5.937 -1.6963 -0.3991  0.1531
   19MOL    H60 5856   5.622   2.851   6.117 -1.0031  0.3326  2.0261
   19MOL    H61 5857   5.331   2.603   6.125  0.0111 -1.7200  2.1554
   19MOL    H62 5858   5.131   2.635   6.261  0.2425  0.2005  1.3544
   19MOL    H63 5859   5.088   2.861   6.372 -0.7032 -0.8448  0.2746
   19MOL    H64 5860   5.257   3.045   6.346  4.0794 -0.3076 -0.5212
   19MOL    H65 5861   5.458   3.006   6.211  0.6098 -0.9043 -0.7791
   19MOL    C66 5862   5.591   2.657   6.059  0.3127 -0.8008  0.3475
   19MOL    C67 5863   5.644   2.595   6.187 -0.0750  0.5018  0.0846
   19MOL    C68 5864   5.601   2.444   6.178 -0.9752  0.7322 -1.1300
   19MOL    C69 5865   5.663   2.361   6.088 -0.0817 -0.3744  0.0488
   19MOL    C70 5866   5.606   2.235   6.062 -0.0051 -0.9557 -0.0506
   19MOL    C71 5867   5.500   2.189   6.143  0.6312  0.3192 -0.8258
   19MOL    C72 5868   5.437   2.273   6.239 -0.2385 -0.5815  0.2188
   19MOL    C73 5869   5.486   2.406   6.251  0.4119  0.5189 -0.5774
   19MOL    H74 5870   5.677   2.654   5.992 -0.3041  0.1991 -0.5280
   19MOL    H75 5871   5.510   2.597   6.018 -0.3657 -1.7197  2.9363
   19MOL    H76 5872   5.587   2.637   6.271  1.5923  0.9802  0.9889
   19MOL    H77 5873   5.734   2.400   6.016  0.5522 -0.0848  0.8316
   19MOL    H78 5874   5.656   2.163   5.999 -1.7755 -2.0144 -0.2820
   19MOL    H79 5875   5.456   2.093   6.122  0.6919  0.3747 -1.2125
   19MOL    H80 5876   5.363   2.235   6.308  1.4353 -0.5506  2.0786
   19MOL    H81 5877   5.424   2.471   6.311 -0.3208  0.5012 -1.3047
   19MOL    C82 5878   5.791   2.624   6.209 -0.1535  0.1936  0.2454
   19MOL    C83 5879   5.847   2.604   6.356 -0.0036  0.2888  0.1976
   19MOL    C84 5880   5.995   2.560   6.340 -0.1122 -0.6196 -0.2265
   19MOL    C85 5881   6.085   2.650   6.279  0.6347  0.7398  0.2440
   19MOL    C86 5882   6.221   2.607   6.263 -0.1314  0.1415  0.1406
   19MOL    C87 5883   6.262   2.478   6.309  0.2643 -0.8758 -0.1012
   19MOL    C88 5884   6.171   2.392   6.377 -0.0228 -0.1199  0.2261
   19MOL    C89 5885   6.040   2.442   6.399 -0.9737 -0.1207  0.1242
   19MOL    H90 5886   5.808   2.728   6.184 -2.1314  0.7067  0.9734
   19MOL    H91 5887   5.850   2.562   6.141 -0.4817  0.1058  0.0376
   19MOL    H92 5888   5.782   2.532   6.406 -1.6603  1.0898 -0.7809
   19MOL    H93 5889   6.055   2.741   6.230 -2.0500 -0.7259 -0.9299
   19MOL    H94 5890   6.292   2.681   6.228 -0.3058  0.1958 -0.0921
   19MOL    H95 5891   6.367   2.450   6.308  1.3086  2.5776  2.9754
   19MOL    H96 5892   6.199   2.290   6.399 -0.6131 -0.0861  1.1667
   19MOL    H97 5893   5.965   2.384   6.449 -0.7994  1.6669  2.5767
   19MOL    C98 5894   5.841   2.742   6.440 -0.0539 -0.2753 -0.0959
   19MOL    C99 5895   5.706   2.796   6.492  0.2997  0.3459  0.3584
   19MOL   C100 5896   5.626   2.690   6.565  0.1074  0.0596 -0.6967
   19MOL   C101 5897   5.496   2.671   6.532 -0.3614  0.1681  0.5225
   19MOL   C102 5898   5.417   2.568   6.587 -0.2534  0.3385  0.7870
   19MOL   C103 5899   5.475   2.482   6.681 -0.7632 -0.3383  0.1116
   19MOL   C104 5900   5.608   2.503   6.723 -0.7668  0.0701  0.1141
   19MOL   C105 5901   5.684   2.607   6.668  0.0756  0.6231 -0.2643
   19MOL   H106 5902   5.891   2.818   6.380  1.5042 -0.8096  0.5008
   19MOL   H107 5903   5.904   2.736   6.529 -0.2736 -1.1458  0.0048
   19MOL   H108 5904   5.646   2.832   6.408 -0.6582 -1.8849  0.0371
   19MOL   H109 5905   5.446   2.737   6.463  0.1700 -0.9048 -0.9110
   19MOL   H110 5906   5.319   2.543   6.550  0.5690 -1.3623 -0.2851
   19MOL   H111 5907   5.415   2.406   6.730 -0.6551  0.3921  1.4203
   19MOL   H112 5908   5.641   2.449   6.810 -0.0973  2.7754  1.6154
   19MOL   H113 5909   5.780   2.638   6.706  0.9976 -0.1524 -1.8870
   19MOL   C114 5910   5.725   2.914   6.590 -0.4401  0.2215  0.2490
   19MOL   C115 5911   5.779   3.050   6.532  0.3489  0.0961  0.7199
   19MOL   C116 5912   5.671   3.121   6.451 -0.2229  1.3982 -0.6782
   19MOL   C117 5913   5.690   3.148   6.314 -0.0768  0.0639 -0.2436
   19MOL   C118 5914   5.600   3.228   6.242 -0.1596 -0.1672  0.1369
   19MOL   C119 5915   5.500   3.292   6.318  0.1899  0.9659 -0.2456
   19MOL   C120 5916   5.476   3.254   6.450  0.3661  0.5954 -0.1603
   19MOL   C121 5917   5.557   3.164   6.521  0.3232 -0.5079  0.3876
   19MOL   H122 5918   5.798   2.884   6.665  0.7104  2.7731  0.1868
   19MOL   H123 5919   5.631   2.924   6.644  0.2871 -1.7083  1.9480
   19MOL   H124 5920   5.861   3.020   6.467  0.6761  0.7616  0.8145
   19MOL   H125 5921   5.769   3.098   6.259 -0.8970  0.5284 -1.8633
   19MOL   H126 5922   5.624   3.248   6.139 -1.2635 -1.4277 -0.3725
   19MOL   H127 5923   5.449   3.376   6.273 -3.5606  0.5260  2.9320
   19MOL   H128 5924   5.407   3.301   6.518  1.5007  0.2984  1.2258
   19MOL   H129 5925   5.536   3.149   6.625 -2.1022  1.6491  0.2511
   19MOL   C130 5926   5.839   3.151   6.638  0.2842  0.4163 -0.2576
   19MOL   C131 5927   5.963   3.100   6.710 -0.8045 -0.2760  0.2822
   19MOL   C132 5928   6.077   3.080   6.608 -0.2926 -0.6572 -0.3702
   19MOL   C133 5929   6.119   2.949   6.589 -0.0511  0.2796  1.1700
   19MOL   C134 5930   6.210   2.905   6.490  0.3422  0.1316 -0.5478
   19MOL   C135 5931   6.269   3.004   6.414 -1.0145  0.1402  0.4025
   19MOL   C136 5932   6.247   3.142   6.436 -0.0653 -0.4572  0.0009
   19MOL   C137 5933   6.150   3.175   6.530  0.6044  0.2280  0.1313
   19MOL   H138 5934   5.759   3.165   6.710 -0.5728  0.2960 -1.1816
   19MOL   H139 5935   5.854   3.251   6.599 -0.6699 -0.6141 -3.4408
   19MOL   H140 5936   5.946   3.003   6.757 -0.6429  0.3387  1.6479
   19MOL   H141 5937   6.065   2.874   6.647  1.8306 -2.2080 -0.2116
   19MOL   H142 5938   6.224   2.799   6.475 -0.9668 -0.6691  3.4065
   19MOL   H143 5939   6.339   2.980   6.336 -0.3613 -0.3550  1.1388
   19MOL   H144 5940   6.295   3.220   6.380  1.6304 -1.9013 -0.5767
   19MOL   H145 5941   6.133   3.281   6.541  0.3839 -0.0171  2.3587
   19MOL   C146 5942   6.018   3.196   6.821  0.4138 -0.0902  0.2500
   19MOL   C147 5943   5.939   3.205   6.949  0.6411  0.1474  0.1259
   19MOL   C148 5944   5.956   3.074   7.029  0.5490 -0.3147  0.5719
   19MOL   C149 5945   6.074   3.044   7.103 -0.0910 -0.1967  0.2971
   19MOL   C150 5946   6.100   2.935   7.189  0.0963  0.4642  0.3755
   19MOL   C151 5947   5.993   2.841   7.193  0.3877 -0.3970 -0.1835
   19MOL   C152 5948   5.871   2.861   7.117 -0.0364  0.0589 -0.2413
   19MOL   C153 5949   5.854   2.978   7.039  0.9862  0.0746  0.1139
   19MOL   H154 5950   6.046   3.288   6.770  0.6191 -0.3763 -0.1620
   19MOL   H155 5951   6.119   3.162   6.847  0.5099 -1.4378 -1.7175
   19MOL   H156 5952   5.834   3.208   6.922  0.7884 -0.8342 -0.5930
   19MOL   H157 5953   6.149   3.121   7.106 -0.6223  0.3583 -0.6468
   19MOL   H158 5954   6.187   2.942   7.253 -0.7955  1.8186  1.4909
   19MOL   H159 5955   6.012   2.754   7.254  0.0289  0.0923  0.6335
   19MOL   H160 5956   5.795   2.784   7.105 -1.1764  1.4815 -2.7741
   19MOL   H161 5957   5.762   2.992   6.983  1.5367  1.0457 -0.5545
   19MOL   C162 5958   5.969   3.337   7.029  0.0566  0.4295  0.1751
   19MOL   C163 5959   5.914   3.464   6.966  0.1103  0.3384 -0.4963
   19MOL   C164 5960   5.783   3.456   6.891  0.6329 -0.6227 -0.3112
   19MOL   C165 5961   5.670   3.441   6.967  0.3559 -1.0045 -1.2154
   19MOL   C166 5962   5.545   3.462   6.901  0.4565  0.1811  0.0561
   19MOL   C167 5963   5.540   3.487   6.762 -0.0142 -0.3517  0.0246
   19MOL   C168 5964   5.662   3.492   6.688 -0.8962  0.3539 -0.4889
   19MOL   C169 5965   5.786   3.478   6.752  0.5751 -0.2925  0.2161
   19MOL   H170 5966   6.077   3.349   7.039  0.0879  0.4319 -0.1612
   19MOL   H171 5967   5.923   3.332   7.128  1.9120  0.1232  1.0363
   19MOL   H172 5968   5.985   3.482   6.885  0.5887 -0.8111 -0.3440
   19MOL   H173 5969   5.675   3.416   7.072 -0.2683 -2.0990 -1.4311
   19MOL   H174 5970   5.447   3.456   6.947  0.7279  1.5281  0.8317
   19MOL   H175 5971   5.448   3.504   6.707  0.0411 -0.7707 -0.2021
   19MOL   H176 5972   5.660   3.512   6.582 -0.5401  2.2107 -0.1642
   19MOL   H177 5973   5.878   3.484   6.695 -0.0946  1.1741 -0.7502
   19MOL   C178 5974   5.922   3.584   7.063 -0.3347 -0.5599 -0.3389
   19MOL   C179 5975   6.060   3.638   7.100  0.3939 -0.2766  0.0812
   19MOL   C180 5976   6.154   3.646   6.982 -0.4467 -0.8867 -0.6200
   19MOL   C181 5977   6.130   3.722   6.867 -0.2531 -0.2669 -0.4505
   19MOL   C182 5978   6.230   3.741   6.766  0.2289  0.3034  0.1839
   19MOL   C183 5979   6.349   3.675   6.764 -0.7230 -0.0332 -0.0724
   19MOL   C184 5980   6.373   3.584   6.873  0.5768  0.3977  0.1693
   19MOL   C185 5981   6.281   3.582   6.985 -0.3988 -0.3294  0.2807
   19MOL   H186 5982   5.859   3.556   7.148  1.6734  0.6839  1.5850
   19MOL   H187 5983   5.868   3.666   7.016 -2.5750 -0.8487  1.6203
   19MOL   H188 5984   6.096   3.561   7.169 -2.9254 -1.2015  0.8675
   19MOL   H189 5985   6.029   3.758   6.856 -0.2757  0.4507  1.9995
   19MOL   H190 5986   6.213   3.797   6.675 -0.0547  0.5516  0.3879
   19MOL   H191 5987   6.418   3.689   6.682 -1.4721 -0.3870 -0.7714
   19MOL   H192 5988   6.463   3.526   6.886  1.1457  1.0910 -0.5908
   19MOL   H193 5989   6.317   3.527   7.070 -0.5709  3.5250  2.9769
   19MOL   C194 5990   6.053   3.782   7.171 -0.9080 -0.0298  0.1954
   19MOL   C195 5991   6.039   3.784   7.322  0.0559  0.0215 -0.0088
   19MOL   C196 5992   6.124   3.684   7.394 -0.6141  0.3912 -0.5881
   19MOL   C197 5993   6.261   3.671   7.371  0.5419  0.2120  0.0365
   19MOL   C198 5994   6.338   3.569   7.429 -0.1079  0.2564 -0.3075
   19MOL   C199 5995   6.279   3.478   7.520  0.0413 -0.1917  0.4867
   19MOL   C200 5996   6.140   3.488   7.539  0.4169 -0.2620  0.1392
   19MOL   C201 5997   6.064   3.592   7.489 -0.3943  0.1734  0.5406
   19MOL   H202 5998   5.984   3.846   7.116 -1.0946 -0.5637 -0.2083
   19MOL   H203 5999   6.155   3.820   7.161 -0.7664  0.0979  2.0115
   19MOL   H204 6000   5.937   3.755   7.351  0.3298  0.4694  1.4683
   19MOL   H205 6001   6.307   3.735   7.297  0.6647  1.2114  0.9626
   19MOL   H206 6002   6.446   3.572   7.418  0.3277  0.4241  3.2859
   19MOL   H207 6003   6.338   3.413   7.583 -0.2865 -0.1202  0.8667
   19MOL   H208 6004   6.103   3.426   7.619  0.1443 -1.0651 -0.6061
   19MOL   H209 6005   5.958   3.600   7.509 -0.5044 -0.9769  0.4599
   19MOL   C210 6006   6.073   3.924   7.385  0.5162 -0.0135  0.6464
   19MOL   C211 6007   6.048   3.932   7.536  0.0048  0.1213 -0.0687
   19MOL   C212 6008   6.112   4.059   7.588  0.0682  0.2706 -0.9502
   19MOL   C213 6009   6.119   4.181   7.513 -0.1485  0.4051 -0.1231
   19MOL   C214 6010   6.174   4.299   7.570  0.0168 -0.0871 -0.3659
   19MOL   C215 6011   6.222   4.303   7.701 -0.0972 -0.0206  0.6137
   19MOL   C216 6012   6.223   4.184   7.772 -0.6117  0.3741  0.4428
   19MOL   C217 6013   6.170   4.064   7.719 -0.1568  0.2606 -0.2735
   19MOL   H218 6014   6.003   3.987   7.329  0.1128  0.0515  1.2184
   19MOL   H219 6015   6.175   3.956   7.364  0.0718  1.9920  1.3963
   19MOL   H220 6016   6.097   3.854   7.594  1.6363  0.6328 -0.7351
   19MOL   H221 6017   6.092   4.182   7.408  0.0220  0.2798 -0.1678
   19MOL   H222 6018   6.189   4.389   7.512  1.5566  1.1713  1.8912
   19MOL   H223 6019   6.259   4.397   7.740 -0.4541 -0.9306  3.2383
   19MOL   H224 6020   6.265   4.183   7.872  1.8272 -2.9634 -0.5540
   19MOL   H225 6021   6.180   3.980   7.787 -0.3788  0.1917 -0.3248
   19MOL   C226 6022   5.892   3.934   7.574 -0.1763  0.1090 -0.4059
   19MOL   C227 6023   5.809   4.065   7.562  0.4435 -0.5955  0.5240
   19MOL   C228 6024   5.791   4.112   7.424  0.4037  0.1234  0.3243
   19MOL   C229 6025   5.739   4.025   7.322  0.1986  0.7463  0.5057
   19MOL   C230 6026   5.741   4.059   7.185 -0.3147 -0.4019  0.0931
   19MOL   C231 6027   5.782   4.190   7.155 -0.2729 -0.6312 -0.1945
   19MOL   C232 6028   5.817   4.284   7.250 -0.0701  0.0715 -0.3038
   19MOL   C233 6029   5.833   4.245   7.384 -0.4249  0.4493  0.6136
   19MOL   H234 6030   5.895   3.913   7.681 -4.7796 -0.7388 -0.3531
   19MOL   H235 6031   5.848   3.850   7.520  0.6946 -0.1214 -0.7697
   19MOL   H236 6032   5.861   4.142   7.620 -0.4826  3.5195 -3.7982
   19MOL   H237 6033   5.703   3.928   7.355  0.5312  0.2665 -0.5202
   19MOL   H238 6034   5.709   3.996   7.104 -1.3011 -0.4678  0.5325
   19MOL   H239 6035   5.774   4.231   7.055  0.0157 -1.8964 -0.7472
   19MOL   H240 6036   5.842   4.387   7.227 -1.8901  0.5763 -0.0820
   19MOL   H241 6037   5.856   4.315   7.462  1.3452 -0.6224  1.0734
   19MOL   C242 6038   5.667   4.060   7.631 -0.1109  0.3964  0.4079
   19MOL   C243 6039   5.579   4.185   7.654 -0.0040 -0.5057 -0.4131
   19MOL   C244 6040   5.431   4.159   7.615 -0.1654  0.3708 -0.3171
   19MOL   C245 6041   5.337   4.096   7.702 -0.6090  0.2110 -1.0138
   19MOL   C246 6042   5.204   4.086   7.662 -0.3615  0.2191 -0.2183
   19MOL   C247 6043   5.160   4.134   7.539 -0.1360 -0.1582 -0.4421
   19MOL   C248 6044   5.258   4.191   7.456 -0.2476  0.7590 -0.3522
   19MOL   C249 6045   5.390   4.205   7.493 -0.6392  0.6240 -0.4952
   19MOL   H250 6046   5.668   3.999   7.721  0.8131 -2.1297 -1.2434
   19MOL   H251 6047   5.603   3.991   7.576  1.3019 -1.8962  1.5591
   19MOL   H252 6048   5.610   4.268   7.591 -3.6193  0.7043 -0.7418
   19MOL   H253 6049   5.361   4.055   7.799  0.5260  1.3777 -0.7888
   19MOL   H254 6050   5.131   4.036   7.724  0.9629 -2.4355 -0.7170
   19MOL   H255 6051   5.057   4.138   7.510 -0.1621 -1.4218 -0.5707
   19MOL   H256 6052   5.223   4.247   7.370  0.4270 -0.3388 -1.3735
   19MOL   H257 6053   5.462   4.246   7.424 -1.3606 -0.8175 -2.1639
   19MOL   C258 6054   5.587   4.230   7.800  0.5595 -0.8668 -0.0503
   19MOL   C259 6055   5.715   4.302   7.828 -0.0089  0.3294  0.0921
   19MOL   C260 6056   5.742   4.417   7.739  0.0210 -0.5581  0.1587
   19MOL   C261 6057   5.653   4.527   7.721 -0.4626 -0.8498  0.9550
   19MOL   C262 6058   5.679   4.643   7.650  0.5315 -0.7990 -0.1840
   19MOL   C263 6059   5.806   4.656   7.591 -0.4350  0.0677 -0.7161
   19MOL   C264 6060   5.898   4.550   7.606  0.5713 -0.6517 -0.2892
   19MOL   C265 6061   5.866   4.432   7.672  0.4142 -0.7143  0.0583
   19MOL   H266 6062   5.574   4.142   7.863 -1.9227 -1.3817 -1.2161
   19MOL   H267 6063   5.504   4.294   7.829  0.4288 -1.6470  1.3201
   19MOL   H268 6064   5.805   4.242   7.817 -0.1346  0.4992 -2.0767
   19MOL   H269 6065   5.554   4.512   7.763 -0.1092 -1.9643  1.4066
   19MOL   H270 6066   5.602   4.717   7.637 -1.2573 -2.3380  1.3385
   19MOL   H271 6067   5.838   4.745   7.539  0.3194 -0.0605 -0.4887
   19MOL   H272 6068   5.994   4.569   7.561  0.6232 -0.8235 -0.2516
   19MOL   H273 6069   5.934   4.349   7.684 -0.8118 -1.7208  0.2330
   19MOL   C274 6070   5.718   4.357   7.976 -0.7792 -0.5615 -0.4628
   19MOL   C275 6071   5.719   4.243   8.082  0.0746  0.4602 -0.3961
   19MOL   C276 6072   5.821   4.131   8.052  0.5903 -0.5759  1.0883
   19MOL   C277 6073   5.777   4.004   8.032  0.4842  0.3859 -0.0315
   19MOL   C278 6074   5.868   3.894   8.025 -0.6508 -0.1413  0.1220
   19MOL   C279 6075   6.004   3.920   8.035  0.4934 -0.1417  0.4587
   19MOL   C280 6076   6.053   4.049   8.059  0.2383  0.0194 -0.1733
   19MOL   C281 6077   5.960   4.155   8.070 -0.8418 -0.3496  0.1759
   19MOL   H282 6078   5.634   4.423   7.996 -1.9081 -1.7638 -1.1968
   19MOL   H283 6079   5.814   4.409   7.981 -0.6565 -0.7434 -0.9022
   19MOL   H284 6080   5.623   4.193   8.069  2.1365 -3.3628 -1.8012
   19MOL   H285 6081   5.673   3.987   8.008  0.8847 -0.4768 -1.2066
   19MOL   H286 6082   5.826   3.794   8.017  0.2883 -0.8641  3.4169
   19MOL   H287 6083   6.076   3.839   8.035 -0.5461 -1.0859  0.0341
   19MOL   H288 6084   6.159   4.061   8.077  0.0340  0.8736  0.4699
   19MOL   H289 6085   5.990   4.257   8.089 -0.4136 -0.6380  1.0284
   19MOL   C290 6086   5.734   4.306   0.114 -0.1789  0.5893  0.1592
   19MOL   C291 6087   5.764   4.208   0.230  0.0799 -0.3571  0.1156
   19MOL   C292 6088   5.826   4.279   0.349  0.6466  0.4766 -0.5089
   19MOL   C293 6089   5.953   4.240   0.394  0.7491  0.4499 -0.0955
   19MOL   C294 6090   6.011   4.305   0.499 -0.2344  0.1131  0.3787
   19MOL   C295 6091   5.947   4.414   0.571 -0.3042 -0.0735  0.0501
   19MOL   C296 6092   5.820   4.446   0.528 -0.0111 -0.4201  0.0830
   19MOL   C297 6093   5.762   4.383   0.415  0.1617 -0.6769  0.2838
   19MOL   H298 6094   5.649   4.367   0.144  0.3801  2.1891 -1.4220
   19MOL   H299 6095   5.818   4.375   0.104 -0.5256  0.6429 -2.8473
   19MOL   H300 6096   5.853   4.151   0.204 -0.6895 -1.2214 -0.6722
   19MOL   H301 6097   6.011   4.158   0.354  1.6983  1.0347  0.0608
   19MOL   H302 6098   6.109   4.266   0.524  0.4404  1.4494 -0.1328
   19MOL   H303 6099   5.989   4.445   0.665  0.1578 -1.0811  0.1840
   19MOL   H304 6100   5.773   4.526   0.583 -2.1101  0.9056 -3.4658
   19MOL   H305 6101   5.663   4.410   0.382  0.2708  1.6099  1.7038
   19MOL   C306 6102   5.654   4.111   0.270 -0.2389 -0.1339 -0.0901
   19MOL   C307 6103   5.703   3.995   0.359  0.8444 -0.0408 -0.2703
   19MOL   C308 6104   5.588   3.910   0.407  0.4019  0.3019  0.5663
   19MOL   C309 6105   5.489   3.953   0.499 -0.2838  0.0068 -0.1117
   19MOL   C310 6106   5.383   3.866   0.529  0.9530  0.6798 -0.1535
   19MOL   C311 6107   5.363   3.746   0.455 -0.7188 -0.7335 -0.3973
   19MOL   C312 6108   5.464   3.701   0.368  0.1511  0.1963  0.1543
   19MOL   C313 6109   5.577   3.783   0.347  0.0070 -0.3696 -0.4322
   19MOL   H314 6110   5.615   4.065   0.179 -0.7241 -1.3382  0.7072
   19MOL   H315 6111   5.569   4.160   0.318  0.7679  3.3434 -1.7012
   19MOL   H316 6112   5.764   4.028   0.443  0.5888 -0.1135 -0.0544
   19MOL   H317 6113   5.493   4.044   0.557  0.1882 -0.6480  0.9032
   19MOL   H318 6114   5.305   3.901   0.595  0.2750 -0.4651 -0.3358
   19MOL   H319 6115   5.275   3.684   0.468  0.5368 -2.4309  0.1571
   19MOL   H320 6116   5.452   3.605   0.319 -2.3427  0.2080  0.7196
   19MOL   H321 6117   5.658   3.738   0.292  1.8561  1.5468  0.6445
   19MOL   H322 6118   5.766   3.930   0.299  2.1002  0.4679  0.4688
   20MOL     C1 6119   5.791   3.660   4.041 -0.7399  0.3411 -0.0583
   20MOL     C2 6120   5.645   3.628   4.019 -0.0717 -0.1515 -0.0391
   20MOL     C3 6121   5.618   3.473   4.052  0.5053 -0.6960  0.2386
   20MOL     C4 6122   5.646   3.381   3.952 -0.2093 -0.9385 -0.3168
   20MOL     C5 6123   5.626   3.246   3.981 -0.0360  0.7723 -0.2536
   20MOL     C6 6124   5.583   3.203   4.109 -0.2642 -0.2491  0.2146
   20MOL     C7 6125   5.559   3.297   4.214  0.1789 -0.2513 -0.0755
   20MOL     C8 6126   5.574   3.431   4.178  0.5522 -0.4421  0.5778
   20MOL     H9 6127   5.815   3.759   4.003 -2.9764  0.5813 -0.9339
   20MOL    H10 6128   5.809   3.683   4.146 -0.3207  0.2258 -0.1024
   20MOL    H11 6129   5.618   3.640   3.914  0.0867 -0.3825 -0.1070
   20MOL    H12 6130   5.699   3.413   3.864 -0.6538 -2.1952 -1.0554
   20MOL    H13 6131   5.641   3.171   3.905  1.2206  0.6715  0.0890
   20MOL    H14 6132   5.569   3.098   4.131 -0.7155 -0.2796 -0.2265
   20MOL    H15 6133   5.514   3.270   4.309 -1.4035  0.2741 -0.6670
   20MOL    H16 6134   5.545   3.498   4.259 -0.7120 -1.7007  1.1920
   20MOL    H17 6135   5.866   3.589   4.005 -0.6833  0.6487 -0.5406
   20MOL    C18 6136   5.550   3.735   4.086  0.2629  0.5775  0.6613
   20MOL    C19 6137   5.556   3.879   4.033 -0.0863 -0.5735  0.0806
   20MOL    C20 6138   5.525   3.884   3.883  0.0797 -0.3475 -0.2565
   20MOL    C21 6139   5.405   3.835   3.841 -0.4436 -0.2027 -0.6083
   20MOL    C22 6140   5.366   3.858   3.710 -0.1824  0.6818  0.1795
   20MOL    C23 6141   5.444   3.929   3.620 -0.0033 -0.1260 -0.0391
   20MOL    C24 6142   5.574   3.958   3.656 -0.4144  0.5158 -0.8521
   20MOL    C25 6143   5.616   3.939   3.789  0.2978 -0.2978  0.2738
   20MOL    H26 6144   5.562   3.734   4.195 -0.9244  0.6858  0.7966
   20MOL    H27 6145   5.450   3.692   4.077  0.8209 -0.9815  1.5927
   20MOL    H28 6146   5.662   3.904   4.047 -0.1505  1.4400 -2.4442
   20MOL    H29 6147   5.339   3.799   3.919  1.2189  1.5529  1.6935
   20MOL    H30 6148   5.265   3.830   3.685  0.1184  0.1709 -0.4723
   20MOL    H31 6149   5.410   3.950   3.519 -3.1769 -1.6550  0.6482
   20MOL    H32 6150   5.645   4.005   3.590  2.2603 -1.5050  0.4460
   20MOL    H33 6151   5.710   3.982   3.820  0.5410 -0.6907  0.0833
   20MOL    C34 6152   5.482   3.987   4.118  0.4482  0.2224  0.2904
   20MOL    C35 6153   5.536   4.135   4.109 -0.5676  0.5833  0.1915
   20MOL    C36 6154   5.534   4.200   3.972  0.0433  0.6966  0.0101
   20MOL    C37 6155   5.657   4.238   3.920 -0.3345 -0.1888  0.5512
   20MOL    C38 6156   5.665   4.295   3.791 -0.0262 -0.3195 -0.5541
   20MOL    C39 6157   5.544   4.311   3.717 -0.4897  0.7721  0.4061
   20MOL    C40 6158   5.420   4.290   3.777  0.7115  0.3198 -0.7631
   20MOL    C41 6159   5.417   4.228   3.901  0.2651 -0.2507 -0.2914
   20MOL    H42 6160   5.511   3.959   4.219 -2.4726  1.3045  1.4734
   20MOL    H43 6161   5.375   3.971   4.104  0.3666  1.6589 -0.8683
   20MOL    H44 6162   5.641   4.121   4.135 -0.4535 -0.7267 -0.8914
   20MOL    H45 6163   5.747   4.212   3.973  1.2012 -0.2028 -1.9912
   20MOL    H46 6164   5.761   4.319   3.749 -0.5814  1.7630 -0.7134
   20MOL    H47 6165   5.557   4.352   3.618  1.1380  1.7840  1.0253
   20MOL    H48 6166   5.328   4.320   3.729  0.5010  4.3755  1.9482
   20MOL    H49 6167   5.319   4.204   3.941 -0.2210 -1.5566 -2.2017
   20MOL    C50 6168   5.463   4.210   4.224  0.4433 -0.2334  0.0991
   20MOL    C51 6169   5.521   4.348   4.259 -0.2330 -0.4294 -0.4587
   20MOL    C52 6170   5.412   4.430   4.339  0.0592  0.0724 -0.1838
   20MOL    C53 6171   5.320   4.506   4.270  0.5129 -0.5152  0.0828
   20MOL    C54 6172   5.211   4.571   4.338  1.0737  0.8240  0.2718
   20MOL    C55 6173   5.200   4.550   4.474  0.3212  0.2615  0.2861
   20MOL    C56 6174   5.301   4.483   4.543  0.6225 -0.2321  0.4718
   20MOL    C57 6175   5.398   4.408   4.476 -0.3174 -0.1546 -0.3049
   20MOL    H58 6176   5.459   4.153   4.317 -1.3757  0.2826  0.3492
   20MOL    H59 6177   5.359   4.222   4.194  0.2479  1.1648  1.2438
   20MOL    H60 6178   5.548   4.397   4.166 -0.7865  0.9063  0.0683
   20MOL    H61 6179   5.329   4.500   4.163  0.8913  0.1783  0.0759
   20MOL    H62 6180   5.129   4.618   4.286 -0.7380 -0.3014  2.0063
   20MOL    H63 6181   5.114   4.594   4.521  0.6175 -1.1942  2.2293
   20MOL    H64 6182   5.292   4.459   4.648  2.6065 -0.2978  0.6430
   20MOL    H65 6183   5.470   4.353   4.535 -0.0050  1.4183  0.8271
   20MOL    C66 6184   5.661   4.330   4.328  0.1391 -0.6991  0.3858
   20MOL    C67 6185   5.728   4.464   4.359  0.0674  0.3500  0.2244
   20MOL    C68 6186   5.839   4.442   4.457 -0.0996 -0.8050 -0.7090
   20MOL    C69 6187   5.947   4.358   4.430  0.4877  0.3604  0.7242
   20MOL    C70 6188   6.048   4.340   4.526  0.1324  0.3872  1.1734
   20MOL    C71 6189   6.036   4.393   4.657  0.0802 -0.3697  0.0801
   20MOL    C72 6190   5.927   4.482   4.681 -0.3576  0.8811 -0.0835
   20MOL    C73 6191   5.823   4.507   4.582 -0.5220  0.0589 -0.4130
   20MOL    H74 6192   5.725   4.268   4.267  0.1774 -1.6256  1.3561
   20MOL    H75 6193   5.651   4.263   4.414 -0.9012 -0.7412  0.2308
   20MOL    H76 6194   5.650   4.524   4.407  0.1766  0.2953  0.4689
   20MOL    H77 6195   5.961   4.315   4.332 -0.8303  2.3641 -0.3758
   20MOL    H78 6196   6.131   4.278   4.497 -0.5736 -0.3209  0.6658
   20MOL    H79 6197   6.113   4.391   4.733 -0.7792 -0.1164  0.9544
   20MOL    H80 6198   5.927   4.537   4.774 -3.2480  2.7857 -1.1513
   20MOL    H81 6199   5.736   4.562   4.613  0.4665  0.5038  1.6490
   20MOL    C82 6200   5.772   4.548   4.239  0.4386  0.7684 -0.7671
   20MOL    C83 6201   5.858   4.671   4.274  0.3414  0.3337  0.4439
   20MOL    C84 6202   6.014   4.649   4.254 -0.9882 -0.2979  0.6966
   20MOL    C85 6203   6.105   4.653   4.363  0.3911 -0.1662 -0.5391
   20MOL    C86 6204   6.241   4.631   4.346  0.4145  0.1079  0.1757
   20MOL    C87 6205   6.294   4.618   4.221 -0.5999  0.3715  0.3629
   20MOL    C88 6206   6.208   4.605   4.111  0.5995  0.5017 -0.3364
   20MOL    C89 6207   6.065   4.625   4.127 -0.2378  1.2633 -0.0824
   20MOL    H90 6208   5.685   4.569   4.176  0.8708  3.9692 -0.3855
   20MOL    H91 6209   5.840   4.483   4.183  3.2776 -0.7538  4.1569
   20MOL    H92 6210   5.845   4.696   4.380  0.0234  0.2721  0.4193
   20MOL    H93 6211   6.073   4.668   4.465  1.3286 -1.1145 -0.0949
   20MOL    H94 6212   6.310   4.637   4.429 -0.9707 -1.3167  1.4554
   20MOL    H95 6213   6.400   4.598   4.219 -0.9502 -1.5839 -1.9670
   20MOL    H96 6214   6.251   4.598   4.012 -2.4092 -2.0921 -1.5340
   20MOL    H97 6215   5.998   4.612   4.043  0.6492 -0.3315 -0.5822
   20MOL    C98 6216   5.816   4.793   4.198 -0.4165 -0.4594 -0.8782
   20MOL    C99 6217   5.681   4.851   4.241 -0.1491  0.2889  0.4074
   20MOL   C100 6218   5.650   4.859   4.385  0.7061 -0.2085 -0.3041
   20MOL   C101 6219   5.520   4.812   4.429  0.2189 -0.3356  0.2753
   20MOL   C102 6220   5.497   4.814   4.568  0.3117 -0.3607  0.7845
   20MOL   C103 6221   5.592   4.873   4.658  0.5490 -0.2466 -0.0374
   20MOL   C104 6222   5.720   4.915   4.614 -0.3098 -1.0009 -0.0509
   20MOL   C105 6223   5.750   4.905   4.469 -0.0540  0.8696  0.1827
   20MOL   H106 6224   5.828   4.760   4.095 -2.4236  1.5474 -1.7861
   20MOL   H107 6225   5.897   4.865   4.209 -0.2942 -0.8746  1.0740
   20MOL   H108 6226   5.616   4.775   4.198  0.9987  1.5305 -3.7132
   20MOL   H109 6227   5.447   4.779   4.356  1.2540  1.0313 -1.3842
   20MOL   H110 6228   5.400   4.783   4.606  1.0694 -1.2102  2.0759
   20MOL   H111 6229   5.564   4.892   4.760  0.4867 -1.9781  0.2795
   20MOL   H112 6230   5.802   4.934   4.682 -1.6715 -0.0737  1.3552
   20MOL   H113 6231   5.843   4.940   4.427 -0.7083 -0.0038 -2.0981
   20MOL   C114 6232   5.659   4.986   4.166 -0.1724 -0.4482  0.4808
   20MOL   C115 6233   5.640   4.978   4.010 -0.4107 -0.4435 -0.2903
   20MOL   C116 6234   5.555   4.856   3.965  0.1846  0.5124  0.1405
   20MOL   C117 6235   5.421   4.842   4.010 -0.7892 -1.0858 -0.5476
   20MOL   C118 6236   5.335   4.742   3.960 -0.1557 -0.7691 -0.5175
   20MOL   C119 6237   5.389   4.645   3.878  0.0091 -0.9402  0.7988
   20MOL   C120 6238   5.521   4.664   3.822 -0.0083 -0.0362 -0.6370
   20MOL   C121 6239   5.604   4.765   3.871 -1.0472  0.4828  0.3578
   20MOL   H122 6240   5.736   5.061   4.185  0.9472 -0.6388 -2.8521
   20MOL   H123 6241   5.559   5.015   4.197 -1.0731 -2.4936 -0.4393
   20MOL   H124 6242   5.737   4.973   3.961 -0.0672 -1.2047  0.4469
   20MOL   H125 6243   5.392   4.913   4.086  1.3116 -2.1834  1.3138
   20MOL   H126 6244   5.232   4.744   3.993 -0.3507  1.0229 -1.1570
   20MOL   H127 6245   5.331   4.569   3.827  0.0774 -0.5630  0.1447
   20MOL   H128 6246   5.540   4.605   3.733  1.4635  0.4502 -0.6458
   20MOL   H129 6247   5.701   4.778   3.824 -1.1548 -1.4559 -0.4365
   20MOL   C130 6248   5.581   5.106   3.954 -0.0919  0.3448 -0.0100
   20MOL   C131 6249   5.670   5.228   3.968  0.9926 -0.2398 -0.3254
   20MOL   C132 6250   5.817   5.219   3.920  0.3428  0.3281 -0.7240
   20MOL   C133 6251   5.924   5.262   4.005 -0.0301  0.7081  0.1047
   20MOL   C134 6252   6.054   5.262   3.951 -0.3977  0.3004 -0.0391
   20MOL   C135 6253   6.086   5.225   3.825 -0.2391 -0.1505 -0.5789
   20MOL   C136 6254   5.980   5.185   3.739 -0.1799 -0.3824 -0.1103
   20MOL   C137 6255   5.850   5.177   3.792 -0.0190 -0.9955  0.3010
   20MOL   H138 6256   5.490   5.125   4.010 -0.0691  1.0488 -0.2019
   20MOL   H139 6257   5.561   5.086   3.848 -1.4763 -0.2457  0.3601
   20MOL   H140 6258   5.687   5.250   4.073  1.3090 -0.5060 -0.3194
   20MOL   H141 6259   5.894   5.290   4.104 -3.3644 -0.6470 -0.4651
   20MOL   H142 6260   6.136   5.293   4.014  0.4545  1.0610 -1.4979
   20MOL   H143 6261   6.191   5.234   3.800 -0.1491 -0.0805 -0.1818
   20MOL   H144 6262   5.989   5.174   3.632  1.5101 -1.3184  0.1158
   20MOL   H145 6263   5.772   5.155   3.720  0.6968  0.0769 -0.8385
   20MOL   C146 6264   5.600   5.344   3.907 -0.0500  0.0365 -0.4455
   20MOL   C147 6265   5.621   5.479   3.986  0.1830 -0.2651 -0.2423
   20MOL   C148 6266   5.643   5.600   3.895 -0.3074 -0.0634 -0.0341
   20MOL   C149 6267   5.554   5.705   3.869 -0.2949  0.2140 -0.4514
   20MOL   C150 6268   5.590   5.813   3.783 -0.0692 -0.7095 -0.1576
   20MOL   C151 6269   5.708   5.803   3.707 -0.0845 -0.6146 -0.9093
   20MOL   C152 6270   5.801   5.701   3.738  0.1866  0.2074 -0.4677
   20MOL   C153 6271   5.771   5.599   3.829  0.1548 -0.1645 -0.6435
   20MOL   H154 6272   5.493   5.323   3.908  0.1174 -0.7999 -0.1162
   20MOL   H155 6273   5.608   5.349   3.799 -0.6528  0.1590 -0.4885
   20MOL   H156 6274   5.704   5.480   4.056 -0.8100  4.1790  1.0036
   20MOL   H157 6275   5.462   5.709   3.925  0.1821 -1.0080  0.4485
   20MOL   H158 6276   5.508   5.882   3.782 -0.7430 -1.4383  1.4810
   20MOL   H159 6277   5.739   5.882   3.640  1.8403 -0.5689 -0.0022
   20MOL   H160 6278   5.898   5.695   3.690  1.2886 -3.1289  1.9803
   20MOL   H161 6279   5.840   5.520   3.854  1.2516  1.0370  0.1657
   20MOL   C162 6280   5.500   5.498   4.078  0.4978  0.1680  0.2702
   20MOL   C163 6281   5.486   5.415   4.209  0.5525  0.0483  0.0256
   20MOL   C164 6282   5.613   5.405   4.294 -0.5656 -0.2728 -0.7760
   20MOL   C165 6283   5.707   5.513   4.310 -0.3140  0.4841  0.3889
   20MOL   C166 6284   5.815   5.490   4.393 -0.7328  0.2465  0.0783
   20MOL   C167 6285   5.838   5.368   4.454 -0.0868  0.2535  0.0758
   20MOL   C168 6286   5.749   5.260   4.443 -0.7303 -0.5880 -0.1455
   20MOL   C169 6287   5.639   5.279   4.359 -0.1616 -0.3276 -0.1462
   20MOL   H170 6288   5.414   5.479   4.014  0.0287  0.2353  0.8742
   20MOL   H171 6289   5.482   5.602   4.104  0.0605  0.2096 -0.1729
   20MOL   H172 6290   5.459   5.312   4.186  0.4711  0.2247 -0.6715
   20MOL   H173 6291   5.695   5.609   4.262  3.2877 -0.4409 -2.5042
   20MOL   H174 6292   5.888   5.568   4.407  0.5560 -1.1693  1.5396
   20MOL   H175 6293   5.932   5.349   4.503  1.1540  0.7206 -2.0565
   20MOL   H176 6294   5.779   5.166   4.488  1.2095 -1.4589 -3.1158
   20MOL   H177 6295   5.571   5.196   4.349 -0.0315 -0.4021 -0.4185
   20MOL   C178 6296   5.374   5.482   4.296 -0.1590  0.4450  0.5626
   20MOL   C179 6297   5.347   5.437   4.436 -0.1560 -0.5304 -0.2234
   20MOL   C180 6298   5.250   5.534   4.513  0.5112 -0.3674  0.3699
   20MOL   C181 6299   5.290   5.604   4.625  0.0146  0.5527 -0.2411
   20MOL   C182 6300   5.206   5.684   4.703 -0.4909  0.3134 -0.6039
   20MOL   C183 6301   5.069   5.692   4.666  0.6003 -0.3371 -0.7080
   20MOL   C184 6302   5.027   5.628   4.550 -0.6994 -0.0657  0.3780
   20MOL   C185 6303   5.116   5.548   4.479  0.1595  0.2278  0.4456
   20MOL   H186 6304   5.280   5.486   4.241 -0.0152  0.4308  0.3156
   20MOL   H187 6305   5.402   5.583   4.324  1.7663 -0.2718  1.3531
   20MOL   H188 6306   5.442   5.423   4.487 -0.1909  2.6620  0.8305
   20MOL   H189 6307   5.388   5.582   4.665  0.7518 -1.0586 -2.8370
   20MOL   H190 6308   5.238   5.723   4.799 -3.1454  1.9942 -0.3385
   20MOL   H191 6309   5.003   5.760   4.719  0.0058 -1.4838  0.0512
   20MOL   H192 6310   4.924   5.637   4.520 -0.7046 -0.1499  0.3693
   20MOL   H193 6311   5.074   5.499   4.392 -2.5530 -0.1383  1.8883
   20MOL   C194 6312   5.285   5.298   4.446  0.6424  0.3347 -0.0054
   20MOL   C195 6313   5.228   5.261   4.577 -0.4044  0.0340  0.7340
   20MOL   C196 6314   5.136   5.138   4.564 -0.5024  0.1271 -0.1233
   20MOL   C197 6315   5.189   5.007   4.534  0.1795 -0.1475 -0.2281
   20MOL   C198 6316   5.108   4.896   4.511 -0.7616 -0.1172 -0.2318
   20MOL   C199 6317   4.969   4.902   4.541 -0.6391 -0.2089  0.2600
   20MOL   C200 6318   4.914   5.026   4.585  0.8897  0.2706  0.7940
   20MOL   C201 6319   4.995   5.141   4.594 -1.4395 -0.7173  0.2176
   20MOL   H202 6320   5.359   5.221   4.425 -1.7687 -1.8146 -0.9262
   20MOL   H203 6321   5.211   5.293   4.366  0.9239 -1.0372 -0.1877
   20MOL   H204 6322   5.156   5.334   4.615 -0.0395  0.3023  0.9123
   20MOL   H205 6323   5.294   4.994   4.510  0.3416  0.6491  0.0305
   20MOL   H206 6324   5.160   4.806   4.483  1.5320  1.3850 -0.9727
   20MOL   H207 6325   4.911   4.811   4.535  1.6481 -1.5645 -2.2098
   20MOL   H208 6326   4.810   5.041   4.609  0.3118  1.6832 -2.3967
   20MOL   H209 6327   4.950   5.235   4.622 -0.4457  0.0774 -0.8083
   20MOL   C210 6328   5.338   5.244   4.691 -0.3284 -0.1393  0.4648
   20MOL   C211 6329   5.285   5.221   4.829 -0.4345  0.8004  0.1538
   20MOL   C212 6330   5.374   5.120   4.906 -0.6339 -0.0041 -0.4441
   20MOL   C213 6331   5.516   5.137   4.931 -0.2262 -0.1000 -0.3022
   20MOL   C214 6332   5.589   5.048   5.004  0.0213 -0.0794  0.0758
   20MOL   C215 6333   5.526   4.941   5.062  0.1189  0.2944  0.4395
   20MOL   C216 6334   5.394   4.913   5.038  0.8706 -0.3651 -0.5234
   20MOL   C217 6335   5.317   5.003   4.959 -0.4385 -0.8265  0.4128
   20MOL   H218 6336   5.390   5.339   4.693 -0.6709  0.0225  2.1091
   20MOL   H219 6337   5.424   5.186   4.660 -0.5013 -0.7415  1.0822
   20MOL   H220 6338   5.189   5.173   4.812  0.8545 -1.5217 -0.8894
   20MOL   H221 6339   5.569   5.229   4.910 -0.6208 -0.0594 -1.1565
   20MOL   H222 6340   5.695   5.062   5.023 -0.2457  0.8058  0.9313
   20MOL   H223 6341   5.590   4.872   5.117  0.4530  1.7027  1.8451
   20MOL   H224 6342   5.345   4.826   5.078  1.0385 -1.1215 -1.9535
   20MOL   H225 6343   5.211   4.985   4.946 -0.9239  1.0276  1.6096
   20MOL   C226 6344   5.262   5.359   4.897 -0.2018 -0.8896 -0.3246
   20MOL   C227 6345   5.172   5.353   5.017  0.5283 -0.5787  0.6434
   20MOL   C228 6346   5.173   5.490   5.099  0.7082  0.0808 -0.3229
   20MOL   C229 6347   5.219   5.490   5.232  0.1531 -0.8190  0.0131
   20MOL   C230 6348   5.202   5.606   5.306 -0.1888 -0.4193 -0.5982
   20MOL   C231 6349   5.144   5.718   5.253  0.0750  0.5064 -0.1251
   20MOL   C232 6350   5.109   5.726   5.116  0.4015 -0.2449 -0.1918
   20MOL   C233 6351   5.119   5.607   5.046 -0.3047  0.1796  0.3143
   20MOL   H234 6352   5.221   5.435   4.831 -1.5704 -1.3725 -0.0633
   20MOL   H235 6353   5.362   5.382   4.933 -1.3534  0.1151  2.3240
   20MOL   H236 6354   5.219   5.278   5.081  0.8545 -1.1079 -0.2139
   20MOL   H237 6355   5.236   5.393   5.274  0.6996 -2.1628 -3.1543
   20MOL   H238 6356   5.228   5.611   5.411  1.0921 -0.6233 -0.9017
   20MOL   H239 6357   5.119   5.798   5.322 -1.5358  2.7611 -3.2180
   20MOL   H240 6358   5.055   5.812   5.078  0.1701 -0.0625  0.5530
   20MOL   H241 6359   5.080   5.601   4.945 -0.3423 -0.8607  0.3899
   20MOL   C242 6360   5.031   5.296   4.984 -0.1543  0.8308  0.0174
   20MOL   C243 6361   4.922   5.300   5.087  0.3195  0.2153  0.5319
   20MOL   C244 6362   4.791   5.267   5.014  0.3268 -0.1858 -0.3590
   20MOL   C245 6363   4.680   5.318   5.080  0.2638 -0.2996  0.5740
   20MOL   C246 6364   4.550   5.308   5.023 -0.2044  0.4882 -0.8120
   20MOL   C247 6365   4.529   5.230   4.907  0.4493 -0.1141 -0.3984
   20MOL   C248 6366   4.643   5.172   4.848  0.6859 -0.4714 -0.2150
   20MOL   C249 6367   4.772   5.193   4.896  1.2593  0.9613  0.5917
   20MOL   H250 6368   5.039   5.191   4.957  0.1779  1.1598 -1.2320
   20MOL   H251 6369   4.994   5.353   4.898 -0.1650  2.6140  1.1835
   20MOL   H252 6370   4.919   5.405   5.119  2.6801  0.8292 -1.1448
   20MOL   H253 6371   4.690   5.379   5.169 -0.0173  1.4371 -0.5489
   20MOL   H254 6372   4.472   5.359   5.078  0.3157 -0.4003  0.7756
   20MOL   H255 6373   4.430   5.201   4.875  1.3469 -2.7502 -0.8607
   20MOL   H256 6374   4.626   5.111   4.762 -3.2927 -2.0245  1.5717
   20MOL   H257 6375   4.849   5.138   4.842  0.8378 -0.2913  1.2432
   20MOL   C258 6376   4.955   5.211   5.205 -0.1018 -0.0677 -0.1573
   20MOL   C259 6377   4.904   5.061   5.196  0.6275  0.4716 -0.0882
   20MOL   C260 6378   5.008   4.954   5.238 -0.4041 -0.8447  0.7396
   20MOL   C261 6379   5.010   4.837   5.156  0.2712 -0.2172 -0.0870
   20MOL   C262 6380   5.098   4.737   5.189  1.2485  0.8643 -0.2282
   20MOL   C263 6381   5.178   4.749   5.307 -0.1953 -0.2959 -0.2713
   20MOL   C264 6382   5.187   4.867   5.380  0.2723  0.0184 -0.4369
   20MOL   C265 6383   5.098   4.974   5.348 -0.0811  1.1926 -0.0314
   20MOL   H266 6384   4.894   5.259   5.281 -0.9204  2.2301 -2.2238
   20MOL   H267 6385   5.062   5.219   5.224  0.3108 -2.9450 -0.9295
   20MOL   H268 6386   4.874   5.037   5.095 -1.1949  1.0918  0.2969
   20MOL   H269 6387   4.937   4.817   5.079  1.2349  0.9823 -1.3446
   20MOL   H270 6388   5.107   4.641   5.141  1.7220  1.1225 -0.6622
   20MOL   H271 6389   5.249   4.669   5.323  0.7337  0.4833 -0.4469
   20MOL   H272 6390   5.254   4.873   5.465  0.5407 -0.8912 -0.5762
   20MOL   H273 6391   5.089   5.064   5.406  1.6563 -0.4497  2.9139
   20MOL   C274 6392   4.778   5.046   5.282 -0.5033  0.4696 -0.1532
   20MOL   C275 6393   4.701   4.915   5.255 -0.1944 -0.0062  0.1600
   20MOL   C276 6394   4.624   4.882   5.379 -0.0639  0.0936  0.5529
   20MOL   C277 6395   4.508   4.959   5.413 -0.8862  0.4300  0.2020
   20MOL   C278 6396   4.458   4.935   5.543 -0.4166 -0.4705 -0.5506
   20MOL   C279 6397   4.503   4.837   5.634 -0.3227  0.2205  0.1602
   20MOL   C280 6398   4.613   4.760   5.589 -0.5168 -0.5282  0.1437
   20MOL   C281 6399   4.668   4.780   5.466  0.1637 -0.2003 -0.1675
   20MOL   H282 6400   4.707   5.128   5.277  2.0535  2.7874  0.0198
   20MOL   H283 6401   4.811   5.048   5.386 -1.5271  1.7317  0.1561
   20MOL   H284 6402   4.770   4.832   5.238 -0.1306  0.3812 -1.6351
   20MOL   H285 6403   4.474   5.043   5.355  0.1921  1.5787  1.2246
   20MOL   H286 6404   4.381   5.007   5.567  0.0396  0.3374 -1.4835
   20MOL   H287 6405   4.461   4.824   5.732  0.1314 -2.1471  0.0819
   20MOL   H288 6406   4.661   4.684   5.648  2.1466  0.4193 -0.7073
   20MOL   H289 6407   4.747   4.715   5.432  0.9313  0.6061  0.0473
   20MOL   C290 6408   4.607   4.927   5.127 -0.2179 -0.3686 -0.5852
   20MOL   C291 6409   4.533   4.799   5.076  0.0425 -0.1138 -0.1016
   20MOL   C292 6410   4.398   4.797   5.140  0.8202 -0.1522 -0.2637
   20MOL   C293 6411   4.293   4.880   5.088 -0.4435 -1.4989  0.0088
   20MOL   C294 6412   4.160   4.873   5.143 -0.1961 -0.1725 -0.3582
   20MOL   C295 6413   4.129   4.786   5.248 -0.6192 -0.4546  0.3555
   20MOL   C296 6414   4.241   4.709   5.297  0.9350  0.2525  0.3877
   20MOL   C297 6415   4.371   4.710   5.248 -0.1318 -0.4314  0.3216
   20MOL   H298 6416   4.670   4.964   5.045 -1.8818  0.9827 -1.2723
   20MOL   H299 6417   4.539   5.010   5.145  1.1485  0.5728  0.3997
   20MOL   H300 6418   4.576   4.702   5.100  0.3102  0.2950  1.1129
   20MOL   H301 6419   4.312   4.952   5.009 -0.3390 -1.5433 -0.0048
   20MOL   H302 6420   4.079   4.920   5.089  1.0544  0.6386 -1.5442
   20MOL   H303 6421   4.032   4.761   5.287 -0.3962 -0.6798  0.7780
   20MOL   H304 6422   4.217   4.630   5.367  1.2627 -0.6015 -0.4649
   20MOL   H305 6423   4.439   4.641   5.297 -1.3655 -1.3726  0.7340
   20MOL   C306 6424   4.530   4.800   4.926  0.2741 -0.2642 -0.2802
   20MOL   C307 6425   4.669   4.780   4.868  0.2403  0.5616  0.0020
   20MOL   C308 6426   4.653   4.744   4.726  0.2786  0.3209 -0.3941
   20MOL   C309 6427   4.698   4.618   4.686 -0.0476  0.7566  0.2041
   20MOL   C310 6428   4.692   4.578   4.550 -0.3315 -0.3558  0.0792
   20MOL   C311 6429   4.629   4.663   4.457 -0.7233 -0.2607 -0.2305
   20MOL   C312 6430   4.580   4.789   4.503  0.0527  0.5605  0.3148
   20MOL   C313 6431   4.594   4.833   4.632  0.3170  0.0467  0.2112
   20MOL   H314 6432   4.491   4.897   4.895 -0.9060  0.2042  2.5593
   20MOL   H315 6433   4.471   4.718   4.885  0.2622  0.3473 -1.5000
   20MOL   H316 6434   4.722   4.703   4.924  0.0965  0.5668  0.1447
   20MOL   H317 6435   4.725   4.539   4.754 -1.3928 -0.3549 -0.5307
   20MOL   H318 6436   4.714   4.478   4.514  2.2430 -0.1733  1.0033
   20MOL   H319 6437   4.621   4.640   4.351  0.1184  0.8475 -0.5525
   20MOL   H320 6438   4.539   4.852   4.425 -0.8499 -1.7810 -1.1635
   20MOL   H321 6439   4.554   4.926   4.668 -0.0210  1.6295 -3.9529
   20MOL   H322 6440   4.734   4.867   4.869  1.5817 -0.4253  0.1663
   21MOL     C1 6441   1.606   2.825   1.482 -0.0508 -0.7944 -0.1857
   21MOL     C2 6442   1.630   2.678   1.458 -0.1426 -0.1383 -0.7124
   21MOL     C3 6443   1.740   2.659   1.359  0.4876  0.0107  0.1504
   21MOL     C4 6444   1.868   2.721   1.370 -0.5778 -0.3350  1.0050
   21MOL     C5 6445   1.965   2.706   1.269 -0.6324  0.2383  0.0647
   21MOL     C6 6446   1.942   2.623   1.157 -0.3739  0.2679 -0.1427
   21MOL     C7 6447   1.821   2.559   1.147  0.3728 -0.3169  0.0593
   21MOL     C8 6448   1.723   2.574   1.250  0.1495  0.7251  0.0700
   21MOL     H9 6449   1.690   2.859   1.543  0.6006 -1.7524 -0.5313
   21MOL    H10 6450   1.589   2.880   1.390  0.8767 -1.6649 -0.8930
   21MOL    H11 6451   1.544   2.621   1.422 -0.2244 -0.8687  0.6219
   21MOL    H12 6452   1.880   2.790   1.452  0.6471  0.1587  0.4172
   21MOL    H13 6453   2.061   2.756   1.281 -0.9996  1.0268 -0.2274
   21MOL    H14 6454   2.014   2.612   1.077 -0.6168 -0.7129 -0.2305
   21MOL    H15 6455   1.808   2.490   1.065  1.2961 -1.9433  1.2700
   21MOL    H16 6456   1.635   2.512   1.249  0.9180 -0.3685  0.1252
   21MOL    H17 6457   1.512   2.836   1.535 -1.4175 -1.9681 -2.3156
   21MOL    C18 6458   1.667   2.601   1.588 -0.4432 -0.3671 -0.4222
   21MOL    C19 6459   1.558   2.565   1.694  0.1368 -0.6242  0.0423
   21MOL    C20 6460   1.444   2.479   1.642  0.1816  0.7480  0.5724
   21MOL    C21 6461   1.471   2.378   1.543  0.3843 -0.2264 -0.7943
   21MOL    C22 6462   1.369   2.300   1.494  0.4719  0.5295  0.0812
   21MOL    C23 6463   1.239   2.301   1.553  1.0555  0.1368 -1.0027
   21MOL    C24 6464   1.210   2.394   1.654 -0.3925  0.0141 -0.0535
   21MOL    C25 6465   1.313   2.485   1.695  0.0424 -0.4065  0.1756
   21MOL    H26 6466   1.757   2.644   1.633 -0.0968 -2.2507  0.7573
   21MOL    H27 6467   1.707   2.504   1.561 -0.1485 -0.3421 -0.0841
   21MOL    H28 6468   1.504   2.659   1.706  3.5621  1.4338 -0.0511
   21MOL    H29 6469   1.575   2.363   1.517  0.8815  0.9823  0.4209
   21MOL    H30 6470   1.386   2.228   1.415  0.1485  2.0518 -1.3840
   21MOL    H31 6471   1.167   2.226   1.522 -0.1792  0.6565  0.5457
   21MOL    H32 6472   1.114   2.410   1.700  0.1769 -2.5464  2.1935
   21MOL    H33 6473   1.291   2.556   1.773  2.3120  0.6738 -0.1349
   21MOL    C34 6474   1.620   2.492   1.811 -0.4511  0.2286 -0.7241
   21MOL    C35 6475   1.654   2.596   1.926  0.3220  0.1408  0.4126
   21MOL    C36 6476   1.523   2.654   1.998  0.0248 -0.2592  1.2290
   21MOL    C37 6477   1.499   2.797   2.000 -0.6194  0.6302 -0.4043
   21MOL    C38 6478   1.385   2.845   2.073  0.4377  0.6932 -0.2792
   21MOL    C39 6479   1.304   2.757   2.149  0.1473  1.1319  0.5387
   21MOL    C40 6480   1.332   2.616   2.141  0.7865  0.0125 -0.0679
   21MOL    C41 6481   1.439   2.565   2.071 -0.5407  0.3250 -0.5249
   21MOL    H42 6482   1.709   2.440   1.775 -1.7191 -1.8418 -0.9499
   21MOL    H43 6483   1.550   2.419   1.852 -0.9147  1.3600  0.5241
   21MOL    H44 6484   1.711   2.674   1.876  0.7721  0.5345  1.5339
   21MOL    H45 6485   1.562   2.869   1.951  1.3322 -0.2523  0.7423
   21MOL    H46 6486   1.370   2.952   2.078 -0.8868  0.5506 -1.0049
   21MOL    H47 6487   1.214   2.787   2.199 -0.1556 -0.9746  1.3079
   21MOL    H48 6488   1.279   2.547   2.205  0.6330  0.8112  0.6770
   21MOL    H49 6489   1.463   2.460   2.078  0.0246  0.6159  3.1984
   21MOL    C50 6490   1.748   2.535   2.026  0.0170  0.0994 -0.4635
   21MOL    C51 6491   1.881   2.469   1.975 -0.1631 -0.3582 -0.3053
   21MOL    C52 6492   1.947   2.562   1.874 -0.9975 -0.2139  0.5692
   21MOL    C53 6493   1.972   2.535   1.743  0.1550 -0.5403 -0.7561
   21MOL    C54 6494   2.041   2.624   1.657 -0.6332  0.1134  0.5123
   21MOL    C55 6495   2.084   2.746   1.711  0.2010 -0.3414  0.1266
   21MOL    C56 6496   2.067   2.770   1.846 -0.5470  0.2828 -0.6965
   21MOL    C57 6497   2.000   2.679   1.924 -0.7338  0.6066 -0.5973
   21MOL    H58 6498   1.700   2.462   2.092 -3.9072  2.0056 -1.0848
   21MOL    H59 6499   1.770   2.615   2.097 -3.5763  0.9140 -0.1747
   21MOL    H60 6500   1.847   2.382   1.920  2.0828 -1.2820 -0.2956
   21MOL    H61 6501   1.935   2.446   1.694 -1.7334 -0.5889  0.7307
   21MOL    H62 6502   2.055   2.608   1.551 -0.4139 -0.2417  0.5935
   21MOL    H63 6503   2.131   2.815   1.643  0.8802  1.0507  1.9745
   21MOL    H64 6504   2.103   2.863   1.887  1.4798  0.2591 -2.3455
   21MOL    H65 6505   1.979   2.699   2.028 -1.0127  1.3536 -0.7964
   21MOL    C66 6506   1.976   2.426   2.090 -0.5863  0.1152  0.2467
   21MOL    C67 6507   2.118   2.380   2.051  0.6131  0.2266 -0.1466
   21MOL    C68 6508   2.212   2.384   2.168 -0.4104 -0.9707 -0.6819
   21MOL    C69 6509   2.170   2.334   2.297 -0.0632  0.1386  0.2248
   21MOL    C70 6510   2.255   2.354   2.412  0.4153  0.4761  0.3167
   21MOL    C71 6511   2.370   2.433   2.399  0.1204  0.0370 -0.2212
   21MOL    C72 6512   2.415   2.474   2.272  0.1257  0.1845 -0.1024
   21MOL    C73 6513   2.342   2.443   2.158  0.7807 -0.0512 -0.2318
   21MOL    H74 6514   1.929   2.351   2.153  0.8606 -0.6947  0.3915
   21MOL    H75 6515   1.977   2.515   2.152  0.0081  1.4449 -1.6169
   21MOL    H76 6516   2.154   2.453   1.979 -0.1739 -0.1844 -0.9692
   21MOL    H77 6517   2.074   2.289   2.316 -0.5058  1.6685  1.6612
   21MOL    H78 6518   2.230   2.317   2.510  1.4198  0.0369  0.4112
   21MOL    H79 6519   2.431   2.464   2.483  0.0620 -2.0641  0.6340
   21MOL    H80 6520   2.506   2.529   2.254  0.9907 -1.3542 -0.5450
   21MOL    H81 6521   2.389   2.482   2.069  1.5638  1.4178  0.8124
   21MOL    C82 6522   2.108   2.239   1.985 -0.5180  1.4912 -0.5370
   21MOL    C83 6523   2.228   2.211   1.888 -0.5262  0.0441 -0.4392
   21MOL    C84 6524   2.260   2.064   1.883  0.3376  0.9904 -0.0252
   21MOL    C85 6525   2.373   2.014   1.952  0.2136 -0.1085 -0.0349
   21MOL    C86 6526   2.418   1.880   1.944 -0.0537 -0.5499  0.0884
   21MOL    C87 6527   2.353   1.792   1.858  0.4966 -0.5371 -0.4284
   21MOL    C88 6528   2.235   1.840   1.793 -0.1083  0.0615  0.2192
   21MOL    C89 6529   2.182   1.973   1.810 -0.6923 -0.0659  0.9955
   21MOL    H90 6530   2.013   2.214   1.939  1.3421 -2.2601 -2.6105
   21MOL    H91 6531   2.123   2.172   2.070  1.9232 -0.2845 -2.2819
   21MOL    H92 6532   2.327   2.242   1.922 -0.4830  0.5913 -1.0440
   21MOL    H93 6533   2.428   2.074   2.024 -1.2560  0.0996  0.9387
   21MOL    H94 6534   2.503   1.840   1.998  0.4158  0.8839  0.4269
   21MOL    H95 6535   2.386   1.690   1.843 -1.5703 -0.8487 -3.4118
   21MOL    H96 6536   2.177   1.765   1.741  1.9738  0.1923 -2.3908
   21MOL    H97 6537   2.095   1.994   1.750  0.6718 -0.9772 -1.3654
   21MOL    C98 6538   2.208   2.284   1.752  0.1821 -0.5601 -0.3813
   21MOL    C99 6539   2.335   2.288   1.671  0.5163 -0.5014  1.1259
   21MOL   C100 6540   2.309   2.239   1.525 -0.0944 -0.1153  0.3686
   21MOL   C101 6541   2.365   2.117   1.483  0.5754  0.0960 -0.0397
   21MOL   C102 6542   2.336   2.061   1.353 -0.3180 -0.1902 -0.7339
   21MOL   C103 6543   2.242   2.125   1.273  0.1475 -1.0660  0.1436
   21MOL   C104 6544   2.186   2.253   1.316  0.4111 -0.8123 -0.6176
   21MOL   C105 6545   2.221   2.307   1.441 -0.0535 -0.1679  0.7694
   21MOL   H106 6546   2.166   2.383   1.763 -1.3446 -0.9692 -2.2777
   21MOL   H107 6547   2.133   2.223   1.701 -0.4139  0.9635 -1.3505
   21MOL   H108 6548   2.414   2.223   1.708  0.7572 -0.2262  1.0989
   21MOL   H109 6549   2.419   2.058   1.555  0.9096  0.1796 -0.2178
   21MOL   H110 6550   2.397   1.977   1.323 -0.1349 -1.4234  2.8718
   21MOL   H111 6551   2.214   2.070   1.184  1.2206 -1.2698 -0.0717
   21MOL   H112 6552   2.119   2.299   1.244  0.7052 -0.5327 -0.7191
   21MOL   H113 6553   2.181   2.405   1.463 -1.3438 -0.5676  0.2186
   21MOL   C114 6554   2.395   2.432   1.678  0.3579 -0.3433 -1.5100
   21MOL   C115 6555   2.518   2.469   1.598 -0.0400  0.7469  0.3991
   21MOL   C116 6556   2.501   2.614   1.559  0.4372 -0.3718  0.1568
   21MOL   C117 6557   2.473   2.653   1.423  0.0646  0.2010 -0.4543
   21MOL   C118 6558   2.441   2.781   1.394 -0.1344  0.4877 -0.2012
   21MOL   C119 6559   2.433   2.882   1.490  0.4513 -0.0461  0.1920
   21MOL   C120 6560   2.474   2.854   1.621 -0.3105  0.4137  0.1992
   21MOL   C121 6561   2.502   2.716   1.661 -0.0266 -0.4380 -0.5364
   21MOL   H122 6562   2.420   2.462   1.779  1.9669  0.6729 -2.1773
   21MOL   H123 6563   2.311   2.496   1.649  1.2909  1.5885 -0.0375
   21MOL   H124 6564   2.530   2.403   1.512  0.5895  0.7751  0.4632
   21MOL   H125 6565   2.457   2.580   1.345 -1.5297 -0.2994  0.3007
   21MOL   H126 6566   2.414   2.815   1.295 -0.2885 -0.6151 -0.5469
   21MOL   H127 6567   2.402   2.983   1.467  2.6767  0.5964 -0.1016
   21MOL   H128 6568   2.487   2.940   1.686 -0.2874  2.4830 -2.4867
   21MOL   H129 6569   2.540   2.697   1.760 -2.8711 -1.1665  0.4658
   21MOL   C130 6570   2.645   2.431   1.676  0.2566  0.1664 -0.5467
   21MOL   C131 6571   2.764   2.466   1.583  0.5689  0.3858  0.1881
   21MOL   C132 6572   2.828   2.599   1.627 -0.5138 -0.4560  0.0353
   21MOL   C133 6573   2.817   2.712   1.545 -0.1599  0.3338 -0.3430
   21MOL   C134 6574   2.898   2.821   1.571 -0.4088 -0.2500 -0.1828
   21MOL   C135 6575   2.986   2.824   1.677  0.2620 -0.2791 -0.0449
   21MOL   C136 6576   3.007   2.713   1.758 -0.5284 -0.3071  0.1084
   21MOL   C137 6577   2.923   2.603   1.736 -0.1093 -0.5294  0.3809
   21MOL   H138 6578   2.643   2.325   1.698 -0.4943  0.1588 -0.6510
   21MOL   H139 6579   2.649   2.482   1.772  1.8499  0.5645 -0.7997
   21MOL   H140 6580   2.736   2.479   1.479  0.0169 -0.0264  0.2889
   21MOL   H141 6581   2.762   2.715   1.452 -1.3232 -0.1560  0.3191
   21MOL   H142 6582   2.890   2.900   1.497  0.3655 -0.7511 -0.8045
   21MOL   H143 6583   3.027   2.922   1.693 -1.9981  0.8602 -1.0551
   21MOL   H144 6584   3.073   2.713   1.843 -0.1048 -0.3484 -0.2172
   21MOL   H145 6585   2.942   2.513   1.793 -0.8029 -0.6104  0.4822
   21MOL   C146 6586   2.864   2.349   1.590 -0.2271 -0.1428  0.7015
   21MOL   C147 6587   3.003   2.366   1.521  0.0070 -0.0001  0.0718
   21MOL   C148 6588   3.091   2.243   1.529 -0.4807 -0.2525  0.0959
   21MOL   C149 6589   3.042   2.117   1.486  0.2815 -0.3090  0.0009
   21MOL   C150 6590   3.123   2.005   1.484  0.3500 -0.3031 -0.3319
   21MOL   C151 6591   3.258   2.010   1.529 -0.0704 -0.0843 -0.1836
   21MOL   C152 6592   3.314   2.134   1.562 -0.1087  0.0701 -0.6400
   21MOL   C153 6593   3.226   2.252   1.564 -0.8826 -0.1802  0.0992
   21MOL   H154 6594   2.811   2.265   1.544  0.6357  0.1922 -0.9284
   21MOL   H155 6595   2.859   2.305   1.690 -0.4527 -1.5777  0.0643
   21MOL   H156 6596   3.059   2.449   1.564  0.6602  0.5839 -1.8437
   21MOL   H157 6597   2.940   2.104   1.453 -0.0106  0.0874  0.7414
   21MOL   H158 6598   3.094   1.907   1.448  0.4098 -0.8226  1.0096
   21MOL   H159 6599   3.314   1.918   1.537  0.9177  0.5808  0.6056
   21MOL   H160 6600   3.420   2.142   1.580  0.1565 -0.5900 -1.8530
   21MOL   H161 6601   3.277   2.346   1.582  1.4020 -0.9320 -2.1652
   21MOL   C162 6602   2.974   2.416   1.375 -0.2605 -0.0419  0.0179
   21MOL   C163 6603   3.098   2.452   1.283  0.5669  0.1739 -0.0577
   21MOL   C164 6604   3.051   2.458   1.136 -0.6043  0.3569 -0.0740
   21MOL   C165 6605   3.118   2.379   1.038  0.0780  0.1084 -0.3878
   21MOL   C166 6606   3.072   2.386   0.907  0.4800 -0.2456  0.8396
   21MOL   C167 6607   2.953   2.456   0.876 -0.0909  0.7812 -0.1051
   21MOL   C168 6608   2.884   2.535   0.972 -0.2627 -0.1692 -0.7016
   21MOL   C169 6609   2.933   2.538   1.105  0.1016  0.6766 -1.0882
   21MOL   H170 6610   2.912   2.505   1.384  1.2108  1.0168 -0.0444
   21MOL   H171 6611   2.910   2.346   1.321 -0.7982  0.8724 -0.5400
   21MOL   H172 6612   3.163   2.365   1.289 -0.2206 -0.5331 -1.8719
   21MOL   H173 6613   3.209   2.324   1.059  0.8658  0.9382 -1.6121
   21MOL   H174 6614   3.120   2.331   0.828 -0.1585  0.4189 -0.0305
   21MOL   H175 6615   2.919   2.450   0.773 -1.6380 -0.9315  0.4660
   21MOL   H176 6616   2.790   2.586   0.958 -0.8729 -0.9227  0.5168
   21MOL   H177 6617   2.870   2.582   1.181  2.5482 -0.3753  1.6504
   21MOL   C178 6618   3.175   2.579   1.330 -0.3630 -0.6468  0.5359
   21MOL   C179 6619   3.300   2.617   1.247  0.3573  0.8368 -0.8338
   21MOL   C180 6620   3.302   2.764   1.214 -0.6887 -0.1517  0.4263
   21MOL   C181 6621   3.330   2.824   1.092 -0.2774  0.3374 -0.0829
   21MOL   C182 6622   3.358   2.958   1.073  0.3952 -1.4072 -0.4615
   21MOL   C183 6623   3.336   3.046   1.182 -0.1012 -0.2801 -0.8638
   21MOL   C184 6624   3.294   2.994   1.308  0.1380 -0.3064  0.4227
   21MOL   C185 6625   3.298   2.854   1.324  0.1995  0.2819 -0.5326
   21MOL   H186 6626   3.176   2.574   1.439 -0.5601 -2.3901  0.4720
   21MOL   H187 6627   3.098   2.655   1.330 -0.1084 -0.3859  1.0155
   21MOL   H188 6628   3.287   2.569   1.150 -2.4901  0.4395 -0.2885
   21MOL   H189 6629   3.345   2.754   1.011 -2.0630  0.8274 -0.8611
   21MOL   H190 6630   3.379   2.993   0.973  0.9489 -0.0603  0.1083
   21MOL   H191 6631   3.345   3.153   1.176 -2.1044 -0.0431 -0.1819
   21MOL   H192 6632   3.274   3.054   1.395 -3.5993  0.0325 -0.5797
   21MOL   H193 6633   3.288   2.810   1.423 -0.5086 -1.9291 -1.5520
   21MOL   C194 6634   3.431   2.574   1.305  0.1647 -0.2995 -0.2127
   21MOL   C195 6635   3.520   2.499   1.203 -0.1418  0.0955 -0.6442
   21MOL   C196 6636   3.576   2.593   1.102 -0.0018  0.3269  0.2291
   21MOL   C197 6637   3.560   2.566   0.961 -0.3574  0.5281 -0.5169
   21MOL   C198 6638   3.606   2.667   0.873 -0.1079  0.2795 -0.2718
   21MOL   C199 6639   3.683   2.780   0.912 -0.0730 -0.6886  0.0615
   21MOL   C200 6640   3.704   2.803   1.044  0.6658 -0.8224  0.0217
   21MOL   C201 6641   3.642   2.715   1.138  0.0917 -0.5378  0.2352
   21MOL   H202 6642   3.403   2.513   1.391  0.6318  0.1337  0.2470
   21MOL   H203 6643   3.487   2.648   1.362  1.3213 -0.3733 -1.2286
   21MOL   H204 6644   3.450   2.430   1.157  2.1204 -2.0688 -0.9330
   21MOL   H205 6645   3.505   2.484   0.917  1.9210 -0.5343 -1.4962
   21MOL   H206 6646   3.601   2.649   0.767 -1.7772  0.6138 -0.2572
   21MOL   H207 6647   3.716   2.848   0.834 -1.2273 -1.1872 -0.8702
   21MOL   H208 6648   3.751   2.892   1.083 -3.7360  0.2075  3.4123
   21MOL   H209 6649   3.655   2.746   1.241  1.2764 -2.3646  0.6610
   21MOL   C210 6650   3.648   2.441   1.279  0.3492  0.2790 -0.3513
   21MOL   C211 6651   3.616   2.298   1.347 -0.1345 -0.2656  0.2223
   21MOL   C212 6652   3.561   2.191   1.249  0.2709  0.3380 -0.4543
   21MOL   C213 6653   3.422   2.162   1.251 -0.3425 -0.2347 -0.2729
   21MOL   C214 6654   3.368   2.078   1.155 -0.3236 -0.0238  0.5792
   21MOL   C215 6655   3.452   2.020   1.058 -0.2261 -0.2550  0.0629
   21MOL   C216 6656   3.588   2.051   1.051 -0.2439  0.2853 -0.1483
   21MOL   C217 6657   3.647   2.142   1.148  1.3868 -0.3096 -0.2035
   21MOL   H218 6658   3.693   2.507   1.353  0.0148  1.2693 -1.0174
   21MOL   H219 6659   3.725   2.431   1.203  0.5451 -1.0438  0.0212
   21MOL   H220 6660   3.529   2.310   1.412  0.4150 -1.2099  1.1521
   21MOL   H221 6661   3.348   2.224   1.299 -0.0740 -0.0146 -0.1354
   21MOL   H222 6662   3.262   2.057   1.152 -0.3545  0.3597 -1.8201
   21MOL   H223 6663   3.408   1.954   0.984  2.8590 -1.4439 -0.8084
   21MOL   H224 6664   3.644   2.018   0.964  0.4909  2.2097 -0.4303
   21MOL   H225 6665   3.748   2.179   1.135  0.8820  1.3798  0.6113
   21MOL   C226 6666   3.723   2.251   1.447  0.2518  0.3253 -0.5609
   21MOL   C227 6667   3.794   2.340   1.551  0.6723 -0.0114 -0.5369
   21MOL   C228 6668   3.700   2.429   1.636  0.0462 -0.5841  0.2739
   21MOL   C229 6669   3.716   2.573   1.640  0.6349  0.2500  0.4155
   21MOL   C230 6670   3.639   2.655   1.723 -0.3716  0.4589  0.2400
   21MOL   C231 6671   3.554   2.593   1.815  0.6771 -0.3783  0.0912
   21MOL   C232 6672   3.528   2.455   1.804  0.2461 -0.3703  0.3105
   21MOL   C233 6673   3.600   2.373   1.717 -0.4100  0.5567  0.0522
   21MOL   H234 6674   3.797   2.214   1.377 -0.6795 -0.3818 -1.1808
   21MOL   H235 6675   3.681   2.166   1.501  0.9603 -0.8143 -1.7891
   21MOL   H236 6676   3.872   2.400   1.504  0.6111 -0.7310 -1.5650
   21MOL   H237 6677   3.795   2.615   1.580  0.0921  0.4053 -0.1981
   21MOL   H238 6678   3.639   2.763   1.720  0.9869  0.4455 -0.7044
   21MOL   H239 6679   3.490   2.657   1.874 -2.8589 -1.5762 -2.2594
   21MOL   H240 6680   3.450   2.416   1.869  0.1104  3.6689  2.6938
   21MOL   H241 6681   3.586   2.265   1.718  1.1640  0.3408 -0.4630
   21MOL   C242 6682   3.876   2.242   1.640 -0.1144  0.2725 -0.7800
   21MOL   C243 6683   3.975   2.326   1.721 -0.2236  0.7368  0.5122
   21MOL   C244 6684   3.988   2.271   1.865 -0.2528 -0.5178 -0.0408
   21MOL   C245 6685   3.905   2.323   1.969  0.2420 -0.6733  0.0866
   21MOL   C246 6686   3.923   2.275   2.100  0.6024 -0.6698 -0.7810
   21MOL   C247 6687   4.028   2.186   2.129  0.1787  0.7728 -0.4483
   21MOL   C248 6688   4.102   2.132   2.024 -0.2116 -0.2072  0.0581
   21MOL   C249 6689   4.078   2.170   1.889  0.6339  0.4350 -0.4906
   21MOL   H250 6690   3.927   2.169   1.579 -0.5252  0.9750 -1.9748
   21MOL   H251 6691   3.819   2.181   1.710  3.6032 -2.5550 -0.0846
   21MOL   H252 6692   3.933   2.426   1.730 -0.1123  1.0627 -2.0241
   21MOL   H253 6693   3.831   2.398   1.947 -1.6999 -2.7165 -0.4979
   21MOL   H254 6694   3.863   2.311   2.183 -0.8159 -1.6068 -1.3747
   21MOL   H255 6695   4.052   2.152   2.229 -2.0289  2.8594  0.8506
   21MOL   H256 6696   4.188   2.069   2.042 -0.1134 -0.9476 -2.6879
   21MOL   H257 6697   4.149   2.133   1.816 -1.2391  1.6064 -2.9661
   21MOL   C258 6698   4.107   2.342   1.643  0.0006  0.2448 -0.0751
   21MOL   C259 6699   4.201   2.449   1.704 -0.1845  0.2896 -0.0088
   21MOL   C260 6700   4.334   2.438   1.623  0.2069 -0.2151 -0.9736
   21MOL   C261 6701   4.340   2.449   1.479  0.0904 -0.1920  0.0758
   21MOL   C262 6702   4.471   2.428   1.420  0.4074 -0.0250  0.2299
   21MOL   C263 6703   4.588   2.412   1.496 -0.5872  0.0977  0.0383
   21MOL   C264 6704   4.578   2.404   1.639 -0.0142  0.1484  0.7562
   21MOL   C265 6705   4.450   2.415   1.702  0.2626  0.3817 -0.1980
   21MOL   H266 6706   4.096   2.383   1.543  1.3083  0.8089  0.0003
   21MOL   H267 6707   4.158   2.246   1.637  1.3826  1.0285 -1.0957
   21MOL   H268 6708   4.227   2.426   1.807 -2.8097  1.5212  0.9811
   21MOL   H269 6709   4.250   2.467   1.423  0.2603  0.4754  0.0150
   21MOL   H270 6710   4.477   2.417   1.313  0.2984  0.4262  0.1749
   21MOL   H271 6711   4.682   2.389   1.449 -1.2805 -2.5422 -0.1475
   21MOL   H272 6712   4.670   2.394   1.694  0.4173  0.8023  0.1563
   21MOL   H273 6713   4.455   2.408   1.810 -1.4189  0.2380 -0.1143
   21MOL   C274 6714   4.150   2.598   1.704  0.0736 -0.1985  0.2288
   21MOL   C275 6715   4.109   2.647   1.840 -0.5042  0.0058  0.4045
   21MOL   C276 6716   4.226   2.668   1.942 -0.0829 -0.7494  0.4962
   21MOL   C277 6717   4.242   2.574   2.052 -0.0968  0.1302  0.0580
   21MOL   C278 6718   4.336   2.598   2.150 -0.1895  0.1021 -0.0119
   21MOL   C279 6719   4.419   2.708   2.138  0.2290  0.1758  0.0254
   21MOL   C280 6720   4.396   2.808   2.042  0.2415  0.0740 -0.0344
   21MOL   C281 6721   4.302   2.788   1.942  0.4600 -0.0324 -0.4660
   21MOL   H282 6722   4.080   2.611   1.622  0.3308  1.3093  0.2393
   21MOL   H283 6723   4.229   2.661   1.664 -1.6542  1.3418 -0.8180
   21MOL   H284 6724   4.048   2.573   1.892  0.0494  0.3402  1.5592
   21MOL   H285 6725   4.174   2.490   2.061  2.6809 -2.3387 -1.2674
   21MOL   H286 6726   4.349   2.527   2.230  1.6554 -0.6888 -0.9929
   21MOL   H287 6727   4.499   2.725   2.209  0.0509 -2.1411  0.7986
   21MOL   H288 6728   4.455   2.899   2.041  0.2347  0.0758 -0.2168
   21MOL   H289 6729   4.284   2.869   1.873 -2.6136 -1.0711 -0.9293
   21MOL   C290 6730   4.024   2.776   1.826  0.6108 -0.0833  0.1322
   21MOL   C291 6731   3.966   2.824   1.965  0.9779 -0.6635 -0.3822
   21MOL   C292 6732   3.927   2.971   1.953  0.0354  0.0307  0.5304
   21MOL   C293 6733   3.795   3.023   1.941  0.3244 -0.6873 -0.0897
   21MOL   C294 6734   3.769   3.159   1.918  0.3165  0.1947 -0.7588
   21MOL   C295 6735   3.877   3.253   1.907 -0.5183  0.6228  0.0232
   21MOL   C296 6736   4.013   3.202   1.917 -0.2138 -0.0756  0.1638
   21MOL   C297 6737   4.033   3.065   1.952 -0.1394 -0.6089  0.7681
   21MOL   H298 6738   3.939   2.779   1.758 -2.0190  1.7137  3.3785
   21MOL   H299 6739   4.079   2.856   1.777  2.3840 -1.3377  0.0060
   21MOL   H300 6740   4.041   2.826   2.044  1.2984  2.0385 -0.7171
   21MOL   H301 6741   3.709   2.958   1.947  0.4758 -0.7851  1.1231
   21MOL   H302 6742   3.668   3.191   1.896 -0.4012  0.1875  2.2713
   21MOL   H303 6743   3.857   3.357   1.887 -1.8340  0.5404  0.8176
   21MOL   H304 6744   4.102   3.261   1.905 -1.0895  1.5553  1.3955
   21MOL   H305 6745   4.133   3.029   1.968 -0.0521 -0.2680  1.0018
   21MOL   C306 6746   3.850   2.731   2.015  0.0457  0.6222  0.5706
   21MOL   C307 6747   3.795   2.764   2.156  0.2622 -0.2688 -0.4678
   21MOL   C308 6748   3.728   2.661   2.236 -0.3151 -0.5423 -0.0649
   21MOL   C309 6749   3.630   2.579   2.178 -0.7503  0.3605  0.2807
   21MOL   C310 6750   3.573   2.474   2.243  0.5384 -0.0286 -0.1329
   21MOL   C311 6751   3.624   2.432   2.364  0.0787 -0.0073  0.5148
   21MOL   C312 6752   3.730   2.504   2.423 -0.2256  0.0113 -0.2253
   21MOL   C313 6753   3.780   2.616   2.360 -0.4545 -0.5093 -0.8691
   21MOL   H314 6754   3.890   2.631   2.032 -1.3153  0.0398  0.3394
   21MOL   H315 6755   3.772   2.722   1.940  1.4049  0.8490 -0.8974
   21MOL   H316 6756   3.717   2.837   2.135 -1.5666 -1.8244  0.7234
   21MOL   H317 6757   3.589   2.613   2.084  0.5310  2.0357  0.3111
   21MOL   H318 6758   3.498   2.408   2.201  0.3365 -0.1242  0.3732
   21MOL   H319 6759   3.583   2.340   2.404 -2.4752  1.2634  0.9483
   21MOL   H320 6760   3.775   2.469   2.515  2.2633  0.7606 -1.1092
   21MOL   H321 6761   3.866   2.670   2.395  0.3749 -1.8836 -0.7286
   21MOL   H322 6762   3.860   2.821   2.222 -1.0244  0.5978  0.0704
   22MOL     C1 6763   5.376   5.358   6.027  0.0576  0.1581  0.7293
   22MOL     C2 6764   5.469   5.476   6.019 -0.7439 -0.0164  0.4677
   22MOL     C3 6765   5.457   5.552   5.887  0.2358  0.3369 -0.8345
   22MOL     C4 6766   5.546   5.522   5.784 -0.5722  0.3606 -0.3290
   22MOL     C5 6767   5.544   5.586   5.658 -0.1485  0.4999  0.1253
   22MOL     C6 6768   5.441   5.681   5.636 -0.0769 -0.5013  0.0835
   22MOL     C7 6769   5.341   5.705   5.734 -0.7852  0.9239 -0.1987
   22MOL     C8 6770   5.352   5.648   5.863 -0.0601  0.3683  0.2177
   22MOL     H9 6771   5.387   5.300   5.935 -1.6175  3.3474 -1.5558
   22MOL    H10 6772   5.415   5.301   6.112  0.3151 -0.0341  0.4815
   22MOL    H11 6773   5.569   5.434   6.028 -0.0920  1.6086  0.8445
   22MOL    H12 6774   5.614   5.442   5.810 -1.6885  0.0103  1.6497
   22MOL    H13 6775   5.625   5.564   5.591 -0.4560  0.9522 -0.3965
   22MOL    H14 6776   5.442   5.722   5.536  0.5736 -1.9318 -0.5125
   22MOL    H15 6777   5.268   5.784   5.725 -0.8470  0.8070 -0.7405
   22MOL    H16 6778   5.285   5.657   5.947  0.7157 -3.5050  1.3705
   22MOL    H17 6779   5.272   5.385   6.042 -0.2799 -0.0877 -1.1131
   22MOL    C18 6780   5.459   5.578   6.132  0.1106 -0.5537 -0.5531
   22MOL    C19 6781   5.494   5.546   6.279 -0.3604  0.0438 -0.4440
   22MOL    C20 6782   5.640   5.508   6.293  0.3309 -0.0613 -1.1849
   22MOL    C21 6783   5.742   5.570   6.218  0.2907 -0.5986  0.6523
   22MOL    C22 6784   5.877   5.536   6.231 -0.3672  0.4974  0.2268
   22MOL    C23 6785   5.903   5.429   6.326 -0.0699  0.0628  0.0773
   22MOL    C24 6786   5.806   5.379   6.412 -0.8475 -0.0683 -0.3877
   22MOL    C25 6787   5.672   5.414   6.387 -0.5536  0.1214 -0.0748
   22MOL    H26 6788   5.358   5.617   6.132 -0.6422 -2.4433 -0.4742
   22MOL    H27 6789   5.522   5.657   6.090 -0.5038  0.4113  0.3083
   22MOL    H28 6790   5.438   5.465   6.325 -1.2544  0.5512 -0.6485
   22MOL    H29 6791   5.719   5.635   6.136  1.8449 -2.0499 -0.9779
   22MOL    H30 6792   5.956   5.579   6.172 -0.4916  0.9244  0.3681
   22MOL    H31 6793   6.002   5.385   6.325  0.9247  2.2062 -0.7991
   22MOL    H32 6794   5.830   5.291   6.470  1.9852  0.7550 -0.2576
   22MOL    H33 6795   5.591   5.356   6.430 -1.0477  0.4690 -0.5350
   22MOL    C34 6796   5.469   5.674   6.357  1.0125 -0.3669 -0.8668
   22MOL    C35 6797   5.324   5.696   6.410 -1.0216  0.2639 -0.0198
   22MOL    C36 6798   5.267   5.582   6.489  0.1905 -1.1108 -0.0346
   22MOL    C37 6799   5.126   5.553   6.476 -0.5726 -0.1823  0.4288
   22MOL    C38 6800   5.063   5.456   6.561 -0.7884 -0.2959  0.9427
   22MOL    C39 6801   5.139   5.385   6.654 -0.4855  0.0642  0.2987
   22MOL    C40 6802   5.278   5.401   6.655 -0.6601  0.4341  0.4654
   22MOL    C41 6803   5.339   5.500   6.576 -0.6853 -0.0216  0.2424
   22MOL    H42 6804   5.486   5.754   6.284 -0.6990 -0.8066 -1.7846
   22MOL    H43 6805   5.536   5.691   6.441 -0.1414 -1.3596  0.2637
   22MOL    H44 6806   5.258   5.705   6.324 -0.2346 -0.0799 -0.6661
   22MOL    H45 6807   5.065   5.611   6.408 -0.9687 -0.9580  0.1182
   22MOL    H46 6808   4.955   5.448   6.553 -0.6792 -1.7080  0.7185
   22MOL    H47 6809   5.101   5.323   6.734 -0.9903  0.6612  0.5363
   22MOL    H48 6810   5.332   5.337   6.723 -2.0377 -0.9402  0.2947
   22MOL    H49 6811   5.444   5.520   6.593 -0.9577  0.4300  1.4459
   22MOL    C50 6812   5.313   5.824   6.494 -0.1714  0.5621 -0.2787
   22MOL    C51 6813   5.320   5.957   6.417  0.3700 -0.2939 -0.2935
   22MOL    C52 6814   5.230   5.958   6.294 -0.6770 -0.5674  0.5607
   22MOL    C53 6815   5.099   6.006   6.309 -0.3871  0.2227  0.4802
   22MOL    C54 6816   5.021   6.023   6.195  0.0570  0.3736  0.2110
   22MOL    C55 6817   5.063   5.988   6.070  0.3447 -0.8744  0.1650
   22MOL    C56 6818   5.189   5.928   6.048  0.2126  0.1809 -0.1556
   22MOL    C57 6819   5.273   5.921   6.161 -0.3416  0.1575  0.0225
   22MOL    H58 6820   5.382   5.810   6.577 -0.9047  4.3870  1.0885
   22MOL    H59 6821   5.212   5.827   6.534 -0.3068  1.1355 -0.6511
   22MOL    H60 6822   5.420   5.969   6.376  0.7748  2.3313  1.3640
   22MOL    H61 6823   5.059   6.038   6.404  1.0622 -1.0787  1.5520
   22MOL    H62 6824   4.928   6.078   6.202 -0.6501 -0.6030 -1.1561
   22MOL    H63 6825   5.002   6.020   5.987 -1.1681  2.4967  2.4755
   22MOL    H64 6826   5.219   5.890   5.951 -0.4744 -1.2470  0.1748
   22MOL    H65 6827   5.371   5.884   6.137 -0.9057 -1.6957  0.5047
   22MOL    C66 6828   5.310   6.078   6.519 -0.0363  0.3751  0.8580
   22MOL    C67 6829   5.319   6.220   6.454 -0.0070  0.9187 -0.5917
   22MOL    C68 6830   5.286   6.331   6.563 -0.3195  0.1316 -0.7416
   22MOL    C69 6831   5.161   6.391   6.571  0.6070 -0.7014 -1.0494
   22MOL    C70 6832   5.135   6.472   6.685  0.3070 -0.2548 -0.4816
   22MOL    C71 6833   5.235   6.497   6.782  0.6475 -0.3561  0.0486
   22MOL    C72 6834   5.369   6.450   6.759  0.1497  0.2039 -0.4330
   22MOL    C73 6835   5.387   6.358   6.657  0.0922 -0.2119 -0.4528
   22MOL    H74 6836   5.391   6.063   6.590  0.8874 -0.0267 -0.2726
   22MOL    H75 6837   5.220   6.069   6.580 -0.7044 -0.3333 -0.2169
   22MOL    H76 6838   5.247   6.223   6.372  0.6436  0.9940 -1.1668
   22MOL    H77 6839   5.070   6.373   6.514  1.0232 -0.5570 -1.7671
   22MOL    H78 6840   5.034   6.507   6.700 -0.0012 -1.0683 -0.6922
   22MOL    H79 6841   5.203   6.551   6.870 -1.7012  0.7659 -1.4477
   22MOL    H80 6842   5.447   6.454   6.833  0.4156 -1.0329 -0.6314
   22MOL    H81 6843   5.489   6.320   6.656  0.4748  0.8080 -2.9261
   22MOL    C82 6844   5.453   6.244   6.379  0.0284  0.2138 -0.5245
   22MOL    C83 6845   5.467   6.381   6.315 -0.2739  0.6615 -0.3745
   22MOL    C84 6846   5.618   6.418   6.317  0.7305 -0.0963  0.3913
   22MOL    C85 6847   5.712   6.379   6.214  0.4035 -0.0677  0.3295
   22MOL    C86 6848   5.849   6.417   6.225  0.7513  0.3108 -0.3582
   22MOL    C87 6849   5.898   6.468   6.347  0.4478 -0.5411  0.1222
   22MOL    C88 6850   5.809   6.488   6.454  0.6289  0.1911  0.3113
   22MOL    C89 6851   5.670   6.486   6.431  0.4476  0.9050 -0.3203
   22MOL    H90 6852   5.476   6.162   6.311 -2.4248 -0.4232 -0.6512
   22MOL    H91 6853   5.530   6.231   6.455 -0.1078 -0.2068 -0.4569
   22MOL    H92 6854   5.421   6.452   6.384  2.4112 -0.1877  2.4562
   22MOL    H93 6855   5.684   6.329   6.123 -0.0074 -0.5112  0.6942
   22MOL    H94 6856   5.925   6.374   6.160  0.0144  0.5949 -1.4261
   22MOL    H95 6857   6.004   6.480   6.363  0.1310  2.5893  0.2317
   22MOL    H96 6858   5.847   6.515   6.552 -0.8080  1.1369  0.6160
   22MOL    H97 6859   5.609   6.514   6.516  0.6489  4.4285 -1.2711
   22MOL    C98 6860   5.398   6.396   6.177 -0.4197  0.5376  0.1428
   22MOL    C99 6861   5.382   6.537   6.113 -0.1575 -0.5545 -0.1514
   22MOL   C100 6862   5.447   6.541   5.971 -0.2503 -0.4878  0.7237
   22MOL   C101 6863   5.589   6.571   5.960  0.3499 -0.7821  0.2931
   22MOL   C102 6864   5.642   6.586   5.829 -0.0440  0.0376 -0.3237
   22MOL   C103 6865   5.557   6.570   5.710 -0.3860  0.3015 -0.4698
   22MOL   C104 6866   5.423   6.544   5.727 -0.0343 -0.2121 -0.4849
   22MOL   C105 6867   5.369   6.524   5.854  0.0264 -0.1322  0.4265
   22MOL   H106 6868   5.299   6.351   6.180  0.6331 -2.1620 -2.7429
   22MOL   H107 6869   5.442   6.325   6.107 -2.9780 -0.0668 -0.8908
   22MOL   H108 6870   5.438   6.608   6.173 -1.2009  1.0784 -1.0735
   22MOL   H109 6871   5.638   6.600   6.052 -1.6843  1.5845  0.6936
   22MOL   H110 6872   5.746   6.615   5.824 -0.2692  1.1128  0.8817
   22MOL   H111 6873   5.613   6.577   5.618  0.3546  1.2974  0.0460
   22MOL   H112 6874   5.369   6.549   5.633  2.8351 -0.5683 -2.2296
   22MOL   H113 6875   5.261   6.524   5.849 -0.0336  2.1016  1.2464
   22MOL   C114 6876   5.234   6.590   6.100  0.4222  0.0698 -0.1225
   22MOL   C115 6877   5.163   6.620   6.236  0.5745  0.3184  0.2347
   22MOL   C116 6878   5.226   6.737   6.310 -0.1199  1.1214 -0.4665
   22MOL   C117 6879   5.278   6.717   6.445  0.2242  0.5379  0.5017
   22MOL   C118 6880   5.339   6.819   6.516  0.5584 -0.4550 -0.3415
   22MOL   C119 6881   5.350   6.950   6.456  0.1708  0.6589 -1.3016
   22MOL   C120 6882   5.285   6.973   6.338 -0.3173 -0.4892  0.3896
   22MOL   C121 6883   5.225   6.870   6.262  0.2673 -0.3158 -0.6344
   22MOL   H122 6884   5.185   6.519   6.033  0.5206  0.6957 -0.8782
   22MOL   H123 6885   5.219   6.684   6.045 -2.0328  1.1780  2.2976
   22MOL   H124 6886   5.164   6.533   6.301 -0.7462  0.9096  1.0742
   22MOL   H125 6887   5.277   6.614   6.479  0.8644  0.1530 -0.6044
   22MOL   H126 6888   5.388   6.801   6.610 -2.0307  0.0014  1.1412
   22MOL   H127 6889   5.394   7.032   6.510 -0.0736 -0.0069 -0.0700
   22MOL   H128 6890   5.284   7.073   6.297  0.2242  0.2204  2.0745
   22MOL   H129 6891   5.191   6.894   6.162 -1.1163 -0.0253 -0.1069
   22MOL   C130 6892   5.015   6.645   6.199  0.4421 -0.8158 -0.3999
   22MOL   C131 6893   4.926   6.525   6.150 -0.2500 -0.1326  0.2254
   22MOL   C132 6894   4.833   6.479   6.260  0.4472  0.0060 -0.1160
   22MOL   C133 6895   4.869   6.361   6.335  0.1183 -0.1230 -0.0717
   22MOL   C134 6896   4.787   6.310   6.438  0.4060 -0.4254  0.5241
   22MOL   C135 6897   4.664   6.371   6.467 -0.0508 -0.0037  0.2734
   22MOL   C136 6898   4.630   6.494   6.393 -0.3549 -0.5106  0.9145
   22MOL   C137 6899   4.717   6.550   6.294  0.3575 -0.1434  0.8146
   22MOL   H138 6900   5.019   6.729   6.130 -1.1724 -0.7074 -0.3868
   22MOL   H139 6901   4.963   6.701   6.277 -1.0519 -0.7822 -1.4002
   22MOL   H140 6902   4.989   6.439   6.128  1.1474  1.4019 -1.9418
   22MOL   H141 6903   4.961   6.310   6.309 -0.8760 -1.3917 -1.1786
   22MOL   H142 6904   4.816   6.217   6.484 -2.3063 -1.5174  0.0575
   22MOL   H143 6905   4.601   6.337   6.547  1.1693 -0.6515  0.9809
   22MOL   H144 6906   4.540   6.548   6.416 -1.3788 -1.3510 -0.9661
   22MOL   H145 6907   4.693   6.637   6.234  0.6001 -1.9860 -2.0830
   22MOL   C146 6908   4.853   6.566   6.016  0.2497  0.2491  0.5367
   22MOL   C147 6909   4.726   6.491   5.968  0.0389 -0.7409  0.3572
   22MOL   C148 6910   4.644   6.564   5.863 -0.2087  0.6778  0.5130
   22MOL   C149 6911   4.662   6.561   5.725 -0.0324 -0.8573  0.5990
   22MOL   C150 6912   4.596   6.651   5.640  0.1248  0.0810  0.4824
   22MOL   C151 6913   4.508   6.744   5.692  0.1488  0.5492 -0.2036
   22MOL   C152 6914   4.478   6.740   5.830 -0.3446  0.4633 -0.2673
   22MOL   C153 6915   4.550   6.655   5.914 -0.2238 -0.3827  0.1494
   22MOL   H154 6916   4.920   6.569   5.930 -0.3702  1.1089  0.0666
   22MOL   H155 6917   4.841   6.675   6.022  1.2112  0.3371  0.9056
   22MOL   H156 6918   4.663   6.479   6.056 -0.9054 -1.1928 -0.3557
   22MOL   H157 6919   4.739   6.494   5.688  0.3956 -1.6880  2.8887
   22MOL   H158 6920   4.620   6.641   5.535 -0.0171  1.0057  0.3628
   22MOL   H159 6921   4.465   6.813   5.621 -1.4929  0.3287  0.5519
   22MOL   H160 6922   4.414   6.816   5.872 -0.0347 -0.8411  2.6506
   22MOL   H161 6923   4.520   6.675   6.016 -1.7254 -0.7380 -0.2058
   22MOL   C162 6924   4.760   6.344   5.928 -0.3906 -0.4685 -1.0520
   22MOL   C163 6925   4.633   6.266   5.892 -0.7755  0.2000 -0.4707
   22MOL   C164 6926   4.673   6.138   5.816  0.0254 -0.6295 -0.3074
   22MOL   C165 6927   4.665   6.124   5.677  0.1347  0.2286 -0.2075
   22MOL   C166 6928   4.704   6.007   5.609 -0.7700  0.5377 -0.3281
   22MOL   C167 6929   4.763   5.906   5.685  0.0979 -0.3212 -0.7655
   22MOL   C168 6930   4.796   5.921   5.823 -0.4279  0.0605  0.7581
   22MOL   C169 6931   4.740   6.033   5.891  0.5387  0.2841  0.0584
   22MOL   H170 6932   4.812   6.280   5.999  0.8439 -0.6915 -2.1263
   22MOL   H171 6933   4.827   6.352   5.842 -0.9583  0.1035 -1.4457
   22MOL   H172 6934   4.583   6.331   5.819 -3.4411 -0.7458  0.4372
   22MOL   H173 6935   4.620   6.195   5.610  0.7133  0.1415 -0.6947
   22MOL   H174 6936   4.694   6.003   5.501 -2.7437  0.3564 -0.1685
   22MOL   H175 6937   4.792   5.817   5.631  0.1251 -0.7912  0.0075
   22MOL   H176 6938   4.847   5.839   5.872 -0.5603 -2.1837 -2.6881
   22MOL   H177 6939   4.761   6.039   5.997 -0.9856 -0.4866  0.4115
   22MOL   C178 6940   4.537   6.248   6.007  0.3491 -0.5554 -0.2026
   22MOL   C179 6941   4.424   6.144   5.969  0.0889 -0.2568 -0.2766
   22MOL   C180 6942   4.426   6.021   6.061 -0.4916 -0.2010 -0.3182
   22MOL   C181 6943   4.458   5.896   6.009  0.0231 -0.3878 -0.6058
   22MOL   C182 6944   4.440   5.784   6.095 -0.1956  0.3848  0.2024
   22MOL   C183 6945   4.395   5.795   6.225 -0.0524 -1.1276  0.1196
   22MOL   C184 6946   4.390   5.919   6.275 -0.2768 -0.7975  0.4796
   22MOL   C185 6947   4.404   6.036   6.198 -0.1304  0.1966  0.1540
   22MOL   H186 6948   4.491   6.346   6.014  0.8856  0.0731 -4.1281
   22MOL   H187 6949   4.586   6.229   6.102  2.2061 -0.9067 -1.1965
   22MOL   H188 6950   4.428   6.106   5.867 -0.1571 -0.2580 -0.2879
   22MOL   H189 6951   4.476   5.893   5.902 -3.8225 -1.7669 -1.3079
   22MOL   H190 6952   4.445   5.686   6.050  0.6746  0.1050  0.9016
   22MOL   H191 6953   4.369   5.707   6.283 -0.9793 -0.1685  1.1807
   22MOL   H192 6954   4.361   5.931   6.378 -0.7204  1.7789  0.0865
   22MOL   H193 6955   4.388   6.130   6.250 -1.6884 -1.8369  3.5457
   22MOL   C194 6956   4.279   6.212   5.981 -0.2230 -0.1708 -0.2338
   22MOL   C195 6957   4.239   6.328   5.898 -0.4814 -0.2952 -0.1713
   22MOL   C196 6958   4.265   6.305   5.754 -0.0703  0.6471 -0.1224
   22MOL   C197 6959   4.339   6.403   5.691 -0.3827  0.0332 -0.1845
   22MOL   C198 6960   4.373   6.393   5.556  0.1054 -0.5530 -0.2945
   22MOL   C199 6961   4.325   6.282   5.485  0.6336  0.4362 -0.2543
   22MOL   C200 6962   4.247   6.189   5.548 -0.3620 -0.2642  0.8406
   22MOL   C201 6963   4.208   6.198   5.686 -0.2717  0.2924  0.2541
   22MOL   H202 6964   4.276   6.231   6.088 -0.5386  2.1240 -0.6316
   22MOL   H203 6965   4.200   6.138   5.969 -1.6336  1.5689 -2.0156
   22MOL   H204 6966   4.295   6.414   5.933  1.1688 -1.6799  0.6556
   22MOL   H205 6967   4.362   6.495   5.744  0.5503  1.6380 -3.1860
   22MOL   H206 6968   4.431   6.473   5.512  2.3896 -0.9354  1.8664
   22MOL   H207 6969   4.341   6.259   5.380  1.3792 -1.5346  0.2821
   22MOL   H208 6970   4.212   6.104   5.492 -1.2988  0.4955  0.2462
   22MOL   H209 6971   4.142   6.133   5.741  0.0425 -0.4021 -0.1865
   22MOL   C210 6972   4.086   6.365   5.912 -0.1493 -0.4320 -0.0610
   22MOL   C211 6973   4.032   6.427   6.037 -0.7366  0.1301 -0.1982
   22MOL   C212 6974   4.101   6.562   6.057  0.2428  0.0832 -0.1552
   22MOL   C213 6975   4.221   6.569   6.131  0.3092  0.0783 -0.0750
   22MOL   C214 6976   4.286   6.695   6.155 -0.4417  0.2593 -0.2018
   22MOL   C215 6977   4.214   6.811   6.122 -0.4631 -0.4374  0.5020
   22MOL   C216 6978   4.091   6.807   6.057 -0.3682 -0.0140  0.2787
   22MOL   C217 6979   4.046   6.682   6.009  0.4180 -0.1161  0.8728
   22MOL   H218 6980   4.024   6.278   5.889  2.4116 -1.6461 -2.6978
   22MOL   H219 6981   4.057   6.437   5.836  0.5937  0.4105  0.4454
   22MOL   H220 6982   4.069   6.370   6.122 -0.4751  0.8552  0.1734
   22MOL   H221 6983   4.265   6.482   6.176  3.6039  1.0519 -1.2633
   22MOL   H222 6984   4.371   6.692   6.221 -0.7553 -0.1632  0.1935
   22MOL   H223 6985   4.245   6.908   6.158 -2.8498  0.4722  0.2090
   22MOL   H224 6986   4.044   6.897   6.022 -1.5538 -1.2864 -1.4976
   22MOL   H225 6987   3.950   6.675   5.959 -0.6094  0.0709  2.7687
   22MOL   C226 6988   3.880   6.428   6.043 -0.3713  0.4798 -0.0654
   22MOL   C227 6989   3.825   6.297   6.106 -0.2566  0.1455  1.2850
   22MOL   C228 6990   3.796   6.313   6.257  0.6712  0.5399  0.5511
   22MOL   C229 6991   3.858   6.237   6.356 -0.3014  0.0292  0.5256
   22MOL   C230 6992   3.828   6.256   6.493 -0.0239  0.3769 -0.2691
   22MOL   C231 6993   3.730   6.350   6.529 -0.2498 -0.2415 -0.2994
   22MOL   C232 6994   3.663   6.418   6.424 -0.3697 -0.0234  0.2247
   22MOL   C233 6995   3.699   6.409   6.293 -0.3829  0.1243 -0.2188
   22MOL   H234 6996   3.842   6.456   5.945  1.5269  1.9655 -0.3857
   22MOL   H235 6997   3.853   6.514   6.105  0.7829  1.4750 -0.9267
   22MOL   H236 6998   3.909   6.229   6.092 -1.0899 -0.2861 -2.0481
   22MOL   H237 6999   3.937   6.167   6.331  0.1746  1.0239 -0.8091
   22MOL   H238 7000   3.867   6.189   6.569 -0.6010 -0.3233 -0.5861
   22MOL   H239 7001   3.691   6.355   6.629 -1.3049 -1.8734 -0.6201
   22MOL   H240 7002   3.582   6.488   6.440  1.6070  2.9212 -2.1849
   22MOL   H241 7003   3.658   6.466   6.211 -3.5211 -0.0587  1.1495
   22MOL   C242 7004   3.701   6.249   6.032 -0.2549  0.1425  0.3515
   22MOL   C243 7005   3.733   6.169   5.904 -0.6139  0.2027 -0.4452
   22MOL   C244 7006   3.792   6.040   5.942 -0.2218  0.1181 -0.4149
   22MOL   C245 7007   3.920   6.013   5.901  0.2792 -0.1620  1.0967
   22MOL   C246 7008   3.980   5.890   5.931 -0.0210 -0.6967 -0.0743
   22MOL   C247 7009   3.926   5.800   6.028  0.2762 -1.0165  0.5526
   22MOL   C248 7010   3.797   5.829   6.076  0.5383  0.7917  0.3168
   22MOL   C249 7011   3.730   5.946   6.036 -0.0291 -0.1214 -0.1931
   22MOL   H250 7012   3.640   6.337   6.014 -0.1817 -0.3460 -2.4430
   22MOL   H251 7013   3.640   6.180   6.090  0.7294 -1.6880 -0.7303
   22MOL   H252 7014   3.813   6.222   5.852 -1.2915  0.5009 -1.2034
   22MOL   H253 7015   3.980   6.069   5.830  0.5719 -1.7635  0.0716
   22MOL   H254 7016   4.075   5.861   5.887  0.9242  2.4665 -0.2313
   22MOL   H255 7017   3.969   5.704   6.055  1.2294 -0.9901 -0.8069
   22MOL   H256 7018   3.759   5.750   6.138  1.5632  0.5403  0.6310
   22MOL   H257 7019   3.635   5.962   6.083  0.6884  1.9208  0.6035
   22MOL   C258 7020   3.606   6.134   5.815  0.5668  0.4949  0.0662
   22MOL   C259 7021   3.567   6.259   5.727 -0.1779 -0.0375  1.0242
   22MOL   C260 7022   3.684   6.291   5.629 -0.6129 -0.8444 -0.3008
   22MOL   C261 7023   3.723   6.196   5.535  0.0142 -0.0525  0.5145
   22MOL   C262 7024   3.843   6.207   5.461 -0.1544  0.5127  0.2235
   22MOL   C263 7025   3.914   6.325   5.467  0.2511  0.5805  0.6573
   22MOL   C264 7026   3.875   6.420   5.567  0.6819  0.2908 -0.0520
   22MOL   C265 7027   3.758   6.405   5.641 -0.3423 -0.1690 -0.1749
   22MOL   H266 7028   3.532   6.090   5.882  1.0812 -1.2394 -0.4854
   22MOL   H267 7029   3.639   6.062   5.740 -1.1035 -0.4996  0.2651
   22MOL   H268 7030   3.551   6.344   5.793 -0.2272  1.7828 -1.2572
   22MOL   H269 7031   3.677   6.098   5.527 -1.8000  0.6787  1.7654
   22MOL   H270 7032   3.876   6.124   5.400  1.6048 -0.4374  2.4015
   22MOL   H271 7033   4.004   6.346   5.411 -0.2995  0.8874 -0.1326
   22MOL   H272 7034   3.932   6.512   5.574  0.8330  0.3322 -1.6684
   22MOL   H273 7035   3.730   6.486   5.707 -0.6345  0.8400 -1.5168
   22MOL   C274 7036   3.444   6.221   5.635  0.2537  0.5863 -0.0783
   22MOL   C275 7037   3.307   6.220   5.708  0.0985  0.1767  0.0003
   22MOL   C276 7038   3.271   6.365   5.753  0.2941  0.0496  0.1440
   22MOL   C277 7039   3.210   6.460   5.667  0.4088 -0.2107  0.0841
   22MOL   C278 7040   3.192   6.595   5.707  0.6289  0.0761 -0.3796
   22MOL   C279 7041   3.208   6.627   5.842 -0.3364 -0.3527  0.1745
   22MOL   C280 7042   3.259   6.532   5.937  0.0176  0.0935  0.2034
   22MOL   C281 7043   3.294   6.405   5.888  0.3596  0.8616  0.0493
   22MOL   H282 7044   3.474   6.128   5.587  1.4060  0.0305  1.6396
   22MOL   H283 7045   3.427   6.292   5.555  0.9714  0.5979 -0.2254
   22MOL   H284 7046   3.330   6.161   5.797  0.3051 -0.1901 -0.2929
   22MOL   H285 7047   3.170   6.436   5.570 -0.0364  0.2130  0.1623
   22MOL   H286 7048   3.137   6.659   5.638  0.3454  1.4058  1.0575
   22MOL   H287 7049   3.181   6.727   5.871 -0.1390 -0.0724 -0.5882
   22MOL   H288 7050   3.282   6.558   6.039 -0.3338 -0.7512  0.4973
   22MOL   H289 7051   3.324   6.336   5.966 -2.0247  0.6373  0.8126
   22MOL   C290 7052   3.194   6.147   5.635  0.4402  0.2760 -0.2679
   22MOL   C291 7053   3.211   5.992   5.610  0.4197  0.6254 -0.5825
   22MOL   C292 7054   3.264   5.915   5.730 -0.2602  0.0835  0.0565
   22MOL   C293 7055   3.383   5.835   5.718 -0.3935 -0.0171 -0.5263
   22MOL   C294 7056   3.450   5.792   5.840 -0.0298  0.0314 -0.3952
   22MOL   C295 7057   3.395   5.825   5.966 -0.3108  0.3664  0.2479
   22MOL   C296 7058   3.263   5.883   5.976 -0.1599 -0.3010  0.4961
   22MOL   C297 7059   3.205   5.931   5.856  0.1825 -0.5676  0.6739
   22MOL   H298 7060   3.178   6.197   5.540 -1.9089 -0.7812 -0.4642
   22MOL   H299 7061   3.103   6.181   5.685 -1.1508 -0.8723 -2.3073
   22MOL   H300 7062   3.278   5.984   5.525 -0.0756  1.2290 -1.0404
   22MOL   H301 7063   3.440   5.810   5.630  0.6002  0.6795 -0.0877
   22MOL   H302 7064   3.545   5.747   5.818  0.1467 -0.3449  1.0997
   22MOL   H303 7065   3.443   5.780   6.052  0.8560  0.0709 -0.5496
   22MOL   H304 7066   3.221   5.911   6.071  3.1913  1.3240  1.5693
   22MOL   H305 7067   3.113   5.987   5.863  0.1302 -0.4816 -0.7002
   22MOL   C306 7068   3.077   5.915   5.560  0.1874 -0.0675  0.4348
   22MOL   C307 7069   3.031   5.952   5.419 -0.0174 -0.3663 -0.5688
   22MOL   C308 7070   3.119   5.881   5.316  0.6513  0.3350 -0.2896
   22MOL   C309 7071   3.092   5.751   5.270 -0.4892  0.0457 -0.4845
   22MOL   C310 7072   3.161   5.707   5.155 -0.4075  0.1519  0.2287
   22MOL   C311 7073   3.258   5.787   5.090  0.2467  0.2404 -0.0074
   22MOL   C312 7074   3.285   5.914   5.135 -0.3215 -0.3396  0.5040
   22MOL   C313 7075   3.214   5.963   5.248  0.0308  0.8618 -0.5775
   22MOL   H314 7076   3.008   5.947   5.638 -1.3082 -2.8811  0.3314
   22MOL   H315 7077   3.089   5.807   5.557  3.2152  0.2279  0.0056
   22MOL   H316 7078   3.004   6.053   5.390 -1.3646 -0.2531  1.0713
   22MOL   H317 7079   3.028   5.681   5.321 -2.3555 -1.1692 -4.3069
   22MOL   H318 7080   3.150   5.605   5.123 -0.8011  0.4859 -0.7120
   22MOL   H319 7081   3.313   5.738   5.010  0.7657  1.4039 -0.3635
   22MOL   H320 7082   3.361   5.969   5.083  1.7753 -0.9338  2.8589
   22MOL   H321 7083   3.232   6.065   5.279  0.1649  0.5560  0.3725
   22MOL   H322 7084   2.931   5.913   5.403  0.2427 -1.4102  0.2966
   23MOL     C1 7085   3.129   3.156   5.849  0.0489  0.3178 -0.3565
   23MOL     C2 7086   3.247   3.263   5.842  0.2293  0.0947 -0.0030
   23MOL     C3 7087   3.377   3.203   5.780 -0.6552 -0.6430 -0.2616
   23MOL     C4 7088   3.486   3.176   5.857  0.8201  0.2443  0.3121
   23MOL     C5 7089   3.598   3.101   5.804 -0.0329 -0.1667  0.2564
   23MOL     C6 7090   3.597   3.065   5.666 -0.2294  0.0052  1.5120
   23MOL     C7 7091   3.487   3.097   5.587 -0.3680  0.0873  0.1738
   23MOL     C8 7092   3.376   3.163   5.646 -0.0036  0.1985  0.2094
   23MOL     H9 7093   3.030   3.181   5.887 -0.4585 -1.4924 -0.4472
   23MOL    H10 7094   3.107   3.133   5.744 -1.9978  1.2270 -0.1474
   23MOL    H11 7095   3.275   3.298   5.942  0.7165  1.1374 -0.4979
   23MOL    H12 7096   3.470   3.204   5.960  0.1085 -0.9320  0.5266
   23MOL    H13 7097   3.679   3.077   5.872 -1.0513 -2.0620  0.8340
   23MOL    H14 7098   3.680   3.012   5.622  0.1752  1.6090  0.3068
   23MOL    H15 7099   3.493   3.082   5.480  1.2272  0.6353  0.1773
   23MOL    H16 7100   3.288   3.197   5.592 -2.2036 -3.6343  1.1759
   23MOL    H17 7101   3.168   3.063   5.889 -0.2675  0.3988  0.1442
   23MOL    C18 7102   3.195   3.392   5.767  0.0693 -0.9782  0.6395
   23MOL    C19 7103   3.081   3.462   5.834  0.8425  0.3003 -1.2194
   23MOL    C20 7104   3.133   3.513   5.962 -0.1099  0.2702 -0.5566
   23MOL    C21 7105   3.079   3.468   6.083 -0.6795  0.2351 -0.0276
   23MOL    C22 7106   3.111   3.536   6.203 -0.0380 -0.1349 -0.1549
   23MOL    C23 7107   3.219   3.630   6.203  0.2380 -0.9539 -0.2422
   23MOL    C24 7108   3.276   3.663   6.082  0.5623  0.0038 -0.6450
   23MOL    C25 7109   3.233   3.613   5.956 -0.5735  0.5119 -1.2167
   23MOL    H26 7110   3.163   3.360   5.667  1.3171 -1.9961  0.5578
   23MOL    H27 7111   3.272   3.462   5.736  0.6652 -2.4791 -1.4733
   23MOL    H28 7112   3.000   3.390   5.845 -0.4325  1.4552 -2.8566
   23MOL    H29 7113   3.010   3.385   6.090 -2.1905  1.3366 -1.4657
   23MOL    H30 7114   3.065   3.504   6.295  3.0977 -3.6000  0.3404
   23MOL    H31 7115   3.237   3.681   6.296  0.2281  0.7477 -1.1523
   23MOL    H32 7116   3.349   3.741   6.073 -0.7838  1.1230 -2.3288
   23MOL    H33 7117   3.279   3.647   5.864  0.6733 -1.0791 -1.1979
   23MOL    C34 7118   2.998   3.571   5.758 -0.4396 -0.3971  0.0416
   23MOL    C35 7119   2.902   3.511   5.642 -0.5163 -0.0820  0.4001
   23MOL    C36 7120   2.814   3.401   5.695 -0.4255 -0.2286  0.7556
   23MOL    C37 7121   2.730   3.426   5.803 -0.3258 -0.2881 -0.1487
   23MOL    C38 7122   2.635   3.330   5.845  0.2624 -0.6562  0.4733
   23MOL    C39 7123   2.640   3.202   5.795  0.1836  0.3570  0.5844
   23MOL    C40 7124   2.733   3.173   5.693  0.2156  0.0891 -0.1732
   23MOL    C41 7125   2.814   3.273   5.634 -0.3423 -0.6543  0.4133
   23MOL    H42 7126   3.062   3.641   5.703 -1.2440  0.5117  0.2462
   23MOL    H43 7127   2.938   3.628   5.828  2.1731  0.9947  1.2014
   23MOL    H44 7128   2.968   3.459   5.572  0.6448  3.0740 -0.9698
   23MOL    H45 7129   2.736   3.524   5.849 -0.0737 -0.2342 -0.2968
   23MOL    H46 7130   2.570   3.351   5.929  2.3487  0.4088  1.8635
   23MOL    H47 7131   2.584   3.121   5.839 -1.5159  1.0033 -0.3385
   23MOL    H48 7132   2.738   3.080   5.638  0.5066  0.6246 -1.0519
   23MOL    H49 7133   2.878   3.253   5.550 -0.0106  1.8905  0.0066
   23MOL    C50 7134   2.814   3.620   5.571 -0.4728  0.3600  0.0602
   23MOL    C51 7135   2.873   3.743   5.493  0.6199 -0.3114  0.1347
   23MOL    C52 7136   2.967   3.694   5.386  0.7531  0.5834  0.1529
   23MOL    C53 7137   3.096   3.748   5.363  0.3177  0.3571 -0.2159
   23MOL    C54 7138   3.176   3.702   5.248 -0.0648 -0.1488  0.5627
   23MOL    C55 7139   3.122   3.609   5.158 -0.1887  0.5841 -0.3542
   23MOL    C56 7140   2.992   3.562   5.184  0.1454 -0.4212 -0.0663
   23MOL    C57 7141   2.920   3.604   5.292  0.9123 -0.3125 -0.6594
   23MOL    H58 7142   2.754   3.662   5.651  0.5628 -1.3967  1.7965
   23MOL    H59 7143   2.737   3.568   5.513  0.0065 -1.1442  0.7413
   23MOL    H60 7144   2.933   3.801   5.564  0.1957  2.0030 -1.3470
   23MOL    H61 7145   3.139   3.813   5.438 -1.5215  1.5739 -0.1898
   23MOL    H62 7146   3.277   3.740   5.241  0.0266 -0.6256 -0.8666
   23MOL    H63 7147   3.167   3.571   5.067 -1.1158 -1.5919  0.0665
   23MOL    H64 7148   2.950   3.483   5.123  0.4713 -0.4276 -0.2862
   23MOL    H65 7149   2.819   3.566   5.295  1.2985 -1.3761 -0.8506
   23MOL    C66 7150   2.763   3.834   5.439  0.3705 -0.5366 -0.1404
   23MOL    C67 7151   2.794   3.965   5.363  0.5687 -0.0079 -0.1050
   23MOL    C68 7152   2.718   3.975   5.226  0.0630  0.4872 -0.2997
   23MOL    C69 7153   2.791   4.005   5.107 -0.6057  0.0348  0.5370
   23MOL    C70 7154   2.727   4.018   4.980 -0.2443  0.5110 -0.4770
   23MOL    C71 7155   2.587   3.993   4.974 -0.1549  0.5663 -0.3595
   23MOL    C72 7156   2.518   3.946   5.086 -0.0478  0.0023  0.3410
   23MOL    C73 7157   2.580   3.948   5.212  0.1402  0.2576  0.1993
   23MOL    H74 7158   2.682   3.843   5.511 -0.1513 -0.1458 -0.7687
   23MOL    H75 7159   2.701   3.777   5.369 -0.8780 -0.3069  0.7615
   23MOL    H76 7160   2.898   3.971   5.333  0.5073  0.1128 -0.2906
   23MOL    H77 7161   2.897   4.021   5.121 -0.6617  0.8847 -0.0045
   23MOL    H78 7162   2.780   4.045   4.890  0.5577  0.2308 -0.0951
   23MOL    H79 7163   2.533   4.015   4.884  2.0313  1.1549 -1.5749
   23MOL    H80 7164   2.411   3.929   5.088 -0.3105  1.6693  0.7174
   23MOL    H81 7165   2.520   3.931   5.300  1.1151  2.4909  1.3327
   23MOL    C82 7166   2.758   4.089   5.441 -0.3995  0.0465 -0.0287
   23MOL    C83 7167   2.811   4.095   5.587  0.3806 -0.1211 -0.1245
   23MOL    C84 7168   2.968   4.085   5.596 -0.0710  0.4942  0.4449
   23MOL    C85 7169   3.055   4.156   5.508 -0.6287  0.8339 -0.3781
   23MOL    C86 7170   3.192   4.125   5.507  0.6681  0.0637  0.4901
   23MOL    C87 7171   3.250   4.034   5.597 -0.6594  0.4207 -0.1205
   23MOL    C88 7172   3.165   3.980   5.696  0.8086 -0.0486 -0.0361
   23MOL    C89 7173   3.025   3.993   5.691 -0.1507 -0.0267 -0.4064
   23MOL    H90 7174   2.650   4.096   5.447 -0.7245 -1.8199 -2.7930
   23MOL    H91 7175   2.794   4.170   5.377 -2.0052 -0.4723 -1.6416
   23MOL    H92 7176   2.769   4.010   5.641  1.1428 -1.3290 -1.3726
   23MOL    H93 7177   3.011   4.226   5.439 -4.9577 -0.8349  0.5450
   23MOL    H94 7178   3.258   4.174   5.438 -0.5705 -0.5054 -1.1175
   23MOL    H95 7179   3.355   4.013   5.582 -0.6690  1.4527 -1.7170
   23MOL    H96 7180   3.213   3.925   5.775  1.8157 -1.9285 -1.9044
   23MOL    H97 7181   2.962   3.941   5.762  2.2513 -1.6993  0.5579
   23MOL    C98 7182   2.762   4.226   5.650  0.3151 -0.4616 -0.3820
   23MOL    C99 7183   2.606   4.237   5.679  0.0084  0.2440  0.4915
   23MOL   C100 7184   2.548   4.110   5.732  0.1326 -0.0223 -0.0796
   23MOL   C101 7185   2.451   4.041   5.657 -0.8334 -0.0419  0.3983
   23MOL   C102 7186   2.402   3.917   5.707 -0.1068  0.2550 -0.6938
   23MOL   C103 7187   2.439   3.873   5.836 -0.9376 -0.0036 -0.2203
   23MOL   C104 7188   2.539   3.947   5.902 -0.0742  0.0297  0.3511
   23MOL   C105 7189   2.590   4.063   5.856  0.3917 -0.2850  0.4134
   23MOL   H106 7190   2.796   4.305   5.582 -1.7462  1.2144  0.4861
   23MOL   H107 7191   2.815   4.235   5.744 -0.4342 -0.5497  0.0496
   23MOL   H108 7192   2.556   4.264   5.586  0.3555  1.6465  0.6965
   23MOL   H109 7193   2.420   4.074   5.559 -1.0264 -0.6710  0.2421
   23MOL   H110 7194   2.315   3.875   5.657 -1.1123  1.7257 -0.2090
   23MOL   H111 7195   2.378   3.798   5.884 -1.0284 -0.4885 -1.0880
   23MOL   H112 7196   2.583   3.908   5.993  3.0464  1.7384 -0.3452
   23MOL   H113 7197   2.662   4.109   5.921 -0.2616 -0.0667  0.9833
   23MOL   C114 7198   2.575   4.352   5.763  1.0389 -0.9510 -0.5099
   23MOL   C115 7199   2.418   4.371   5.791  0.0253  0.3890  0.4049
   23MOL   C116 7200   2.371   4.355   5.939  0.1051  0.0259 -0.6046
   23MOL   C117 7201   2.308   4.237   5.974 -0.3359  0.0366 -0.6851
   23MOL   C118 7202   2.287   4.203   6.110  0.3419  0.4341  0.1217
   23MOL   C119 7203   2.325   4.292   6.206 -0.1432  0.1808 -0.5983
   23MOL   C120 7204   2.385   4.410   6.173  1.3559 -0.0003  0.1036
   23MOL   C121 7205   2.417   4.442   6.039  0.3600 -0.5286  0.0524
   23MOL   H122 7206   2.629   4.437   5.721 -2.0064  0.7693 -1.1186
   23MOL   H123 7207   2.617   4.343   5.863 -1.4030  0.7272  0.7319
   23MOL   H124 7208   2.361   4.293   5.740 -2.0967  1.6714  0.7252
   23MOL   H125 7209   2.267   4.175   5.896  0.0041  2.4390 -2.8557
   23MOL   H126 7210   2.225   4.122   6.143 -0.6456  0.9552 -0.4428
   23MOL   H127 7211   2.293   4.269   6.306 -1.4793  0.2053 -1.0114
   23MOL   H128 7212   2.410   4.479   6.252 -2.0299  0.6898  0.6500
   23MOL   H129 7213   2.467   4.533   6.013  1.7738 -1.1715  0.4954
   23MOL   C130 7214   2.361   4.499   5.726  0.2747 -0.1224  0.8463
   23MOL   C131 7215   2.374   4.505   5.571  0.4452 -0.5085 -0.6112
   23MOL   C132 7216   2.272   4.417   5.501 -0.2393 -0.2337 -0.8148
   23MOL   C133 7217   2.316   4.319   5.405  0.6669 -0.4405  0.8750
   23MOL   C134 7218   2.222   4.244   5.334 -0.2481  0.0543 -0.2339
   23MOL   C135 7219   2.081   4.274   5.359  0.3585  0.6246  0.0932
   23MOL   C136 7220   2.037   4.364   5.458 -1.4292  0.5416 -0.1560
   23MOL   C137 7221   2.134   4.437   5.524 -0.0880 -0.1565  0.0812
   23MOL   H138 7222   2.416   4.582   5.770  2.0686 -0.2221 -1.1246
   23MOL   H139 7223   2.256   4.524   5.742  0.4891  1.8528 -0.6173
   23MOL   H140 7224   2.480   4.483   5.553  0.5604 -1.6307  1.3151
   23MOL   H141 7225   2.419   4.295   5.383  0.4560 -0.7259  0.1884
   23MOL   H142 7226   2.252   4.163   5.270  0.1973  0.5464 -0.6634
   23MOL   H143 7227   1.999   4.227   5.308  0.8960 -0.1577 -0.0585
   23MOL   H144 7228   1.933   4.378   5.486 -0.7627  3.6041  0.9173
   23MOL   H145 7229   2.109   4.510   5.599 -0.0659  0.4623 -0.5024
   23MOL   C146 7230   2.357   4.645   5.519  0.0739  0.3029 -0.0034
   23MOL   C147 7231   2.480   4.744   5.534  0.8655  1.0975 -0.0120
   23MOL   C148 7232   2.608   4.696   5.469  0.3313  0.4789 -0.8792
   23MOL   C149 7233   2.725   4.668   5.545  0.3138 -0.3370  0.0434
   23MOL   C150 7234   2.845   4.621   5.480 -0.4761  0.0783 -0.3104
   23MOL   C151 7235   2.854   4.608   5.338  0.1499 -0.1013 -0.4555
   23MOL   C152 7236   2.739   4.641   5.264 -0.3233  0.0958 -0.4556
   23MOL   C153 7237   2.619   4.675   5.328 -0.3119  0.0404  0.1225
   23MOL   H154 7238   2.268   4.687   5.567  1.0896  1.4174  0.9354
   23MOL   H155 7239   2.326   4.635   5.415  0.0316 -0.4178  0.0719
   23MOL   H156 7240   2.490   4.758   5.641 -0.4026 -0.1076  0.2738
   23MOL   H157 7241   2.725   4.686   5.652  3.0804  0.7038 -0.0893
   23MOL   H158 7242   2.939   4.615   5.532  0.3291 -0.3314 -1.8127
   23MOL   H159 7243   2.944   4.579   5.285  0.2920  2.3606 -1.6428
   23MOL   H160 7244   2.749   4.633   5.157  1.1768  2.2798 -0.5184
   23MOL   H161 7245   2.528   4.694   5.274 -2.1417  0.8381  3.3336
   23MOL   C162 7246   2.425   4.877   5.465 -0.1495 -0.4316 -0.3101
   23MOL   C163 7247   2.489   5.010   5.515 -0.2077  0.2734  0.7997
   23MOL   C164 7248   2.627   5.027   5.457  0.0793 -1.1870 -0.4105
   23MOL   C165 7249   2.648   5.056   5.319  0.2159 -0.0284  0.1955
   23MOL   C166 7250   2.785   5.072   5.271 -0.2509  0.7350  0.3218
   23MOL   C167 7251   2.890   5.031   5.359 -0.1954 -0.0684 -0.1486
   23MOL   C168 7252   2.868   5.001   5.496  0.2752  0.8866  0.8051
   23MOL   C169 7253   2.741   5.010   5.546  0.1296 -0.3483  0.5400
   23MOL   H170 7254   2.320   4.883   5.494  0.0592  2.2391  0.0312
   23MOL   H171 7255   2.422   4.872   5.356 -2.0424 -1.1189 -0.2632
   23MOL   H172 7256   2.501   5.021   5.622 -1.9683 -0.1264  1.0497
   23MOL   H173 7257   2.568   5.058   5.247 -0.0334 -0.3562  0.4582
   23MOL   H174 7258   2.806   5.085   5.166  0.2116 -1.4103  0.1283
   23MOL   H175 7259   2.990   5.045   5.322  0.6491 -1.9298  1.3431
   23MOL   H176 7260   2.950   4.986   5.565  1.4486 -0.5568 -0.8711
   23MOL   H177 7261   2.715   4.986   5.648 -0.2195 -2.2677  0.0278
   23MOL   C178 7262   2.399   5.126   5.469  0.8822 -0.4365  0.3338
   23MOL   C179 7263   2.257   5.143   5.524  0.0346  0.8038 -0.4407
   23MOL   C180 7264   2.243   5.126   5.674  0.2833 -0.4904  0.5328
   23MOL   C181 7265   2.284   5.230   5.761  0.4341 -0.2504  0.4746
   23MOL   C182 7266   2.272   5.213   5.898  0.8172  0.0518  0.5947
   23MOL   C183 7267   2.208   5.097   5.954  0.0286  0.2712 -0.1048
   23MOL   C184 7268   2.172   4.991   5.870 -0.3321  0.3122 -0.3469
   23MOL   C185 7269   2.193   5.006   5.729 -0.0481  0.1922 -0.5401
   23MOL   H186 7270   2.381   5.124   5.361 -0.5724 -1.4087  0.5836
   23MOL   H187 7271   2.463   5.214   5.474 -0.2047  0.3909  0.0780
   23MOL   H188 7272   2.189   5.071   5.477  0.0861  1.9977 -2.4161
   23MOL   H189 7273   2.316   5.322   5.716  0.1823 -1.2945 -1.9232
   23MOL   H190 7274   2.308   5.292   5.962  0.1735 -0.4559  1.5838
   23MOL   H191 7275   2.200   5.078   6.060 -2.5846  1.4623 -0.0408
   23MOL   H192 7276   2.132   4.896   5.902 -0.4499  0.0908 -1.1433
   23MOL   H193 7277   2.159   4.934   5.656  3.5689  0.4598 -2.5899
   23MOL   C194 7278   2.189   5.265   5.468 -0.6747 -0.4426  0.1110
   23MOL   C195 7279   2.039   5.284   5.507 -0.5194 -0.1098 -0.4467
   23MOL   C196 7280   2.000   5.432   5.514 -0.6646 -0.0627 -0.0836
   23MOL   C197 7281   2.004   5.515   5.401 -0.4867  0.1722 -0.2297
   23MOL   C198 7282   1.961   5.648   5.414 -0.0258  0.2736  0.5386
   23MOL   C199 7283   1.943   5.703   5.539 -0.3241  0.4454  0.0570
   23MOL   C200 7284   1.945   5.620   5.655  0.0755 -0.0676 -0.6915
   23MOL   C201 7285   1.972   5.485   5.642 -0.5580  0.1901 -0.2062
   23MOL   H202 7286   2.200   5.287   5.362  1.7563 -0.9757  0.2056
   23MOL   H203 7287   2.248   5.345   5.514  1.0306 -2.9898  2.4695
   23MOL   H204 7288   2.021   5.232   5.601 -1.7987  0.1964 -0.5159
   23MOL   H205 7289   2.035   5.482   5.303 -1.2887 -0.5401 -0.2530
   23MOL   H206 7290   1.959   5.705   5.322  0.1077  0.5701  0.7204
   23MOL   H207 7291   1.905   5.804   5.547 -1.2640 -0.0123  1.5107
   23MOL   H208 7292   1.911   5.664   5.747 -2.8503 -0.9824 -1.2521
   23MOL   H209 7293   1.982   5.417   5.724 -0.0276 -0.4356 -0.7858
   23MOL   C210 7294   1.949   5.195   5.415 -0.4098 -0.3321  1.0401
   23MOL   C211 7295   1.799   5.170   5.456  0.2592 -0.4445  0.0810
   23MOL   C212 7296   1.716   5.118   5.337  0.3004 -0.5982  0.4594
   23MOL   C213 7297   1.599   5.188   5.292  0.1976 -0.7069  0.4716
   23MOL   C214 7298   1.510   5.135   5.195  0.1413 -0.2338  0.0782
   23MOL   C215 7299   1.544   5.014   5.128  0.3699  0.4943 -0.1559
   23MOL   C216 7300   1.658   4.943   5.173  0.1119 -0.0489  0.5503
   23MOL   C217 7301   1.737   4.990   5.277 -0.0807 -0.0560  0.0547
   23MOL   H218 7302   1.988   5.093   5.406  0.4053  0.1021 -0.4050
   23MOL   H219 7303   1.962   5.227   5.312 -2.3277  0.3750  1.0013
   23MOL   H220 7304   1.762   5.271   5.479  0.8483  0.3462 -2.3445
   23MOL   H221 7305   1.567   5.282   5.335  0.5756 -0.7035  0.7456
   23MOL   H222 7306   1.417   5.178   5.162  0.3873 -0.1190 -0.4746
   23MOL   H223 7307   1.482   4.984   5.045 -0.4977  2.2187 -0.1460
   23MOL   H224 7308   1.692   4.853   5.123  1.1391  1.0138 -0.7073
   23MOL   H225 7309   1.828   4.941   5.309  0.4216  1.0084  0.2929
   23MOL   C226 7310   1.779   5.080   5.570 -0.0972  0.2003 -0.3478
   23MOL   C227 7311   1.741   5.144   5.715 -0.7792 -0.6177  0.3271
   23MOL   C228 7312   1.596   5.191   5.709 -0.7794 -0.8056 -0.3271
   23MOL   C229 7313   1.492   5.112   5.647  0.1890 -0.4901  0.5674
   23MOL   C230 7314   1.364   5.161   5.651 -0.5037  0.3437  0.5134
   23MOL   C231 7315   1.340   5.293   5.701  0.2790 -0.5166 -0.4932
   23MOL   C232 7316   1.437   5.368   5.770 -0.6944  0.1936  0.1330
   23MOL   C233 7317   1.566   5.311   5.774  0.0115 -0.4105 -0.7502
   23MOL   H234 7318   1.873   5.026   5.570 -0.5171 -0.5292 -0.3633
   23MOL   H235 7319   1.716   4.993   5.554 -0.0003  0.1389 -0.3911
   23MOL   H236 7320   1.807   5.226   5.741 -2.3665  0.3862  1.2676
   23MOL   H237 7321   1.508   5.018   5.595 -0.3443 -1.7706  2.6738
   23MOL   H238 7322   1.285   5.110   5.597 -1.4973  0.7695  1.5548
   23MOL   H239 7323   1.248   5.347   5.684  0.8990  0.6502 -0.1865
   23MOL   H240 7324   1.428   5.462   5.821 -0.5516  1.7364 -2.5666
   23MOL   H241 7325   1.645   5.363   5.826  0.2818 -1.8457  0.3268
   23MOL   C242 7326   1.775   5.048   5.827  0.1980  0.1715 -0.0311
   23MOL   C243 7327   1.738   5.094   5.975  0.5750  0.5342 -0.6132
   23MOL   C244 7328   1.743   4.981   6.074 -0.4404 -0.4531 -0.3942
   23MOL   C245 7329   1.868   4.924   6.114 -0.2077 -0.2033 -0.0137
   23MOL   C246 7330   1.872   4.820   6.212  0.1561  0.3660  0.2002
   23MOL   C247 7331   1.754   4.768   6.263  0.3980  0.9457 -0.4474
   23MOL   C248 7332   1.635   4.824   6.218  0.4205  1.1654  0.6067
   23MOL   C249 7333   1.628   4.925   6.121 -0.2924 -0.7985  0.2677
   23MOL   H250 7334   1.878   5.016   5.816 -0.2290 -1.1633 -0.1738
   23MOL   H251 7335   1.715   4.960   5.803 -0.6014  0.2790  1.4859
   23MOL   H252 7336   1.637   5.132   5.982  1.4574  2.9066 -0.3207
   23MOL   H253 7337   1.963   4.957   6.074  0.3917 -2.1927 -0.3133
   23MOL   H254 7338   1.972   4.791   6.241 -0.7282 -1.4731  1.5093
   23MOL   H255 7339   1.755   4.685   6.332  2.2570  1.4769  0.1992
   23MOL   H256 7340   1.542   4.781   6.253  0.8900  3.3482  4.9798
   23MOL   H257 7341   1.526   4.958   6.103 -0.3443 -0.4006  1.2716
   23MOL   C258 7342   1.832   5.204   6.025 -0.1441 -0.3260 -0.5245
   23MOL   C259 7343   1.818   5.262   6.164  0.0821 -0.7063 -1.5326
   23MOL   C260 7344   1.938   5.353   6.198  0.0175  0.7836 -0.3946
   23MOL   C261 7345   2.010   5.318   6.310 -0.1470 -0.2388 -0.4852
   23MOL   C262 7346   2.121   5.398   6.354  0.4426 -0.3615 -0.6470
   23MOL   C263 7347   2.153   5.514   6.279 -0.6718  0.3188 -0.9202
   23MOL   C264 7348   2.083   5.549   6.161  0.0933  0.2253 -0.0613
   23MOL   C265 7349   1.970   5.469   6.124  0.5047 -1.1184 -0.2495
   23MOL   H266 7350   1.827   5.288   5.956  0.8164 -0.6913 -1.0522
   23MOL   H267 7351   1.937   5.179   6.012  0.3716  1.7680 -0.5386
   23MOL   H268 7352   1.821   5.176   6.230  0.5562 -0.7228 -1.5701
   23MOL   H269 7353   1.973   5.228   6.357 -1.1498 -0.1351 -1.0600
   23MOL   H270 7354   2.164   5.366   6.448  1.9855 -0.4794 -1.3656
   23MOL   H271 7355   2.235   5.577   6.311 -1.3243  1.4228 -1.3583
   23MOL   H272 7356   2.118   5.638   6.111  1.9244 -1.4566 -1.8703
   23MOL   H273 7357   1.899   5.495   6.047 -0.7066 -0.7886  0.9601
   23MOL   C274 7358   1.685   5.335   6.185 -0.1873  0.0343 -0.4958
   23MOL   C275 7359   1.579   5.259   6.265 -0.2743  0.2713  0.1962
   23MOL   C276 7360   1.619   5.220   6.411  0.2977  0.3087 -0.1546
   23MOL   C277 7361   1.641   5.323   6.505 -0.3674 -0.0029 -0.4469
   23MOL   C278 7362   1.691   5.285   6.630 -0.2582  1.2611 -0.0537
   23MOL   C279 7363   1.712   5.151   6.668  0.7017 -1.5440  0.3854
   23MOL   C280 7364   1.693   5.054   6.573  0.1395 -0.4800  0.5952
   23MOL   C281 7365   1.646   5.086   6.443  0.2783 -0.1853 -0.5595
   23MOL   H282 7366   1.640   5.372   6.093  0.1253  1.6793 -0.0044
   23MOL   H283 7367   1.708   5.420   6.249 -1.4293  0.0510 -0.0493
   23MOL   H284 7368   1.562   5.165   6.212 -0.1601 -0.5393  1.5606
   23MOL   H285 7369   1.622   5.427   6.481  0.9465  0.2908 -0.2749
   23MOL   H286 7370   1.720   5.355   6.707  1.2292  0.3102  0.2804
   23MOL   H287 7371   1.749   5.123   6.766 -0.8015  1.0772  1.7777
   23MOL   H288 7372   1.711   4.952   6.606 -1.6708 -1.5087 -1.4257
   23MOL   H289 7373   1.626   5.004   6.375  0.2038 -1.8028  1.3512
   23MOL   C290 7374   1.452   5.343   6.265  0.2423  0.2641 -0.2062
   23MOL   C291 7375   1.358   5.319   6.143  0.2193 -0.1024 -0.3981
   23MOL   C292 7376   1.291   5.185   6.138  0.0668 -0.0913 -1.1157
   23MOL   C293 7377   1.207   5.136   6.243  0.6110 -0.2730  0.0748
   23MOL   C294 7378   1.135   5.015   6.238 -0.2147 -0.1195  0.2963
   23MOL   C295 7379   1.149   4.932   6.116 -0.0848  0.0370 -0.4254
   23MOL   C296 7380   1.242   4.972   6.017  0.4270 -0.4105  0.9195
   23MOL   C297 7381   1.297   5.103   6.023 -0.4376 -0.2905 -0.3634
   23MOL   H298 7382   1.463   5.450   6.280 -1.0482  0.2089  1.1911
   23MOL   H299 7383   1.396   5.306   6.350  0.5388  0.2931  0.0030
   23MOL   H300 7384   1.419   5.325   6.052  2.0126 -3.3827  0.4797
   23MOL   H301 7385   1.184   5.196   6.330 -1.1654 -1.2647  0.3119
   23MOL   H302 7386   1.077   4.979   6.321 -0.9509 -0.1118 -0.2101
   23MOL   H303 7387   1.086   4.845   6.103  0.2906 -0.2680 -0.2053
   23MOL   H304 7388   1.255   4.913   5.927 -1.1729 -2.6181  2.0833
   23MOL   H305 7389   1.362   5.127   5.941  0.2082  0.8358  0.4706
   23MOL   C306 7390   1.251   5.432   6.150 -1.0878  0.9910 -0.0459
   23MOL   C307 7391   1.165   5.421   6.025 -0.2400  0.0032  0.2199
   23MOL   C308 7392   1.091   5.544   5.985  0.0448  0.0482 -0.3427
   23MOL   C309 7393   1.062   5.565   5.849  0.0657 -0.5973  0.4318
   23MOL   C310 7394   0.991   5.682   5.814  0.2634  0.6623 -0.8733
   23MOL   C311 7395   0.965   5.784   5.911 -0.1031 -0.6631  0.1611
   23MOL   C312 7396   1.010   5.762   6.039 -0.6391 -0.4510  0.3394
   23MOL   C313 7397   1.065   5.641   6.086 -0.3077 -0.5060 -0.0233
   23MOL   H314 7398   1.307   5.525   6.160  2.1706 -0.9914  0.9497
   23MOL   H315 7399   1.193   5.415   6.241 -2.0129 -1.9974 -1.1224
   23MOL   H316 7400   1.095   5.340   6.045  0.3781 -1.2424 -2.4772
   23MOL   H317 7401   1.077   5.481   5.783 -1.3531 -1.4957  1.2040
   23MOL   H318 7402   0.974   5.706   5.710  1.4051  2.4026 -0.6788
   23MOL   H319 7403   0.905   5.870   5.886 -0.0421 -0.4063  0.9068
   23MOL   H320 7404   0.981   5.832   6.116  1.1697  1.0545 -0.2964
   23MOL   H321 7405   1.092   5.631   6.190  2.8488 -0.2462 -0.7455
   23MOL   H322 7406   1.224   5.400   5.936 -1.9023 -0.4322 -0.7950
   24MOL     C1 7407   4.354   6.164   1.334 -0.2674 -0.4260 -0.1218
   24MOL     C2 7408   4.274   6.290   1.367 -0.3809  0.9138  0.0500
   24MOL     C3 7409   4.129   6.269   1.355  0.0516  0.6425  0.5646
   24MOL     C4 7410   4.073   6.154   1.407  0.3056 -0.5243  0.3359
   24MOL     C5 7411   3.933   6.135   1.384 -1.0205  0.3972  0.2023
   24MOL     C6 7412   3.854   6.227   1.308  0.7937  0.1332 -0.3228
   24MOL     C7 7413   3.914   6.343   1.265 -0.1771 -0.2155  0.2186
   24MOL     C8 7414   4.056   6.362   1.285  0.5823  0.4686  0.2552
   24MOL     H9 7415   4.338   6.072   1.391 -1.4188 -0.2396 -0.1286
   24MOL    H10 7416   4.324   6.129   1.235 -2.7449 -1.0620  0.7976
   24MOL    H11 7417   4.310   6.368   1.300 -0.8759  0.0297 -1.2604
   24MOL    H12 7418   4.130   6.086   1.468 -0.2463 -0.2534  1.1708
   24MOL    H13 7419   3.893   6.042   1.421  0.7233  0.0746  1.3572
   24MOL    H14 7420   3.756   6.191   1.277 -0.2595  1.5422  1.2750
   24MOL    H15 7421   3.865   6.424   1.212  3.2076  0.7793 -1.5826
   24MOL    H16 7422   4.099   6.456   1.253  0.2046  1.0947  1.5446
   24MOL    H17 7423   4.461   6.181   1.325 -0.0914 -1.1712  0.5165
   24MOL    C18 7424   4.313   6.354   1.508  0.3811  0.4956 -0.8872
   24MOL    C19 7425   4.426   6.455   1.516  0.0472  0.3085  0.0997
   24MOL    C20 7426   4.441   6.510   1.657 -0.0484  0.0880  0.2342
   24MOL    C21 7427   4.463   6.425   1.765 -0.2703 -0.1213  0.1557
   24MOL    C22 7428   4.474   6.474   1.897  0.4395 -0.1456 -0.5510
   24MOL    C23 7429   4.468   6.613   1.921 -0.5094  0.6805 -0.5973
   24MOL    C24 7430   4.438   6.699   1.819 -0.1190  0.3944 -0.2280
   24MOL    C25 7431   4.415   6.644   1.686 -0.2379  0.0924 -0.1963
   24MOL    H26 7432   4.338   6.274   1.579 -3.3635  1.6875  1.9416
   24MOL    H27 7433   4.226   6.406   1.546 -0.0759 -0.1987 -0.9673
   24MOL    H28 7434   4.393   6.534   1.448 -1.1655 -0.1911  0.0883
   24MOL    H29 7435   4.462   6.319   1.747  0.8850  0.3519 -2.9887
   24MOL    H30 7436   4.500   6.411   1.980  0.4707  0.6085  0.0149
   24MOL    H31 7437   4.491   6.660   2.016 -3.7699  0.3874  0.3897
   24MOL    H32 7438   4.428   6.802   1.850 -1.0034  0.1884  0.1688
   24MOL    H33 7439   4.396   6.713   1.606 -1.7767 -1.3485 -1.1136
   24MOL    C34 7440   4.561   6.402   1.472  0.0530 -0.4035  0.2661
   24MOL    C35 7441   4.676   6.504   1.462  0.1176  0.4175  0.7507
   24MOL    C36 7442   4.642   6.642   1.407 -0.5205  0.2920 -0.8302
   24MOL    C37 7443   4.610   6.659   1.273 -0.1443  0.3958  0.0567
   24MOL    C38 7444   4.573   6.784   1.223 -0.3817 -0.3567 -0.0356
   24MOL    C39 7445   4.581   6.898   1.302  0.2712  0.5926 -0.4207
   24MOL    C40 7446   4.621   6.882   1.435 -0.4672 -0.0062 -0.1938
   24MOL    C41 7447   4.658   6.756   1.487  0.5360  0.2269 -0.1122
   24MOL    H42 7448   4.543   6.365   1.371  0.2955 -2.1871  0.8450
   24MOL    H43 7449   4.601   6.308   1.512 -0.8292  0.0141  2.1723
   24MOL    H44 7450   4.735   6.455   1.385 -1.1564  0.1312 -0.0711
   24MOL    H45 7451   4.594   6.571   1.212 -0.4499 -0.4934  1.3908
   24MOL    H46 7452   4.547   6.788   1.118  4.8361 -1.1345 -1.4932
   24MOL    H47 7453   4.552   6.993   1.260  1.1073  0.4057 -1.4397
   24MOL    H48 7454   4.628   6.974   1.491 -0.5657  0.3440 -0.7455
   24MOL    H49 7455   4.688   6.750   1.591  2.7350 -2.2599 -0.8391
   24MOL    C50 7456   4.781   6.502   1.577  0.3120  0.2672 -0.5770
   24MOL    C51 7457   4.851   6.369   1.611 -0.4337 -0.2277 -0.1067
   24MOL    C52 7458   4.917   6.304   1.489 -0.3685  0.6478 -0.1254
   24MOL    C53 7459   4.861   6.188   1.428  0.9529  0.9036  0.0711
   24MOL    C54 7460   4.931   6.115   1.331  0.0721 -0.9711  0.3310
   24MOL    C55 7461   5.060   6.162   1.289 -0.0941 -0.6019  0.1502
   24MOL    C56 7462   5.116   6.278   1.354 -0.0670 -0.0438 -0.1526
   24MOL    C57 7463   5.045   6.352   1.450  0.3287  0.5102 -0.3271
   24MOL    H58 7464   4.726   6.530   1.667 -3.2746 -1.1417 -2.2333
   24MOL    H59 7465   4.860   6.574   1.559  1.2434 -0.8260 -0.9187
   24MOL    H60 7466   4.773   6.303   1.649  1.3856 -0.5835  3.2663
   24MOL    H61 7467   4.770   6.144   1.465  1.7139 -1.2137 -0.5074
   24MOL    H62 7468   4.890   6.028   1.281 -1.3721 -0.3643  0.4138
   24MOL    H63 7469   5.111   6.110   1.209 -1.6095  0.0599 -1.2613
   24MOL    H64 7470   5.218   6.305   1.334  0.6004 -0.8560  1.9352
   24MOL    H65 7471   5.093   6.439   1.493  1.4334 -0.6243  0.7931
   24MOL    C66 7472   4.949   6.388   1.736  0.0142 -1.5260 -0.6132
   24MOL    C67 7473   4.967   6.265   1.826 -0.3417 -0.1311 -0.4485
   24MOL    C68 7474   4.850   6.240   1.914  0.1323 -1.3886  0.1558
   24MOL    C69 7475   4.842   6.308   2.040  0.5182  0.6235  0.1654
   24MOL    C70 7476   4.734   6.291   2.129  0.0588  0.0268 -0.3724
   24MOL    C71 7477   4.622   6.215   2.086 -0.2565 -0.3096 -0.6696
   24MOL    C72 7478   4.633   6.141   1.964  0.6210 -0.2946 -0.5176
   24MOL    C73 7479   4.741   6.154   1.880  0.5548  0.6462  0.2211
   24MOL    H74 7480   4.900   6.463   1.798  1.0108  0.1386 -1.7924
   24MOL    H75 7481   5.041   6.433   1.699 -0.4046  2.0879  2.5355
   24MOL    H76 7482   5.049   6.288   1.893 -0.4526 -0.0629 -0.3362
   24MOL    H77 7483   4.930   6.365   2.067  0.2115  1.6711 -1.0139
   24MOL    H78 7484   4.721   6.352   2.217  0.0109 -0.0491 -0.3260
   24MOL    H79 7485   4.541   6.184   2.150  1.2301 -2.5376  0.2001
   24MOL    H80 7486   4.561   6.066   1.933 -0.0165  0.5039 -0.9729
   24MOL    H81 7487   4.736   6.091   1.792 -1.7728  0.7130  0.2712
   24MOL    C82 7488   5.018   6.149   1.736  0.3922 -0.3165 -0.2204
   24MOL    C83 7489   5.091   6.028   1.806  0.3944 -0.0370 -1.1319
   24MOL    C84 7490   5.102   5.908   1.711  0.6583  0.6879 -0.3095
   24MOL    C85 7491   5.127   5.919   1.574 -0.2408  0.4949 -0.3674
   24MOL    C86 7492   5.142   5.812   1.490 -0.7414  0.4919  0.3095
   24MOL    C87 7493   5.126   5.680   1.542 -0.0642 -0.3638 -0.2253
   24MOL    C88 7494   5.118   5.659   1.682  0.3505  0.3246 -0.0153
   24MOL    C89 7495   5.110   5.774   1.766  0.2473 -0.0243 -0.0922
   24MOL    H90 7496   5.094   6.191   1.670 -0.2725  1.5120  0.1525
   24MOL    H91 7497   4.938   6.114   1.671  0.8858  1.8786 -2.0784
   24MOL    H92 7498   5.026   5.983   1.881  1.1044  1.0784  0.1883
   24MOL    H93 7499   5.152   6.016   1.533 -1.6854  0.8533 -0.4326
   24MOL    H94 7500   5.167   5.825   1.386  0.5395  0.8684  0.6574
   24MOL    H95 7501   5.125   5.596   1.474 -0.4795 -0.4858 -0.0692
   24MOL    H96 7502   5.117   5.556   1.715 -0.5465  0.1300 -0.6169
   24MOL    H97 7503   5.094   5.752   1.871 -2.9928  0.1250 -0.5177
   24MOL    C98 7504   5.224   6.061   1.873 -0.9575 -0.2734  0.0290
   24MOL    C99 7505   5.333   6.110   1.780 -0.7099  0.2825  0.5828
   24MOL   C100 7506   5.328   6.263   1.767  0.2438 -0.4668 -0.3217
   24MOL   C101 7507   5.343   6.346   1.880  0.8150  0.0454  0.5616
   24MOL   C102 7508   5.344   6.483   1.873  0.7748 -0.1600 -0.6907
   24MOL   C103 7509   5.332   6.543   1.746 -0.3493  0.6363 -0.1662
   24MOL   C104 7510   5.325   6.460   1.628 -0.4392  0.3101  0.0411
   24MOL   C105 7511   5.328   6.323   1.641 -0.2845  0.1017  0.0266
   24MOL   H106 7512   5.249   5.971   1.930 -1.5250 -0.6611 -0.3241
   24MOL   H107 7513   5.212   6.133   1.954 -0.5452 -0.0484 -0.1118
   24MOL   H108 7514   5.337   6.058   1.684  2.0316  0.7000  0.4494
   24MOL   H109 7515   5.351   6.291   1.973  2.3087 -1.6717 -0.5637
   24MOL   H110 7516   5.361   6.540   1.963 -2.2809  1.8275 -1.2918
   24MOL   H111 7517   5.335   6.651   1.747  0.8200  0.6048 -0.4947
   24MOL   H112 7518   5.316   6.496   1.527  2.2627  0.9657 -0.0076
   24MOL   H113 7519   5.321   6.253   1.559 -0.5158  2.3991 -1.9799
   24MOL   C114 7520   5.475   6.065   1.843  0.1228  0.5780  0.3800
   24MOL   C115 7521   5.511   5.912   1.819  0.4874 -0.6788  0.1412
   24MOL   C116 7522   5.538   5.876   1.675  0.0299  0.7692 -0.3562
   24MOL   C117 7523   5.647   5.934   1.617 -0.4180  0.3389  0.0512
   24MOL   C118 7524   5.685   5.886   1.487  0.7879 -0.7098  0.7159
   24MOL   C119 7525   5.610   5.790   1.418 -0.6013 -0.9672  0.2756
   24MOL   C120 7526   5.495   5.734   1.480 -0.4116 -0.3021  0.0358
   24MOL   C121 7527   5.463   5.776   1.610 -0.2366  0.5260 -0.1581
   24MOL   H122 7528   5.477   6.091   1.948 -0.5580  0.3377  0.4514
   24MOL   H123 7529   5.550   6.115   1.781 -0.2961  2.1151  1.0914
   24MOL   H124 7530   5.417   5.863   1.844  0.3531  0.8815  2.8800
   24MOL   H125 7531   5.706   6.015   1.658 -0.6285  1.4069 -1.6709
   24MOL   H126 7532   5.778   5.918   1.443 -0.0349 -1.3196 -1.5599
   24MOL   H127 7533   5.635   5.750   1.321 -1.2286  1.9036 -1.1151
   24MOL   H128 7534   5.436   5.667   1.420 -3.1000  2.7639 -0.8672
   24MOL   H129 7535   5.376   5.741   1.663  0.7235 -2.0086 -0.2088
   24MOL   C130 7536   5.615   5.865   1.921  0.0735 -0.3320 -0.2701
   24MOL   C131 7537   5.556   5.802   2.047 -0.3705 -0.1223 -0.1622
   24MOL   C132 7538   5.518   5.664   2.019  0.6046  0.6484  0.7188
   24MOL   C133 7539   5.612   5.563   2.009 -0.4304 -0.1844 -0.2288
   24MOL   C134 7540   5.584   5.429   1.972 -0.5257  0.1407  0.2939
   24MOL   C135 7541   5.451   5.403   1.927  0.8562 -1.0164  0.0986
   24MOL   C136 7542   5.355   5.503   1.935  0.0312  0.1223  0.0340
   24MOL   C137 7543   5.386   5.633   1.985 -0.3283 -0.0416  0.1662
   24MOL   H138 7544   5.685   5.947   1.938  0.1953 -0.5374  0.2408
   24MOL   H139 7545   5.675   5.792   1.868 -1.4455 -1.6693 -0.1939
   24MOL   H140 7546   5.468   5.860   2.078 -0.2698 -0.1069  0.0879
   24MOL   H141 7547   5.716   5.582   2.032 -1.0070  0.0888  2.3022
   24MOL   H142 7548   5.658   5.351   1.965 -0.3835  0.3669 -0.7102
   24MOL   H143 7549   5.428   5.309   1.880  0.6284  0.2185 -2.3370
   24MOL   H144 7550   5.256   5.472   1.905 -0.4961 -0.0541  1.9094
   24MOL   H145 7551   5.304   5.703   1.988 -0.4895 -0.2441  0.5326
   24MOL   C146 7552   5.649   5.833   2.174  0.2451 -0.0398  0.1290
   24MOL   C147 7553   5.643   5.981   2.215  0.4542 -0.0924 -0.4572
   24MOL   C148 7554   5.513   6.010   2.282  0.8199  0.1458  0.0760
   24MOL   C149 7555   5.474   5.939   2.399 -0.8890  0.0749 -0.2162
   24MOL   C150 7556   5.354   5.974   2.473 -0.7805  0.5684  0.1572
   24MOL   C151 7557   5.278   6.084   2.422  0.4219 -0.2678  0.6346
   24MOL   C152 7558   5.310   6.141   2.295 -0.0344  0.0102  0.1861
   24MOL   C153 7559   5.426   6.105   2.226  0.1114 -0.3810  0.0357
   24MOL   H154 7560   5.751   5.801   2.154  0.0528 -0.1136 -0.7591
   24MOL   H155 7561   5.614   5.771   2.257  1.4619  0.7456  1.2350
   24MOL   H156 7562   5.653   6.047   2.129 -2.7641  0.2365 -0.6367
   24MOL   H157 7563   5.532   5.853   2.430 -3.0061 -0.0389  3.6483
   24MOL   H158 7564   5.324   5.912   2.556  1.1798  0.4525  0.7957
   24MOL   H159 7565   5.192   6.115   2.480  0.6082  0.7674  0.3604
   24MOL   H160 7566   5.249   6.225   2.266 -1.1474 -0.3276  1.4782
   24MOL   H161 7567   5.444   6.168   2.140 -2.4224 -0.5914 -0.6759
   24MOL   C162 7568   5.751   6.021   2.307 -0.6809  0.2112 -0.8241
   24MOL   C163 7569   5.897   6.043   2.249  0.2727 -0.8710 -0.0570
   24MOL   C164 7570   5.897   6.141   2.124  0.8699  0.0047  0.4922
   24MOL   C165 7571   5.940   6.082   1.999 -0.1110  0.1316  0.0324
   24MOL   C166 7572   5.925   6.159   1.882  0.0489  0.8217  0.4333
   24MOL   C167 7573   5.853   6.279   1.884 -0.3362  0.7131 -0.3270
   24MOL   C168 7574   5.815   6.339   2.009  0.6676 -0.0967 -0.4466
   24MOL   C169 7575   5.842   6.266   2.129  0.7101 -0.9921  0.0456
   24MOL   H170 7576   5.749   5.957   2.395  2.4034 -0.3500 -1.1206
   24MOL   H171 7577   5.732   6.119   2.351 -2.9954  0.0453 -1.3851
   24MOL   H172 7578   5.928   5.949   2.205  1.5768 -0.2627 -0.4479
   24MOL   H173 7579   5.970   5.978   1.996  1.3656  0.5045  1.4157
   24MOL   H174 7580   5.940   6.114   1.784 -1.2369  2.1627 -0.4067
   24MOL   H175 7581   5.826   6.332   1.793 -3.1419  2.2099  1.3256
   24MOL   H176 7582   5.773   6.438   2.007 -0.6544 -0.5400  2.1543
   24MOL   H177 7583   5.797   6.301   2.221  0.2340  0.3875 -0.6935
   24MOL   C178 7584   5.991   6.078   2.356  0.1478  0.5543 -0.4873
   24MOL   C179 7585   6.032   5.979   2.466  0.4624 -0.5723 -0.5158
   24MOL   C180 7586   6.012   5.836   2.422 -0.0012  0.4315  0.4437
   24MOL   C181 7587   6.093   5.780   2.318  0.0581 -0.4146 -0.1311
   24MOL   C182 7588   6.086   5.645   2.283 -0.2371 -0.5141  0.8031
   24MOL   C183 7589   6.009   5.557   2.366  0.0200  0.0287  0.3669
   24MOL   C184 7590   5.911   5.620   2.453 -0.0678  0.3252 -0.7631
   24MOL   C185 7591   5.911   5.759   2.482  0.1946 -0.7198  0.0112
   24MOL   H186 7592   5.950   6.171   2.396 -1.5921 -0.6792  0.6487
   24MOL   H187 7593   6.091   6.097   2.315  0.7910 -1.3304  0.1900
   24MOL   H188 7594   5.966   5.986   2.553  1.6125 -0.4365  0.3593
   24MOL   H189 7595   6.173   5.839   2.276 -0.4090  0.0474 -0.3895
   24MOL   H190 7596   6.147   5.604   2.204 -2.3290  0.5991 -1.4371
   24MOL   H191 7597   6.005   5.451   2.349  1.2420  0.1560 -0.7877
   24MOL   H192 7598   5.840   5.552   2.498 -1.0454  2.1989  0.5878
   24MOL   H193 7599   5.841   5.802   2.551  0.0005 -0.1207 -0.5652
   24MOL   C194 7600   6.168   6.009   2.533 -0.0080 -0.6771 -0.8634
   24MOL   C195 7601   6.194   6.153   2.589  0.2657 -0.3118 -0.1385
   24MOL   C196 7602   6.100   6.178   2.706  0.2075 -0.7475 -0.7163
   24MOL   C197 7603   6.133   6.117   2.832 -0.0201 -0.1392 -0.1150
   24MOL   C198 7604   6.046   6.146   2.941 -0.0648 -0.7074 -0.1411
   24MOL   C199 7605   5.939   6.236   2.927 -0.0972 -0.8330  1.1510
   24MOL   C200 7606   5.905   6.290   2.803 -0.0841  0.3948 -0.2043
   24MOL   C201 7607   5.986   6.260   2.693 -0.4140 -0.2814  0.5684
   24MOL   H202 7608   6.234   5.996   2.447  1.0864  0.5528 -0.2265
   24MOL   H203 7609   6.203   5.932   2.602  1.0594 -0.0673 -0.7023
   24MOL   H204 7610   6.166   6.215   2.504 -0.9600  1.6381  1.6553
   24MOL   H205 7611   6.226   6.063   2.839  1.1027  1.8234  0.4750
   24MOL   H206 7612   6.069   6.108   3.039  0.4030  1.9722  0.8270
   24MOL   H207 7613   5.873   6.250   3.012 -1.4774  0.9489 -0.1750
   24MOL   H208 7614   5.818   6.354   2.792 -0.2407  0.0654 -0.9842
   24MOL   H209 7615   5.960   6.313   2.603 -1.3936  0.4133  1.2487
   24MOL   C210 7616   6.340   6.193   2.630 -0.4004  1.0741  0.2867
   24MOL   C211 7617   6.441   6.176   2.512 -0.6386  0.2838  0.5017
   24MOL   C212 7618   6.396   6.235   2.381 -0.3469  0.3158 -0.1460
   24MOL   C213 7619   6.388   6.157   2.263 -0.1112 -0.3577  0.3265
   24MOL   C214 7620   6.323   6.207   2.148 -0.1641  1.0616 -0.0274
   24MOL   C215 7621   6.272   6.338   2.152 -0.2286 -0.2247 -0.6159
   24MOL   C216 7622   6.284   6.420   2.262 -0.4267  0.1836 -0.3461
   24MOL   C217 7623   6.347   6.371   2.379  0.3221 -0.4657  0.2952
   24MOL   H218 7624   6.370   6.131   2.714 -2.7372  0.1973  0.5134
   24MOL   H219 7625   6.333   6.298   2.658  0.5202  0.6189  2.3197
   24MOL   H220 7626   6.458   6.069   2.496 -0.5906  0.5896 -1.6682
   24MOL   H221 7627   6.440   6.063   2.267  2.6638  1.0353 -0.9541
   24MOL   H222 7628   6.309   6.135   2.068  1.1416 -1.6914  2.1401
   24MOL   H223 7629   6.222   6.367   2.061 -0.0989  2.3039  0.0812
   24MOL   H224 7630   6.256   6.524   2.258  3.2299  1.2851  0.7786
   24MOL   H225 7631   6.358   6.432   2.467 -2.4626 -0.4730  0.6872
   24MOL   C226 7632   6.583   6.232   2.534  0.1445  0.2343  1.1033
   24MOL   C227 7633   6.674   6.148   2.630 -0.0215 -0.0403 -0.1105
   24MOL   C228 7634   6.726   6.019   2.561 -0.4722 -0.5172 -0.4656
   24MOL   C229 7635   6.796   6.031   2.442  0.1458 -0.0974 -0.0852
   24MOL   C230 7636   6.852   5.913   2.382  0.7629  0.1775 -0.2424
   24MOL   C231 7637   6.825   5.785   2.440 -0.1272 -0.6259 -0.4029
   24MOL   C232 7638   6.754   5.778   2.558  0.1566  0.2649 -0.3307
   24MOL   C233 7639   6.702   5.893   2.616  0.4218 -0.6462 -0.2004
   24MOL   H234 7640   6.585   6.337   2.562  0.5737  1.0417 -1.7321
   24MOL   H235 7641   6.642   6.243   2.443 -1.2461 -0.3978  0.0981
   24MOL   H236 7642   6.617   6.122   2.719  0.1540 -0.1610 -0.0315
   24MOL   H237 7643   6.823   6.130   2.407  0.5016  0.0619  0.6276
   24MOL   H238 7644   6.905   5.930   2.289  0.2485 -1.2816 -0.8274
   24MOL   H239 7645   6.873   5.698   2.396 -0.2952  0.3758 -2.6200
   24MOL   H240 7646   6.733   5.680   2.598  0.8444  1.0414  1.9959
   24MOL   H241 7647   6.647   5.882   2.708 -0.3312  0.4192 -0.5278
   24MOL   C242 7648   6.796   6.228   2.687 -0.2538  0.9414  0.7137
   24MOL   C243 7649   6.764   6.340   2.785 -0.2189 -0.5689  0.0649
   24MOL   C244 7650   6.674   6.300   2.896  0.1848 -0.1719  0.0744
   24MOL   C245 7651   6.703   6.186   2.970 -0.0555  0.0627  0.2309
   24MOL   C246 7652   6.608   6.142   3.076 -0.2706  0.4416 -0.6327
   24MOL   C247 7653   6.487   6.210   3.097  0.0720 -0.5548 -0.1489
   24MOL   C248 7654   6.457   6.321   3.014 -0.0296 -0.0019  0.3904
   24MOL   C249 7655   6.555   6.369   2.922 -0.2703  0.2221  0.9538
   24MOL   H250 7656   6.869   6.252   2.609  1.8814 -2.8369  1.4404
   24MOL   H251 7657   6.859   6.156   2.738  0.5101  0.8261 -0.3696
   24MOL   H252 7658   6.725   6.421   2.724 -2.4374 -2.3401 -0.9346
   24MOL   H253 7659   6.800   6.138   2.971  0.0194  0.2471  1.7780
   24MOL   H254 7660   6.643   6.066   3.145 -1.0858  1.5968  1.0773
   24MOL   H255 7661   6.423   6.186   3.180 -0.7280 -0.4649 -0.7374
   24MOL   H256 7662   6.368   6.379   3.036  0.1140 -0.0724  1.1715
   24MOL   H257 7663   6.548   6.465   2.872  0.3950 -0.7211 -0.9624
   24MOL   C258 7664   6.895   6.398   2.841  0.2580 -0.5912 -0.5185
   24MOL   C259 7665   6.973   6.503   2.757  0.2360 -0.1996  0.3088
   24MOL   C260 7666   6.910   6.635   2.741  1.1546  0.3314  0.5260
   24MOL   C261 7667   6.894   6.697   2.610 -0.1340  0.8878  0.1296
   24MOL   C262 7668   6.821   6.813   2.595 -0.6424 -0.2061  0.2982
   24MOL   C263 7669   6.778   6.884   2.706  0.2304  0.9154  0.0660
   24MOL   C264 7670   6.788   6.827   2.834  0.1970  0.0057 -0.6334
   24MOL   C265 7671   6.858   6.705   2.852  0.8086 -1.0556  0.4793
   24MOL   H266 7672   6.960   6.312   2.852  1.0294 -0.1152 -1.3028
   24MOL   H267 7673   6.871   6.439   2.939  0.8047 -1.9880  0.2104
   24MOL   H268 7674   6.987   6.455   2.660 -0.0843 -0.2596  0.2924
   24MOL   H269 7675   6.950   6.653   2.529 -1.1996 -1.2522  0.5340
   24MOL   H270 7676   6.815   6.863   2.500  0.1805 -1.5623 -0.4893
   24MOL   H271 7677   6.711   6.968   2.693 -0.6253  0.1168 -0.7153
   24MOL   H272 7678   6.743   6.889   2.910  1.3687 -0.6281  0.5913
   24MOL   H273 7679   6.872   6.663   2.950 -3.0063 -2.8700  0.3277
   24MOL   C274 7680   7.121   6.523   2.794  0.1735  0.4335 -0.4186
   24MOL   C275 7681   7.215   6.401   2.764  0.0767  0.0893 -0.0273
   24MOL   C276 7682   7.220   6.375   2.614  0.6002 -0.4311 -0.4454
   24MOL   C277 7683   7.275   6.477   2.535 -0.7577  0.2429  0.5364
   24MOL   C278 7684   7.283   6.462   2.398  0.0540  0.1079 -0.6210
   24MOL   C279 7685   7.219   6.350   2.335  0.0393  0.6528 -0.3223
   24MOL   C280 7686   7.159   6.251   2.417  0.5230  0.5577 -0.0010
   24MOL   C281 7687   7.161   6.265   2.558 -0.3080  0.4851  0.4031
   24MOL   H282 7688   7.132   6.554   2.899 -1.2774 -1.5840  0.3568
   24MOL   H283 7689   7.146   6.608   2.730 -1.0144  2.5952  1.8601
   24MOL   H284 7690   7.163   6.315   2.805  1.4686 -2.1206 -2.7490
   24MOL   H285 7691   7.326   6.556   2.587  0.1194  1.3187 -1.8969
   24MOL   H286 7692   7.329   6.539   2.338 -0.5639  0.6613 -0.3993
   24MOL   H287 7693   7.238   6.332   2.230 -0.5642  1.6687 -0.6078
   24MOL   H288 7694   7.122   6.158   2.375  1.3639  0.5942 -0.8550
   24MOL   H289 7695   7.121   6.190   2.625  2.3762 -0.5938  0.8796
   24MOL   C290 7696   7.345   6.400   2.835 -0.3953 -0.1293  0.4046
   24MOL   C291 7697   7.345   6.346   2.980  0.1805 -0.3425  0.5394
   24MOL   C292 7698   7.488   6.294   3.018 -0.6454 -0.4581 -0.0278
   24MOL   C293 7699   7.594   6.381   3.007 -0.0508 -0.2874 -0.0848
   24MOL   C294 7700   7.721   6.343   3.038  0.5774 -0.3501 -0.0393
   24MOL   C295 7701   7.745   6.228   3.105  0.6496  0.0531 -0.2841
   24MOL   C296 7702   7.638   6.134   3.120  0.1561  0.2972 -0.3746
   24MOL   C297 7703   7.508   6.169   3.072 -0.8145  0.8800 -0.0253
   24MOL   H298 7704   7.405   6.490   2.818 -3.1100  1.5951 -0.4403
   24MOL   H299 7705   7.408   6.332   2.778  1.5593  2.6330 -0.8200
   24MOL   H300 7706   7.296   6.250   2.964 -2.6398  1.5814 -3.0624
   24MOL   H301 7707   7.585   6.465   2.940 -3.0354  0.4645  1.1942
   24MOL   H302 7708   7.807   6.409   3.030  1.0298 -0.8242  0.7876
   24MOL   H303 7709   7.848   6.203   3.127  0.0076 -1.0382  1.5160
   24MOL   H304 7710   7.667   6.041   3.165 -1.6833 -2.0005 -3.7259
   24MOL   H305 7711   7.419   6.107   3.078  0.7230 -1.3288  0.5085
   24MOL   C306 7712   7.277   6.440   3.085 -0.5402  0.1020 -0.2254
   24MOL   C307 7713   7.286   6.395   3.237  0.0441  0.0994 -0.1143
   24MOL   C308 7714   7.199   6.270   3.277 -0.1783 -0.0156  0.3980
   24MOL   C309 7715   7.059   6.280   3.270  0.5857  0.0763 -0.1579
   24MOL   C310 7716   6.984   6.172   3.326  0.2202  0.7430  0.5718
   24MOL   C311 7717   7.049   6.053   3.374 -0.2989 -0.4563 -0.2922
   24MOL   C312 7718   7.191   6.046   3.378  0.3959 -0.3600  0.4250
   24MOL   C313 7719   7.266   6.151   3.316  0.3052 -0.1810 -0.3483
   24MOL   H314 7720   7.170   6.448   3.065 -0.1798  2.3015 -1.4328
   24MOL   H315 7721   7.319   6.541   3.087  3.6917 -1.5664  0.3845
   24MOL   H316 7722   7.250   6.477   3.299  0.5155  0.9004 -0.8750
   24MOL   H317 7723   7.003   6.365   3.233 -1.4495 -1.4519 -0.6570
   24MOL   H318 7724   6.876   6.175   3.330  0.1504  1.2727 -1.5767
   24MOL   H319 7725   6.997   5.979   3.433  1.4371 -1.6614 -0.2490
   24MOL   H320 7726   7.239   5.958   3.419  0.4278 -0.8778 -0.7033
   24MOL   H321 7727   7.373   6.131   3.315  0.4209  0.4263  0.0046
   24MOL   H322 7728   7.389   6.387   3.272 -1.0569 -1.2186  2.9547
   25MOL     C1 7729   3.513   5.787   2.744 -0.0415 -0.5520  0.9209
   25MOL     C2 7730   3.545   5.688   2.633  0.3727 -0.4646  0.2265
   25MOL     C3 7731   3.681   5.717   2.564  0.4868  0.0606 -0.1014
   25MOL     C4 7732   3.714   5.641   2.449  0.6805 -0.2286 -1.4329
   25MOL     C5 7733   3.838   5.657   2.384  0.5057  0.3220  0.2067
   25MOL     C6 7734   3.923   5.756   2.422 -0.1167  0.4781 -0.3335
   25MOL     C7 7735   3.898   5.831   2.545  0.3891  0.4478 -0.5134
   25MOL     C8 7736   3.780   5.812   2.617  0.2145 -0.2614 -0.6893
   25MOL     H9 7737   3.413   5.753   2.772 -0.2542  0.2451  1.1485
   25MOL    H10 7738   3.577   5.784   2.832  0.1145 -0.4635  0.8105
   25MOL    H11 7739   3.468   5.706   2.558  2.0280  0.7672 -1.2172
   25MOL    H12 7740   3.639   5.577   2.405 -0.8924  1.3091 -1.0062
   25MOL    H13 7741   3.864   5.601   2.295  0.1941  0.5724 -0.0389
   25MOL    H14 7742   4.016   5.772   2.368  0.6225  0.3386  0.8814
   25MOL    H15 7743   3.969   5.907   2.575  0.7933  0.8958 -2.5457
   25MOL    H16 7744   3.767   5.871   2.707 -0.7842 -1.6030  0.0644
   25MOL    H17 7745   3.504   5.891   2.710  2.2789  0.3509  2.9579
   25MOL    C18 7746   3.529   5.541   2.671  0.3513  0.1553 -0.0138
   25MOL    C19 7747   3.386   5.501   2.721  0.0644  0.3737  0.6773
   25MOL    C20 7748   3.288   5.497   2.604 -0.4021  0.3655 -0.4934
   25MOL    C21 7749   3.224   5.618   2.565 -0.5453  0.4144  0.4248
   25MOL    C22 7750   3.138   5.615   2.452 -0.3694  0.1693 -0.4636
   25MOL    C23 7751   3.117   5.497   2.374 -0.6954  0.3633 -0.2548
   25MOL    C24 7752   3.176   5.378   2.420  0.1423  0.0219  0.0828
   25MOL    C25 7753   3.262   5.376   2.533 -0.0446 -0.0091 -0.4800
   25MOL    H26 7754   3.601   5.534   2.752 -0.6203  0.2120  0.8626
   25MOL    H27 7755   3.576   5.471   2.602 -1.1280 -1.8430  0.9183
   25MOL    H28 7756   3.345   5.572   2.793 -0.5445  1.0836 -0.3496
   25MOL    H29 7757   3.239   5.697   2.637 -0.8814  1.0023 -0.1321
   25MOL    H30 7758   3.079   5.698   2.416 -1.3222 -0.1133  0.3999
   25MOL    H31 7759   3.042   5.494   2.297 -0.0496 -0.5828 -0.8474
   25MOL    H32 7760   3.156   5.289   2.361 -1.0472 -0.2979  0.9268
   25MOL    H33 7761   3.294   5.275   2.557 -0.4525 -0.5925 -2.3159
   25MOL    C34 7762   3.381   5.364   2.788 -0.3204 -0.4465  0.2974
   25MOL    C35 7763   3.463   5.366   2.920  1.0197 -0.4807  0.3678
   25MOL    C36 7764   3.420   5.474   3.022  0.5852 -0.4856 -0.0280
   25MOL    C37 7765   3.510   5.587   3.038 -0.2081 -0.2576 -0.6668
   25MOL    C38 7766   3.473   5.692   3.125  0.0290 -0.1737  0.6412
   25MOL    C39 7767   3.350   5.687   3.198  0.1926  0.0581  0.3327
   25MOL    C40 7768   3.263   5.578   3.175  0.5901  0.4035  0.6146
   25MOL    C41 7769   3.298   5.471   3.088 -0.2247 -0.0108  0.1470
   25MOL    H42 7770   3.429   5.292   2.722  1.0099  1.0619 -0.4283
   25MOL    H43 7771   3.279   5.326   2.794 -0.1314 -0.7008  2.2234
   25MOL    H44 7772   3.566   5.391   2.892  1.3410  1.5581  3.1879
   25MOL    H45 7773   3.612   5.584   3.001  0.6052 -0.5516  1.4965
   25MOL    H46 7774   3.534   5.780   3.132  0.4824 -0.4415  0.0765
   25MOL    H47 7775   3.324   5.765   3.268  0.3383  0.4150 -0.0063
   25MOL    H48 7776   3.167   5.584   3.225 -1.1091 -0.2375 -2.4768
   25MOL    H49 7777   3.224   5.395   3.067 -0.3431  0.0987  0.1711
   25MOL    C50 7778   3.491   5.227   2.988 -0.3511  0.6789  0.0517
   25MOL    C51 7779   3.582   5.126   2.918  0.6386 -0.4302 -0.0221
   25MOL    C52 7780   3.712   5.186   2.869 -0.3349 -0.1956 -0.3113
   25MOL    C53 7781   3.818   5.229   2.951 -0.1412  0.0664 -0.3085
   25MOL    C54 7782   3.933   5.282   2.901  0.2584  0.3596 -0.5422
   25MOL    C55 7783   3.952   5.280   2.762  0.0639 -0.4542 -0.0349
   25MOL    C56 7784   3.840   5.255   2.680 -0.8960 -0.2364  0.5720
   25MOL    C57 7785   3.721   5.209   2.732  0.3868  0.3382  0.3698
   25MOL    H58 7786   3.398   5.185   3.027  0.1395 -1.9247 -1.4788
   25MOL    H59 7787   3.557   5.255   3.070  1.9106 -0.3040 -1.3772
   25MOL    H60 7788   3.534   5.081   2.831 -1.4494 -0.8658  1.3160
   25MOL    H61 7789   3.819   5.213   3.057  3.1275 -0.2797 -0.3265
   25MOL    H62 7790   4.017   5.316   2.960  0.2653 -1.8302  0.7514
   25MOL    H63 7791   4.043   5.321   2.721  0.5529  1.4702  2.8970
   25MOL    H64 7792   3.858   5.266   2.574  2.2977 -0.0576  1.0821
   25MOL    H65 7793   3.646   5.181   2.659  0.3406  0.6191  0.3058
   25MOL    C66 7794   3.614   5.013   3.011  0.4954 -0.1812 -0.0466
   25MOL    C67 7795   3.508   4.904   3.025  0.7061  0.2622  0.0773
   25MOL    C68 7796   3.499   4.818   2.893  0.0406  0.0113 -0.0642
   25MOL    C69 7797   3.377   4.776   2.837 -0.1962 -0.0085  0.1318
   25MOL    C70 7798   3.378   4.688   2.727 -0.5395  0.5579 -0.0647
   25MOL    C71 7799   3.503   4.645   2.673  0.3499  0.3575  0.6680
   25MOL    C72 7800   3.622   4.672   2.737  0.1096 -0.1646  0.5365
   25MOL    C73 7801   3.620   4.758   2.849  0.0975 -0.9845  0.3363
   25MOL    H74 7802   3.639   5.059   3.107  0.1168 -1.9229  0.9103
   25MOL    H75 7803   3.707   4.966   2.980 -0.0812 -0.0635 -2.0187
   25MOL    H76 7804   3.405   4.939   3.032  0.1877 -1.3181  0.6858
   25MOL    H77 7805   3.286   4.805   2.887  0.2226  1.0975  0.2682
   25MOL    H78 7806   3.285   4.661   2.678 -0.9748  0.1608  0.9732
   25MOL    H79 7807   3.494   4.584   2.585  0.7390  1.1943  0.0471
   25MOL    H80 7808   3.715   4.626   2.706 -0.2891  1.4588 -3.2565
   25MOL    H81 7809   3.718   4.784   2.886 -0.4445  0.1560  0.9899
   25MOL    C82 7810   3.528   4.799   3.138 -0.2414  0.7870  0.3980
   25MOL    C83 7811   3.504   4.850   3.279 -0.7811  0.4086 -0.1337
   25MOL    C84 7812   3.374   4.921   3.299  0.1406  0.3205  0.4165
   25MOL    C85 7813   3.252   4.853   3.275  0.1836 -0.2754 -0.2457
   25MOL    C86 7814   3.134   4.921   3.286 -0.1409 -0.2101  0.0049
   25MOL    C87 7815   3.136   5.055   3.325  0.2485 -0.6260 -0.4129
   25MOL    C88 7816   3.255   5.130   3.348  0.4080 -0.0606  0.0089
   25MOL    C89 7817   3.376   5.058   3.341  0.6637 -0.0842 -0.4080
   25MOL    H90 7818   3.629   4.759   3.135 -1.2876 -1.8944 -1.8107
   25MOL    H91 7819   3.451   4.724   3.118 -0.2886  0.8083  0.5006
   25MOL    H92 7820   3.576   4.927   3.306 -1.8963  0.4614  2.8757
   25MOL    H93 7821   3.250   4.746   3.257  1.1219 -0.1838 -0.9715
   25MOL    H94 7822   3.044   4.865   3.269  0.0896 -0.6173  0.1185
   25MOL    H95 7823   3.040   5.104   3.332  0.9506  0.5754  1.0745
   25MOL    H96 7824   3.272   5.232   3.378 -1.6995 -0.1607  1.5983
   25MOL    H97 7825   3.467   5.113   3.360 -0.5404  1.6968  0.3009
   25MOL    C98 7826   3.519   4.739   3.376 -0.0198 -0.0981  0.5452
   25MOL    C99 7827   3.653   4.674   3.394 -0.6837 -0.0041 -0.2344
   25MOL   C100 7828   3.771   4.769   3.406  0.2429  0.3619 -0.0043
   25MOL   C101 7829   3.881   4.765   3.321  0.3683  0.0758  0.3908
   25MOL   C102 7830   3.984   4.855   3.335  0.3451 -0.1736  0.0842
   25MOL   C103 7831   3.981   4.953   3.437  0.5381  0.3412  0.3093
   25MOL   C104 7832   3.867   4.965   3.522  0.3483  0.3052  0.6588
   25MOL   C105 7833   3.763   4.869   3.506 -0.1049  0.5087 -0.1200
   25MOL   H106 7834   3.447   4.658   3.372 -0.7922  0.6260 -0.6469
   25MOL   H107 7835   3.496   4.782   3.474 -1.3026  1.4557 -0.4303
   25MOL   H108 7836   3.660   4.602   3.312  0.5577 -0.8649  0.5990
   25MOL   H109 7837   3.873   4.698   3.237 -0.0306 -1.0270  1.2909
   25MOL   H110 7838   4.069   4.850   3.269  0.9153  0.9888  0.7205
   25MOL   H111 7839   4.064   5.022   3.441  1.0724 -0.1213 -2.0021
   25MOL   H112 7840   3.864   5.031   3.608  4.1852  0.7425  0.5179
   25MOL   H113 7841   3.686   4.870   3.582  1.3891  0.5281  1.4210
   25MOL   C114 7842   3.650   4.576   3.515 -0.1191 -0.4822  0.1122
   25MOL   C115 7843   3.770   4.491   3.512 -0.0691  0.2312 -0.5593
   25MOL   C116 7844   3.832   4.502   3.652  0.1083 -0.7067 -0.1712
   25MOL   C117 7845   3.958   4.567   3.671 -0.2559  0.0472  0.4913
   25MOL   C118 7846   4.003   4.584   3.801  0.0584 -0.4733 -0.1843
   25MOL   C119 7847   3.932   4.544   3.912 -0.6709  0.8755  0.2034
   25MOL   C120 7848   3.807   4.481   3.893  0.1886 -0.9137  0.0563
   25MOL   C121 7849   3.757   4.464   3.765 -0.0476 -0.5695 -0.3340
   25MOL   H122 7850   3.556   4.522   3.507 -0.8138  1.1691 -3.7921
   25MOL   H123 7851   3.642   4.638   3.605 -2.0861  1.2481 -1.2139
   25MOL   H124 7852   3.839   4.524   3.434 -0.8019  0.4307 -1.1185
   25MOL   H125 7853   4.017   4.606   3.590  1.2192 -0.4320  1.3243
   25MOL   H126 7854   4.100   4.632   3.810  1.2682 -2.7791 -0.6212
   25MOL   H127 7855   3.987   4.550   4.005  0.8275 -2.0395 -0.4338
   25MOL   H128 7856   3.751   4.454   3.981  0.0734 -1.5073 -0.1940
   25MOL   H129 7857   3.665   4.408   3.765  0.6176 -1.6787 -0.2023
   25MOL   C130 7858   3.737   4.346   3.472 -0.4427  0.5052  0.3546
   25MOL   C131 7859   3.688   4.310   3.320 -0.1632 -0.3741 -0.0071
   25MOL   C132 7860   3.777   4.353   3.210  0.8908 -0.5234  0.8865
   25MOL   C133 7861   3.720   4.419   3.097  0.0295  0.2514  0.3510
   25MOL   C134 7862   3.807   4.466   2.991  0.4015  0.4276 -0.1104
   25MOL   C135 7863   3.945   4.442   3.005  0.0144  0.6222 -0.0613
   25MOL   C136 7864   3.997   4.367   3.113  0.7575  0.3722  0.8384
   25MOL   C137 7865   3.918   4.329   3.219 -0.0582 -0.3899 -0.0879
   25MOL   H138 7866   3.653   4.307   3.530 -0.3085 -1.2424 -0.5703
   25MOL   H139 7867   3.829   4.290   3.491  1.4440  3.0306 -1.0844
   25MOL   H140 7868   3.596   4.365   3.302 -0.0006 -0.5303 -1.3840
   25MOL   H141 7869   3.612   4.424   3.088  0.0651  0.1952 -0.1178
   25MOL   H142 7870   3.764   4.515   2.905  0.1144 -0.0311 -0.2310
   25MOL   H143 7871   3.996   4.477   2.917 -0.2315 -2.6442 -1.5689
   25MOL   H144 7872   4.100   4.340   3.126  0.7295  1.3343  3.5238
   25MOL   H145 7873   3.968   4.277   3.300  0.8452 -1.0366 -1.0522
   25MOL   C146 7874   3.666   4.160   3.297  0.4264  0.5608 -0.4682
   25MOL   C147 7875   3.526   4.091   3.318  0.4714  0.2258  0.0354
   25MOL   C148 7876   3.409   4.154   3.244  0.2386 -0.1791  0.2289
   25MOL   C149 7877   3.420   4.213   3.113  0.6262  0.5759  0.0364
   25MOL   C150 7878   3.311   4.276   3.045 -0.3787  0.2359 -0.9203
   25MOL   C151 7879   3.190   4.276   3.112 -0.8258  0.4615  0.9196
   25MOL   C152 7880   3.173   4.213   3.237  0.2537  0.3717 -0.1137
   25MOL   C153 7881   3.280   4.159   3.308 -0.5775 -0.0289  0.6395
   25MOL   H154 7882   3.723   4.111   3.376  0.0199 -0.7548 -0.9737
   25MOL   H155 7883   3.713   4.123   3.206  0.8681 -2.3289  0.8712
   25MOL   H156 7884   3.507   4.109   3.424  1.3302 -3.3365  0.8560
   25MOL   H157 7885   3.518   4.222   3.067  0.6017  0.8114  0.0287
   25MOL   H158 7886   3.339   4.333   2.957  2.2151 -1.7812 -1.5028
   25MOL   H159 7887   3.103   4.316   3.062 -1.1587 -1.7236 -0.3422
   25MOL   H160 7888   3.074   4.206   3.281  0.1295 -0.8859 -0.5686
   25MOL   H161 7889   3.269   4.111   3.405  1.4451  0.5644  1.1723
   25MOL   C162 7890   3.537   3.942   3.296 -0.6343 -0.6399  0.7980
   25MOL   C163 7891   3.599   3.860   3.415  0.2614 -0.0815  0.8346
   25MOL   C164 7892   3.503   3.875   3.539 -0.1259 -0.5055 -0.5860
   25MOL   C165 7893   3.373   3.824   3.536 -0.1003  0.2172 -0.4651
   25MOL   C166 7894   3.297   3.816   3.656 -0.3698  0.2214  0.1738
   25MOL   C167 7895   3.357   3.851   3.778  0.6862  0.0978  0.1887
   25MOL   C168 7896   3.484   3.897   3.780  0.0408 -0.7427  0.1611
   25MOL   C169 7897   3.557   3.921   3.663 -1.0888 -0.1894  0.1430
   25MOL   H170 7898   3.597   3.918   3.208 -2.0532 -0.9469 -0.1054
   25MOL   H171 7899   3.441   3.897   3.275  0.5183 -1.4727 -3.1329
   25MOL   H172 7900   3.694   3.905   3.443  0.1553  0.0241  1.0232
   25MOL   H173 7901   3.329   3.801   3.441  0.8111  2.7337 -1.5440
   25MOL   H174 7902   3.194   3.789   3.639 -1.0392  2.3397  0.6831
   25MOL   H175 7903   3.301   3.856   3.870 -0.4400  2.0443 -0.5752
   25MOL   H176 7904   3.538   3.926   3.869 -1.4511  0.5260  0.6892
   25MOL   H177 7905   3.660   3.954   3.664 -1.3281  0.5783 -0.2088
   25MOL   C178 7906   3.623   3.716   3.370 -0.0763 -0.4150  0.2454
   25MOL   C179 7907   3.766   3.687   3.323  0.2287  0.1201 -0.1355
   25MOL   C180 7908   3.792   3.765   3.196 -0.2910 -0.0352  0.0807
   25MOL   C181 7909   3.720   3.720   3.081  0.1569  0.0039 -0.1749
   25MOL   C182 7910   3.733   3.784   2.957  0.4721  0.3764 -0.5331
   25MOL   C183 7911   3.814   3.901   2.951 -0.2465  0.5856  0.2874
   25MOL   C184 7912   3.887   3.947   3.061  0.9078 -0.0916  0.2446
   25MOL   C185 7913   3.873   3.886   3.188  0.2035 -0.2860 -0.2635
   25MOL   H186 7914   3.550   3.688   3.295  0.2647 -2.5072  0.6630
   25MOL   H187 7915   3.615   3.651   3.458 -2.0188 -0.8229 -0.2057
   25MOL   H188 7916   3.762   3.583   3.290  1.6805  0.0758 -0.1823
   25MOL   H189 7917   3.667   3.627   3.088  3.3683 -1.8436  0.5583
   25MOL   H190 7918   3.676   3.748   2.873  1.0601  0.5745 -1.0211
   25MOL   H191 7919   3.813   3.967   2.866  1.0283 -1.2080 -1.1410
   25MOL   H192 7920   3.948   4.035   3.044  2.4422 -0.9126  1.3380
   25MOL   H193 7921   3.918   3.927   3.277 -0.0940  0.4215 -0.4384
   25MOL   C194 7922   3.874   3.709   3.440 -0.5551  0.0069  0.1844
   25MOL   C195 7923   3.861   3.626   3.568 -0.2162  0.9580  0.2307
   25MOL   C196 7924   3.889   3.478   3.549  0.3636 -0.2950 -0.1463
   25MOL   C197 7925   3.782   3.393   3.596  0.5372 -0.6539  0.2267
   25MOL   C198 7926   3.792   3.253   3.588  0.0780 -0.4585  0.2254
   25MOL   C199 7927   3.902   3.200   3.513 -0.2370 -0.0042  0.3338
   25MOL   C200 7928   4.004   3.287   3.457 -0.5513  1.1625 -0.4585
   25MOL   C201 7929   3.995   3.427   3.474  0.2073 -0.3398  1.1182
   25MOL   H202 7930   3.870   3.813   3.472 -2.5195  0.0206 -0.0617
   25MOL   H203 7931   3.973   3.710   3.393 -0.6847 -0.0092 -0.0870
   25MOL   H204 7932   3.764   3.645   3.614  0.2775  0.2642  1.5960
   25MOL   H205 7933   3.695   3.443   3.637 -0.1215 -0.6744 -1.1042
   25MOL   H206 7934   3.712   3.191   3.627  2.5073 -5.1105 -1.9190
   25MOL   H207 7935   3.904   3.094   3.494 -0.1246 -0.1233  1.0162
   25MOL   H208 7936   4.096   3.249   3.415 -0.6792  0.5582 -0.2051
   25MOL   H209 7937   4.074   3.491   3.437 -1.0900  0.6638  0.0580
   25MOL   C210 7938   3.961   3.671   3.674  0.0400 -0.0033  0.2043
   25MOL   C211 7939   3.948   3.606   3.819  0.2082 -0.0085  0.3083
   25MOL   C212 7940   4.085   3.626   3.892 -0.2452  0.1503  0.1828
   25MOL   C213 7941   4.157   3.745   3.903  0.4216  0.3343  0.2334
   25MOL   C214 7942   4.270   3.753   3.988  0.0745  0.1950  0.1560
   25MOL   C215 7943   4.328   3.635   4.051 -0.3154  0.4851 -0.3245
   25MOL   C216 7944   4.268   3.514   4.025 -0.1836 -0.1378  0.5967
   25MOL   C217 7945   4.145   3.512   3.952  0.7625 -0.2684 -0.0406
   25MOL   H218 7946   3.961   3.780   3.677 -0.2551  0.0535 -1.4893
   25MOL   H219 7947   4.060   3.659   3.630 -0.1730  0.8700 -0.5323
   25MOL   H220 7948   3.936   3.501   3.792 -0.2376  0.0251  0.3774
   25MOL   H221 7949   4.107   3.823   3.848 -0.2987  0.0940  0.5304
   25MOL   H222 7950   4.315   3.849   4.010  2.9924 -0.5430 -2.3410
   25MOL   H223 7951   4.405   3.638   4.126 -0.0562  0.0049 -0.5725
   25MOL   H224 7952   4.309   3.422   4.066  1.4871 -0.3524 -1.4391
   25MOL   H225 7953   4.086   3.423   3.938 -3.1899  2.6107 -2.6604
   25MOL   C226 7954   3.826   3.660   3.904  0.2345 -0.7924 -0.4481
   25MOL   C227 7955   3.743   3.574   3.996 -0.1057  0.3582  0.3567
   25MOL   C228 7956   3.642   3.671   4.065 -0.7119  0.0716 -0.0870
   25MOL   C229 7957   3.688   3.742   4.180  0.2630  0.1941 -0.1483
   25MOL   C230 7958   3.594   3.819   4.252 -0.3697  0.5456 -0.0919
   25MOL   C231 7959   3.459   3.838   4.211 -0.1673  0.2578 -0.6540
   25MOL   C232 7960   3.418   3.770   4.094  0.6535 -0.4592 -0.1431
   25MOL   C233 7961   3.507   3.688   4.023  0.1137 -0.0815 -0.8533
   25MOL   H234 7962   3.752   3.698   3.832 -0.4032  0.8867  1.0428
   25MOL   H235 7963   3.857   3.750   3.958 -1.5753 -0.0349 -0.5963
   25MOL   H236 7964   3.812   3.545   4.076  0.4114  1.2672  0.2485
   25MOL   H237 7965   3.790   3.744   4.216  0.6125  1.7344 -1.2096
   25MOL   H238 7966   3.628   3.876   4.338 -1.7989  0.7637  0.3471
   25MOL   H239 7967   3.382   3.887   4.269  1.6355  0.1141  1.9723
   25MOL   H240 7968   3.312   3.759   4.072  0.7717  0.3855 -1.1556
   25MOL   H241 7969   3.472   3.627   3.940  0.4569 -3.2784  1.2518
   25MOL   C242 7970   3.678   3.452   3.938 -0.2098  0.0290  0.0866
   25MOL   C243 7971   3.596   3.370   4.040 -0.4962 -0.0501 -0.4348
   25MOL   C244 7972   3.507   3.262   3.972 -0.3563 -0.1596  0.0603
   25MOL   C245 7973   3.367   3.275   3.967  0.0646 -0.4832  0.5892
   25MOL   C246 7974   3.286   3.185   3.893 -0.2524 -0.0558 -0.6298
   25MOL   C247 7975   3.345   3.080   3.820 -0.2231  0.4209  0.4413
   25MOL   C248 7976   3.489   3.067   3.828  0.5856 -0.3366 -0.0879
   25MOL   C249 7977   3.568   3.156   3.903 -0.2723  0.1577  0.4481
   25MOL   H250 7978   3.746   3.382   3.889  0.7742  0.9531  0.1205
   25MOL   H251 7979   3.618   3.487   3.854  0.4617  0.2078 -0.3212
   25MOL   H252 7980   3.532   3.445   4.086  0.2111 -0.3634  1.0834
   25MOL   H253 7981   3.315   3.352   4.022  0.5734 -0.6846  1.3516
   25MOL   H254 7982   3.179   3.186   3.903 -0.2536 -4.3084  1.0347
   25MOL   H255 7983   3.288   3.010   3.761  1.0177  1.6240 -2.2387
   25MOL   H256 7984   3.539   2.998   3.762  0.0624 -1.1444  0.3579
   25MOL   H257 7985   3.675   3.141   3.908 -0.2453 -1.4645 -2.9900
   25MOL   C258 7986   3.686   3.303   4.153 -0.2606  0.1713  0.2751
   25MOL   C259 7987   3.657   3.361   4.293 -0.2055  0.0484 -0.2287
   25MOL   C260 7988   3.505   3.346   4.323  0.3613 -0.9485  0.5895
   25MOL   C261 7989   3.443   3.219   4.301  0.1560 -0.7669  0.3951
   25MOL   C262 7990   3.310   3.202   4.328  0.1423 -0.4365  0.1313
   25MOL   C263 7991   3.231   3.311   4.382  0.5790  0.1649 -0.1785
   25MOL   C264 7992   3.285   3.442   4.391 -0.2796  0.2085  0.0915
   25MOL   C265 7993   3.424   3.455   4.359  0.6059  0.0561 -0.7757
   25MOL   H266 7994   3.790   3.312   4.123  0.1560  1.8201  2.1098
   25MOL   H267 7995   3.667   3.196   4.141 -1.0734  0.3420  0.0431
   25MOL   H268 7996   3.671   3.469   4.291 -2.7483  0.3959 -3.3512
   25MOL   H269 7997   3.492   3.129   4.267 -0.6288 -0.5748 -1.2982
   25MOL   H270 7998   3.257   3.110   4.312 -1.3761  0.3990  0.2971
   25MOL   H271 7999   3.126   3.293   4.401  1.0039 -0.3955  1.7100
   25MOL   H272 8000   3.217   3.522   4.417  0.0003  0.0508  1.3538
   25MOL   H273 8001   3.476   3.548   4.376  0.3353  0.2731 -1.1178
   25MOL   C274 8002   3.745   3.306   4.400 -0.0705  0.7214 -0.0840
   25MOL   C275 8003   3.898   3.322   4.376  0.2545  0.9064 -0.8111
   25MOL   C276 8004   3.936   3.468   4.382  0.0855  0.4860 -0.4827
   25MOL   C277 8005   4.002   3.533   4.275 -0.0607 -0.3312 -0.5473
   25MOL   C278 8006   4.047   3.671   4.294 -0.3404  0.5692 -0.2549
   25MOL   C279 8007   4.010   3.738   4.411  0.5533 -0.3109 -0.4078
   25MOL   C280 8008   3.928   3.677   4.501  0.0487  0.3984 -0.4299
   25MOL   C281 8009   3.896   3.542   4.493 -0.5732  0.7439 -0.1322
   25MOL   H282 8010   3.718   3.200   4.402 -0.2189  0.7261 -1.4482
   25MOL   H283 8011   3.723   3.350   4.497 -0.1069  0.8497 -0.1509
   25MOL   H284 8012   3.919   3.290   4.274 -0.6774 -0.5031 -0.5789
   25MOL   H285 8013   4.021   3.484   4.180 -0.4127 -0.6312 -0.4638
   25MOL   H286 8014   4.105   3.724   4.220 -1.0546 -0.7968 -1.8256
   25MOL   H287 8015   4.040   3.840   4.429 -0.9398 -0.2778  2.1387
   25MOL   H288 8016   3.892   3.720   4.593 -1.1866  0.9134 -1.1392
   25MOL   H289 8017   3.827   3.509   4.569 -0.3673  3.7503  1.4703
   25MOL   C290 8018   3.986   3.238   4.467  0.1787  0.2148  0.5029
   25MOL   C291 8019   3.977   3.088   4.447 -0.4387  1.1170 -0.5152
   25MOL   C292 8020   3.996   3.052   4.300  0.0754 -0.1583  0.7562
   25MOL   C293 8021   4.126   3.054   4.243 -0.1127 -0.3014  0.5514
   25MOL   C294 8022   4.137   3.033   4.103  0.2246  0.3560  0.4745
   25MOL   C295 8023   4.026   3.004   4.030 -0.3871  0.5177  0.0737
   25MOL   C296 8024   3.894   2.995   4.087 -0.2661 -0.5795  0.1755
   25MOL   C297 8025   3.877   3.021   4.223 -0.8081  0.1025  0.1388
   25MOL   H298 8026   3.951   3.255   4.569 -0.6123 -0.0837  0.2878
   25MOL   H299 8027   4.087   3.279   4.459 -1.3085  3.7964 -1.4875
   25MOL   H300 8028   3.875   3.066   4.480 -1.3439  1.8074 -2.7771
   25MOL   H301 8029   4.210   3.084   4.304 -1.3321  2.1894  1.0594
   25MOL   H302 8030   4.235   3.054   4.062  0.1307  0.4557  0.2995
   25MOL   H303 8031   4.021   2.995   3.923 -2.8398  0.7366  0.1451
   25MOL   H304 8032   3.807   2.964   4.030  0.1478 -0.2463 -0.6425
   25MOL   H305 8033   3.781   3.014   4.272 -1.6292  2.1953 -1.0746
   25MOL   C306 8034   4.071   3.020   4.539 -0.0497  0.5398 -0.0278
   25MOL   C307 8035   4.060   2.867   4.535  0.0450  0.3692 -0.7119
   25MOL   C308 8036   4.144   2.787   4.632 -1.0383 -0.3506 -0.3541
   25MOL   C309 8037   4.242   2.702   4.566 -0.5518  0.4176 -0.2990
   25MOL   C310 8038   4.347   2.656   4.642 -0.3041  0.6452 -1.2621
   25MOL   C311 8039   4.345   2.668   4.786 -0.0494 -0.6974  0.3461
   25MOL   C312 8040   4.242   2.744   4.851 -0.5755 -0.3494 -0.6298
   25MOL   C313 8041   4.146   2.806   4.772  0.2639  0.6797 -0.8440
   25MOL   H314 8042   4.049   3.051   4.641 -1.7240 -0.3418 -0.1065
   25MOL   H315 8043   4.172   3.056   4.520  0.0949  0.8091  1.2267
   25MOL   H316 8044   4.066   2.819   4.437  0.3402  0.7514 -0.8807
   25MOL   H317 8045   4.246   2.687   4.459  0.9861 -1.6441  0.0325
   25MOL   H318 8046   4.416   2.586   4.597  2.5228  1.3539  1.7764
   25MOL   H319 8047   4.423   2.615   4.838  0.9973  0.0741 -0.4113
   25MOL   H320 8048   4.236   2.744   4.958  1.6073  0.7544 -0.5001
   25MOL   H321 8049   4.068   2.870   4.812 -2.9476 -3.1890 -0.5722
   25MOL   H322 8050   3.962   2.837   4.572  0.9265 -1.5423  0.1149
   26MOL     C1 8051   5.410   6.552   2.810  0.0193 -0.0983 -0.2769
   26MOL     C2 8052   5.359   6.456   2.709 -0.3300 -0.6051  0.1408
   26MOL     C3 8053   5.462   6.348   2.676 -0.3725 -0.2194  0.3280
   26MOL     C4 8054   5.563   6.394   2.589  0.0205 -0.6845  0.6183
   26MOL     C5 8055   5.671   6.306   2.560 -0.9573 -0.0269 -0.3076
   26MOL     C6 8056   5.675   6.181   2.616 -0.7850  0.3780 -0.6594
   26MOL     C7 8057   5.582   6.140   2.712 -0.0668  0.3153 -0.2503
   26MOL     C8 8058   5.472   6.221   2.739 -0.0341  0.6296 -0.8217
   26MOL     H9 8059   5.515   6.581   2.798 -0.2522  0.2695 -1.9464
   26MOL    H10 8060   5.355   6.646   2.809  2.5382  1.4715  1.7189
   26MOL    H11 8061   5.351   6.513   2.616  1.8668  0.2594  0.4403
   26MOL    H12 8062   5.563   6.493   2.544  0.1397 -1.9417 -2.2775
   26MOL    H13 8063   5.749   6.345   2.496 -2.5161  0.7524 -1.7829
   26MOL    H14 8064   5.764   6.124   2.593 -0.4174  0.6828 -0.0062
   26MOL    H15 8065   5.579   6.040   2.753  1.1730  0.3860  0.0309
   26MOL    H16 8066   5.393   6.186   2.803  1.5345  0.9645  1.3989
   26MOL    H17 8067   5.407   6.518   2.913  0.1622  1.5975  0.3106
   26MOL    C18 8068   5.230   6.384   2.748 -0.5074 -0.3031 -0.3224
   26MOL    C19 8069   5.096   6.461   2.746 -0.2510 -0.4045  0.2697
   26MOL    C20 8070   5.079   6.520   2.603 -0.1524  0.0242  0.3122
   26MOL    C21 8071   5.078   6.439   2.488  1.0090  0.7488  0.3607
   26MOL    C22 8072   5.064   6.489   2.358  0.1748  0.6125 -0.3320
   26MOL    C23 8073   5.041   6.622   2.337 -0.4796 -0.3362  0.5884
   26MOL    C24 8074   5.038   6.707   2.443  0.5278 -0.3170 -0.0325
   26MOL    C25 8075   5.078   6.659   2.574  0.3214 -0.0480 -0.5242
   26MOL    H26 8076   5.260   6.342   2.844 -1.7354  0.5021  0.4271
   26MOL    H27 8077   5.224   6.301   2.678 -4.3596  0.7629 -1.3585
   26MOL    H28 8078   5.101   6.542   2.819 -1.3892  0.5502 -0.6904
   26MOL    H29 8079   5.090   6.332   2.498  2.6845  1.1009  2.5840
   26MOL    H30 8080   5.052   6.421   2.275  2.2352 -0.3423  0.1174
   26MOL    H31 8081   5.022   6.673   2.244  1.0224 -0.1313  0.3799
   26MOL    H32 8082   5.028   6.813   2.427  3.4923 -0.0264 -0.2379
   26MOL    H33 8083   5.086   6.729   2.657 -3.5300  1.1129 -1.0062
   26MOL    C34 8084   4.975   6.381   2.791 -0.3153 -0.4457 -0.0159
   26MOL    C35 8085   4.991   6.312   2.928  0.2861  0.4328  0.2073
   26MOL    C36 8086   5.002   6.408   3.052  0.0722  0.6079 -0.5137
   26MOL    C37 8087   5.136   6.431   3.101 -0.1670 -0.4164 -0.0547
   26MOL    C38 8088   5.153   6.524   3.205 -0.1878  0.1138  0.2177
   26MOL    C39 8089   5.044   6.583   3.271 -0.3351  0.3779  0.0014
   26MOL    C40 8090   4.914   6.562   3.217  0.7825  0.2083 -0.7775
   26MOL    C41 8091   4.897   6.478   3.112 -0.3112 -0.3903 -0.5599
   26MOL    H42 8092   4.964   6.303   2.715 -1.0184  0.2593 -0.6501
   26MOL    H43 8093   4.887   6.444   2.784  0.8715  1.3341  0.7508
   26MOL    H44 8094   5.087   6.261   2.929 -0.0737 -0.2363  0.8337
   26MOL    H45 8095   5.221   6.386   3.051 -0.3605 -0.6830 -0.1443
   26MOL    H46 8096   5.251   6.561   3.231  1.2069 -1.9886 -1.8821
   26MOL    H47 8097   5.067   6.645   3.356  1.4838 -1.0238  0.5663
   26MOL    H48 8098   4.831   6.615   3.262 -1.4994 -0.8490 -3.6112
   26MOL    H49 8099   4.803   6.467   3.061 -0.1603 -1.0929 -0.6933
   26MOL    C50 8100   4.888   6.193   2.956  0.3392  0.2506  0.1359
   26MOL    C51 8101   4.928   6.059   2.880  0.8288 -0.1448  0.3867
   26MOL    C52 8102   5.058   5.991   2.943 -0.0246  0.3427 -1.5523
   26MOL    C53 8103   5.182   5.988   2.871 -0.3982  0.0486 -0.0812
   26MOL    C54 8104   5.289   5.911   2.908  0.0805 -0.9662  0.2670
   26MOL    C55 8105   5.281   5.832   3.024 -0.6638  0.5814  0.2791
   26MOL    C56 8106   5.168   5.844   3.108  0.0063 -0.1901 -0.2199
   26MOL    C57 8107   5.055   5.915   3.063  0.1373 -0.3722 -0.3560
   26MOL    H58 8108   4.790   6.232   2.929 -0.2477 -1.2409  0.0884
   26MOL    H59 8109   4.883   6.178   3.064 -2.0891 -1.0382 -0.1383
   26MOL    H60 8110   4.965   6.077   2.779  0.8691 -1.1447  0.2162
   26MOL    H61 8111   5.192   6.040   2.777  2.9571 -0.3497 -0.0194
   26MOL    H62 8112   5.377   5.906   2.846 -0.0863  1.0093 -0.1524
   26MOL    H63 8113   5.353   5.760   3.061 -4.3155 -2.8650  1.0519
   26MOL    H64 8114   5.169   5.789   3.202 -1.8273  0.9095  0.4697
   26MOL    H65 8115   4.962   5.913   3.118  1.1491 -3.4208  1.3891
   26MOL    C66 8116   4.813   5.959   2.873 -0.1158 -0.1901 -0.0490
   26MOL    C67 8117   4.692   5.994   2.795  0.1470  0.3764  0.1152
   26MOL    C68 8118   4.737   6.034   2.654 -0.5947 -0.0362  0.3256
   26MOL    C69 8119   4.731   6.168   2.619  0.3666 -0.0830  0.4531
   26MOL    C70 8120   4.777   6.201   2.490 -0.1760 -0.3840 -0.1345
   26MOL    C71 8121   4.818   6.103   2.396 -0.3548 -0.0046  0.1770
   26MOL    C72 8122   4.817   5.969   2.435  0.1035  0.2458 -0.0787
   26MOL    C73 8123   4.768   5.932   2.566 -0.2882 -0.3675  0.0964
   26MOL    H74 8124   4.780   5.925   2.971  0.1215  1.1046  0.5022
   26MOL    H75 8125   4.861   5.875   2.823 -0.9296 -1.7038  1.6593
   26MOL    H76 8126   4.650   6.085   2.838  1.6889 -0.2573  3.0610
   26MOL    H77 8127   4.698   6.238   2.694 -0.4000  0.0511 -0.0041
   26MOL    H78 8128   4.766   6.305   2.467  1.3054  0.1469  1.3713
   26MOL    H79 8129   4.839   6.130   2.293 -0.8556 -1.3606 -0.2970
   26MOL    H80 8130   4.839   5.888   2.367 -0.9810  1.0181 -1.3639
   26MOL    H81 8131   4.764   5.827   2.589  0.8145  0.1354  2.7325
   26MOL    C82 8132   4.586   5.877   2.785 -0.3570  0.0728 -0.2819
   26MOL    C83 8133   4.499   5.844   2.912 -0.0191  0.8391 -0.4994
   26MOL    C84 8134   4.453   5.970   2.980 -0.3051 -0.4718  0.3525
   26MOL    C85 8135   4.486   5.986   3.116 -0.3723  0.3940  0.7663
   26MOL    C86 8136   4.443   6.095   3.189 -0.7442  0.1535  0.1070
   26MOL    C87 8137   4.362   6.196   3.131  0.1153 -0.0697 -0.3649
   26MOL    C88 8138   4.340   6.187   2.993 -0.2738  0.6139 -0.5818
   26MOL    C89 8139   4.373   6.072   2.916  0.3833 -0.5674 -0.5679
   26MOL    H90 8140   4.635   5.785   2.752 -0.4334  0.4656 -1.4815
   26MOL    H91 8141   4.516   5.901   2.705 -2.1314 -2.5809  0.3999
   26MOL    H92 8142   4.545   5.776   2.984 -0.5838 -1.1143 -1.9331
   26MOL    H93 8143   4.544   5.905   3.158 -0.7761 -0.7564 -0.8483
   26MOL    H94 8144   4.475   6.115   3.291  0.1218 -0.2376 -0.0871
   26MOL    H95 8145   4.328   6.285   3.183 -1.1264 -1.2360  0.8669
   26MOL    H96 8146   4.287   6.270   2.948  0.3602  0.5924 -1.3816
   26MOL    H97 8147   4.343   6.072   2.812  0.2867 -0.0501 -0.5396
   26MOL    C98 8148   4.370   5.761   2.883 -0.0627  0.3393  0.3664
   26MOL    C99 8149   4.282   5.709   2.999  0.0776 -0.6562  0.0014
   26MOL   C100 8150   4.142   5.687   2.958  0.1879 -0.1324  0.0133
   26MOL   C101 8151   4.037   5.750   3.031  0.2902  0.4758  0.0614
   26MOL   C102 8152   3.903   5.742   2.985 -0.7507 -0.7652  0.1130
   26MOL   C103 8153   3.874   5.674   2.871 -0.3128 -0.5229  0.3429
   26MOL   C104 8154   3.982   5.614   2.800  0.6549 -0.4619  0.5135
   26MOL   C105 8155   4.111   5.622   2.841 -0.6452 -0.0341 -0.2707
   26MOL   H106 8156   4.388   5.679   2.813  0.9860 -0.6363  1.7533
   26MOL   H107 8157   4.302   5.830   2.832  0.3810 -0.6973 -1.6910
   26MOL   H108 8158   4.286   5.782   3.081 -0.1636  0.3416 -0.8681
   26MOL   H109 8159   4.052   5.814   3.118  2.2260 -1.3107  1.0861
   26MOL   H110 8160   3.818   5.780   3.040 -0.8061  0.2569 -0.6591
   26MOL   H111 8161   3.775   5.670   2.827  0.4450  3.0388 -1.8592
   26MOL   H112 8162   3.963   5.570   2.704  0.9211  0.4857  0.0243
   26MOL   H113 8163   4.192   5.578   2.785 -1.2061 -0.7690 -0.5064
   26MOL   C114 8164   4.335   5.578   3.058  0.8112  0.3137  0.3802
   26MOL   C115 8165   4.250   5.506   3.166 -0.1119 -0.5976  0.2620
   26MOL   C116 8166   4.299   5.357   3.181 -0.1816  0.8142 -0.6419
   26MOL   C117 8167   4.210   5.252   3.184 -0.6892  0.3136 -0.6500
   26MOL   C118 8168   4.250   5.113   3.203 -0.4544 -0.5045  0.1233
   26MOL   C119 8169   4.388   5.086   3.219  0.1790  0.1805  0.8945
   26MOL   C120 8170   4.482   5.195   3.216 -0.1510  0.5019  0.0354
   26MOL   C121 8171   4.435   5.328   3.204 -0.4879 -0.6179 -0.2539
   26MOL   H122 8172   4.432   5.597   3.104  0.5278  0.3512  0.9613
   26MOL   H123 8173   4.339   5.508   2.974  0.7607  0.8051 -0.0336
   26MOL   H124 8174   4.147   5.507   3.131 -0.7315  2.3348  2.0065
   26MOL   H125 8175   4.104   5.273   3.177 -0.4682  1.1486 -1.5975
   26MOL   H126 8176   4.179   5.032   3.193  1.5561 -2.6701  2.4877
   26MOL   H127 8177   4.428   4.986   3.223  1.9689  0.8802  1.0747
   26MOL   H128 8178   4.587   5.167   3.210 -0.6475 -1.2309 -1.0980
   26MOL   H129 8179   4.513   5.402   3.203 -1.7541  0.7376  0.4911
   26MOL   C130 8180   4.253   5.572   3.302 -0.6735 -0.9616 -0.0590
   26MOL   C131 8181   4.110   5.603   3.362 -0.0901  1.1150 -0.3419
   26MOL   C132 8182   4.020   5.482   3.367  0.3850  0.1190 -0.5951
   26MOL   C133 8183   4.045   5.383   3.458  0.2423 -0.4151 -0.0559
   26MOL   C134 8184   3.947   5.284   3.490  0.5800 -0.2371 -0.6997
   26MOL   C135 8185   3.820   5.290   3.429  0.4138  0.3341  0.2801
   26MOL   C136 8186   3.795   5.382   3.325 -0.0923  0.3490 -0.7208
   26MOL   C137 8187   3.900   5.478   3.292  0.0745  0.1346  0.4637
   26MOL   H138 8188   4.302   5.669   3.303  0.7253 -1.6592 -0.2300
   26MOL   H139 8189   4.315   5.518   3.374  0.5877 -0.2630 -0.6309
   26MOL   H140 8190   4.066   5.661   3.281 -1.1753  1.1122  0.2341
   26MOL   H141 8191   4.137   5.390   3.515 -0.2640 -2.0450  1.0053
   26MOL   H142 8192   3.964   5.222   3.577 -2.8739 -0.7965 -0.3445
   26MOL   H143 8193   3.741   5.219   3.448  1.8798 -1.4962 -0.3454
   26MOL   H144 8194   3.698   5.385   3.277  0.3557  1.1337 -1.5866
   26MOL   H145 8195   3.884   5.549   3.212 -1.5576 -0.9720 -0.2294
   26MOL   C146 8196   4.102   5.678   3.498 -0.1751 -0.9764  0.2114
   26MOL   C147 8197   4.112   5.828   3.493 -0.5818 -0.6334  0.1497
   26MOL   C148 8198   3.999   5.888   3.403  0.3780 -0.3139  0.9332
   26MOL   C149 8199   3.870   5.827   3.389 -0.1770 -0.2304 -0.0920
   26MOL   C150 8200   3.773   5.885   3.302 -0.6237  0.3538 -0.2339
   26MOL   C151 8201   3.807   5.999   3.222 -0.2886  0.4324 -0.4998
   26MOL   C152 8202   3.939   6.044   3.228  0.3438 -0.5007 -0.5988
   26MOL   C153 8203   4.036   5.999   3.321  0.1014 -1.0371 -0.1734
   26MOL   H154 8204   4.182   5.644   3.564  1.6201  0.5795 -1.0958
   26MOL   H155 8205   4.006   5.643   3.536 -1.1584  1.8592  0.4266
   26MOL   H156 8206   4.202   5.851   3.436 -2.7771  1.1337 -2.7753
   26MOL   H157 8207   3.835   5.740   3.443 -2.1644 -0.7267 -2.0955
   26MOL   H158 8208   3.669   5.857   3.302 -0.3003 -0.8799  0.1900
   26MOL   H159 8209   3.736   6.043   3.155  0.5044  0.8253 -1.0984
   26MOL   H160 8210   3.980   6.112   3.155  3.2736 -0.5364  0.9212
   26MOL   H161 8211   4.134   6.043   3.333 -0.1993 -0.7284  1.1341
   26MOL   C162 8212   4.098   5.891   3.636 -1.1874  0.5702  0.0901
   26MOL   C163 8213   4.212   5.874   3.747  0.7131 -0.4891 -0.6584
   26MOL   C164 8214   4.346   5.856   3.682 -0.3778  0.3286  0.4230
   26MOL   C165 8215   4.415   5.736   3.714  0.7889 -0.1930  0.2969
   26MOL   C166 8216   4.540   5.710   3.646 -0.1872 -0.7089  0.0585
   26MOL   C167 8217   4.598   5.815   3.571 -0.0887 -0.0840  0.6450
   26MOL   C168 8218   4.535   5.934   3.543 -0.1225 -0.4955  0.0120
   26MOL   C169 8219   4.404   5.955   3.601 -0.1555  0.2470  0.5388
   26MOL   H170 8220   4.011   5.861   3.694 -1.2416  0.5370 -0.0100
   26MOL   H171 8221   4.091   5.998   3.616 -2.6896  0.6409  0.9369
   26MOL   H172 8222   4.193   5.773   3.784  0.7863  0.1464  1.1825
   26MOL   H173 8223   4.376   5.664   3.785 -2.9622  4.2587  3.0511
   26MOL   H174 8224   4.589   5.618   3.672  1.3967 -0.7892 -2.9003
   26MOL   H175 8225   4.694   5.782   3.533 -0.2231 -0.6681  0.8048
   26MOL   H176 8226   4.583   6.007   3.480  0.4043  0.5038  1.5569
   26MOL   H177 8227   4.353   6.044   3.567  1.7019  0.6917 -1.2022
   26MOL   C178 8228   4.213   5.987   3.848  0.1102  0.1931 -0.8268
   26MOL   C179 8229   4.109   5.984   3.957  0.0568  0.0427  0.4650
   26MOL   C180 8230   4.131   5.864   4.052  0.5184  0.6367  0.1196
   26MOL   C181 8231   4.258   5.846   4.110 -0.4098 -0.6036 -0.1722
   26MOL   C182 8232   4.273   5.742   4.201 -0.8766  0.2588  0.8414
   26MOL   C183 8233   4.173   5.646   4.222 -0.2127  0.5853 -0.5319
   26MOL   C184 8234   4.050   5.666   4.150  0.2507 -0.3416 -0.4047
   26MOL   C185 8235   4.028   5.775   4.070  0.5438  0.1038 -0.7517
   26MOL   H186 8236   4.201   6.086   3.803 -0.9405 -0.7632 -2.6727
   26MOL   H187 8237   4.306   5.992   3.905  0.0587 -0.7694 -0.6548
   26MOL   H188 8238   4.017   5.967   3.901  0.2929  2.8755 -0.8893
   26MOL   H189 8239   4.341   5.913   4.094  0.3101 -1.3805  0.2291
   26MOL   H190 8240   4.369   5.736   4.252  0.3485 -0.4316 -1.4582
   26MOL   H191 8241   4.184   5.569   4.296 -0.7552 -1.1850 -2.2343
   26MOL   H192 8242   3.964   5.601   4.147 -0.1538  0.1566  0.2834
   26MOL   H193 8243   3.932   5.805   4.031  0.2388 -0.1075 -0.1619
   26MOL   C194 8244   4.095   6.114   4.031  0.2568 -0.5041  1.0472
   26MOL   C195 8245   3.950   6.161   4.065  0.1643 -0.1770 -0.4672
   26MOL   C196 8246   3.925   6.189   4.216 -0.1149  0.0469  0.1843
   26MOL   C197 8247   4.021   6.277   4.278 -0.1894 -0.9819  0.0527
   26MOL   C198 8248   3.993   6.321   4.407  0.8993  0.1309 -0.0126
   26MOL   C199 8249   3.875   6.268   4.474  0.1165 -0.0148  0.2053
   26MOL   C200 8250   3.779   6.195   4.406 -0.3293 -0.7306  0.5281
   26MOL   C201 8251   3.802   6.153   4.272 -0.6990 -0.9094 -1.0867
   26MOL   H202 8252   4.127   6.203   3.976  1.2040  0.5991  3.3210
   26MOL   H203 8253   4.150   6.107   4.124 -0.7576  0.1265  1.7019
   26MOL   H204 8254   3.874   6.089   4.036 -0.3952  0.1514  0.1746
   26MOL   H205 8255   4.110   6.304   4.223 -0.5492  0.3566  0.0885
   26MOL   H206 8256   4.043   6.402   4.458  0.4174  1.1994 -1.2250
   26MOL   H207 8257   3.856   6.301   4.575  2.7570  0.6275  0.5455
   26MOL   H208 8258   3.689   6.161   4.455 -1.3625 -0.6323 -1.2564
   26MOL   H209 8259   3.728   6.097   4.216 -1.5844  1.2850 -2.1677
   26MOL   C210 8260   3.901   6.285   3.996 -0.1421  0.2210 -0.0940
   26MOL   C211 8261   3.867   6.273   3.846 -0.2213  0.8569 -0.0569
   26MOL   C212 8262   3.757   6.174   3.813  0.2972 -0.2325 -0.1180
   26MOL   C213 8263   3.778   6.065   3.725  0.6184  0.7463  0.0048
   26MOL   C214 8264   3.674   5.965   3.707 -0.2258  0.2187 -0.3016
   26MOL   C215 8265   3.550   5.979   3.769  0.2148  0.2742 -0.2268
   26MOL   C216 8266   3.523   6.094   3.848 -0.2015  0.8080 -0.8399
   26MOL   C217 8267   3.629   6.190   3.874  0.7751  0.3117  0.5488
   26MOL   H218 8268   3.961   6.372   4.024 -1.9672  1.6852 -0.5841
   26MOL   H219 8269   3.807   6.323   4.037 -0.8186 -0.2860 -1.1543
   26MOL   H220 8270   3.947   6.228   3.785 -1.5715 -1.0701 -0.4417
   26MOL   H221 8271   3.876   6.064   3.681  1.0213  1.3214  0.8747
   26MOL   H222 8272   3.696   5.878   3.647  1.1575 -0.3194  0.9419
   26MOL   H223 8273   3.475   5.905   3.746 -0.9029  1.7514 -1.4032
   26MOL   H224 8274   3.426   6.101   3.894 -0.3251 -0.5045 -0.8763
   26MOL   H225 8275   3.619   6.287   3.921 -2.8108  2.0395 -3.4276
   26MOL   C226 8276   3.830   6.408   3.779  0.1532 -0.4104  0.1631
   26MOL   C227 8277   3.932   6.523   3.778  0.1911 -0.3363 -0.1731
   26MOL   C228 8278   4.005   6.517   3.643 -0.4081 -0.7999  0.3356
   26MOL   C229 8279   3.953   6.564   3.521  0.2617  0.1255  0.0941
   26MOL   C230 8280   4.026   6.552   3.397  0.0139  0.9383  0.6843
   26MOL   C231 8281   4.155   6.490   3.399 -0.2184  0.8223  0.3863
   26MOL   C232 8282   4.195   6.427   3.520  0.0927  0.1314 -0.5000
   26MOL   C233 8283   4.121   6.444   3.640 -0.1582 -0.9967 -0.6210
   26MOL   H234 8284   3.733   6.438   3.821 -1.2038 -1.8515 -1.8486
   26MOL   H235 8285   3.797   6.391   3.677  1.0597 -1.5742  0.0498
   26MOL   H236 8286   4.003   6.512   3.860  0.4717  0.3380 -0.3197
   26MOL   H237 8287   3.857   6.612   3.525  0.3352  0.2454  0.4975
   26MOL   H238 8288   3.980   6.597   3.310  0.5963  0.8611  0.3383
   26MOL   H239 8289   4.208   6.481   3.306 -1.6731 -0.5190 -0.3489
   26MOL   H240 8290   4.288   6.372   3.525 -1.3474 -2.6358 -2.8029
   26MOL   H241 8291   4.165   6.399   3.728 -1.2708 -0.6837  0.1033
   26MOL   C242 8292   3.863   6.656   3.807  0.4723  0.4731 -0.0175
   26MOL   C243 8293   3.836   6.680   3.958 -0.3468 -0.3950  0.0191
   26MOL   C244 8294   3.965   6.710   4.037 -0.0480  0.3253  0.1734
   26MOL   C245 8295   3.989   6.638   4.156  0.3574 -0.1824 -0.2192
   26MOL   C246 8296   4.109   6.667   4.230 -0.3472  0.5970  0.1196
   26MOL   C247 8297   4.203   6.765   4.181 -0.2291 -0.3675  0.4528
   26MOL   C248 8298   4.182   6.829   4.053  0.8384 -0.2993 -0.8057
   26MOL   C249 8299   4.064   6.801   3.984 -1.1994 -0.0983  0.0697
   26MOL   H250 8300   3.772   6.663   3.747  0.4573  3.2084  0.2324
   26MOL   H251 8301   3.929   6.737   3.775 -0.7153  1.8922  1.0434
   26MOL   H252 8302   3.795   6.594   4.011 -0.1265  0.5436  1.7606
   26MOL   H253 8303   3.920   6.563   4.189  1.1131 -2.3209 -3.2985
   26MOL   H254 8304   4.129   6.606   4.317 -0.9154 -0.1235 -0.2535
   26MOL   H255 8305   4.297   6.790   4.228  0.6202  0.4166 -1.5948
   26MOL   H256 8306   4.249   6.907   4.022  2.4381 -0.7836  1.3184
   26MOL   H257 8307   4.036   6.852   3.894 -1.3188 -1.3679 -0.6343
   26MOL   C258 8308   3.723   6.791   3.976 -0.0154 -0.2995  0.6291
   26MOL   C259 8309   3.666   6.810   4.116 -1.1083 -0.3076 -0.5013
   26MOL   C260 8310   3.575   6.929   4.116  0.2163 -0.2834  0.0868
   26MOL   C261 8311   3.618   7.049   4.178  0.0942 -0.5605 -0.0739
   26MOL   C262 8312   3.527   7.158   4.176 -0.4747 -0.2344 -0.4157
   26MOL   C263 8313   3.409   7.154   4.113  0.5469  0.9907  0.3671
   26MOL   C264 8314   3.368   7.036   4.043 -0.8804  0.0722 -0.5524
   26MOL   C265 8315   3.450   6.922   4.051  0.1016 -0.1567 -0.0975
   26MOL   H266 8316   3.636   6.768   3.914 -0.8993  0.1789  1.6715
   26MOL   H267 8317   3.762   6.885   3.937  0.0216 -1.2889 -1.8288
   26MOL   H268 8318   3.754   6.832   4.176 -1.9588  1.1439  0.2567
   26MOL   H269 8319   3.712   7.072   4.226  1.1058  1.5692 -2.9555
   26MOL   H270 8320   3.557   7.245   4.233 -0.2246 -0.1600 -0.6572
   26MOL   H271 8321   3.336   7.232   4.127 -0.0120  0.8920 -1.7029
   26MOL   H272 8322   3.266   7.019   4.010 -0.3459 -1.9992 -1.2330
   26MOL   H273 8323   3.421   6.832   3.998  0.2775 -0.7862  0.8655
   26MOL   C274 8324   3.600   6.684   4.182  0.6650  0.4611  0.0387
   26MOL   C275 8325   3.581   6.681   4.340  0.2008 -0.8362 -0.0445
   26MOL   C276 8326   3.486   6.570   4.386  0.1556 -0.7608 -0.7122
   26MOL   C277 8327   3.360   6.605   4.442 -0.5485 -0.2877  0.4011
   26MOL   C278 8328   3.286   6.500   4.492  0.1857 -0.2340  0.3828
   26MOL   C279 8329   3.328   6.366   4.496  0.0488 -0.3629 -0.2767
   26MOL   C280 8330   3.447   6.334   4.432 -0.5201 -0.0429 -0.5194
   26MOL   C281 8331   3.525   6.436   4.372  0.4487  0.4802 -0.2180
   26MOL   H282 8332   3.654   6.592   4.163  1.2176  0.6398  0.7103
   26MOL   H283 8333   3.501   6.665   4.140  0.5001 -1.7166  1.3747
   26MOL   H284 8334   3.527   6.773   4.363 -1.1652 -1.4454 -0.7865
   26MOL   H285 8335   3.320   6.705   4.445 -1.2036 -0.4039 -2.7225
   26MOL   H286 8336   3.188   6.519   4.535 -0.0062 -0.8203  0.2211
   26MOL   H287 8337   3.269   6.284   4.534 -0.9043 -0.0943 -1.1554
   26MOL   H288 8338   3.464   6.229   4.410  0.7580 -0.3669  1.9172
   26MOL   H289 8339   3.604   6.406   4.305 -0.9916 -1.0752 -1.2571
   26MOL   C290 8340   3.717   6.687   4.409 -0.2217 -0.7658 -0.6187
   26MOL   C291 8341   3.737   6.658   4.562 -0.7378 -0.8137  0.0352
   26MOL   C292 8342   3.883   6.672   4.598  0.9724 -0.1217  0.3824
   26MOL   C293 8343   3.939   6.583   4.695  0.4854  0.1375  0.0336
   26MOL   C294 8344   4.070   6.601   4.744 -0.2350 -0.7292  0.2273
   26MOL   C295 8345   4.145   6.706   4.690  0.1793 -0.0219 -0.9945
   26MOL   C296 8346   4.092   6.788   4.588 -0.6080  0.5057 -0.1329
   26MOL   C297 8347   3.965   6.770   4.545  0.0826 -0.0044 -0.2706
   26MOL   H298 8348   3.752   6.787   4.381 -0.3758 -1.4236 -3.2459
   26MOL   H299 8349   3.787   6.620   4.360 -1.0550 -2.9094  1.0811
   26MOL   H300 8350   3.700   6.557   4.580 -0.7715 -0.9539 -0.7979
   26MOL   H301 8351   3.881   6.504   4.740 -0.9210  1.6053  0.8027
   26MOL   H302 8352   4.099   6.539   4.827  0.6641 -0.9908 -0.2631
   26MOL   H303 8353   4.245   6.713   4.729  0.1274 -0.9371 -0.6830
   26MOL   H304 8354   4.162   6.865   4.561  2.0347 -2.2902 -1.5505
   26MOL   H305 8355   3.918   6.846   4.484 -0.7042  0.9193  1.4522
   26MOL   C306 8356   3.650   6.751   4.644  0.5295  0.4973 -1.3111
   26MOL   C307 8357   3.669   6.739   4.796  0.3136  0.2556 -0.4737
   26MOL   C308 8358   3.570   6.809   4.889  0.2868 -0.2517 -0.2132
   26MOL   C309 8359   3.607   6.895   4.993  0.3895 -0.3654 -0.2655
   26MOL   C310 8360   3.508   6.959   5.069  0.8467 -0.1476  0.8018
   26MOL   C311 8361   3.371   6.924   5.056 -0.1069  0.5187  0.5005
   26MOL   C312 8362   3.332   6.834   4.957 -0.2798  0.0878 -0.0064
   26MOL   C313 8363   3.434   6.780   4.874  0.3028  0.3481 -0.3749
   26MOL   H314 8364   3.542   6.742   4.628  0.0920  0.1668  1.6219
   26MOL   H315 8365   3.677   6.856   4.631 -1.5904  1.2190 -0.1299
   26MOL   H316 8366   3.772   6.764   4.821 -0.1650 -0.9255  3.0603
   26MOL   H317 8367   3.710   6.919   5.016  0.3312  1.5817 -1.8581
   26MOL   H318 8368   3.540   7.031   5.143  0.5210 -1.4232  2.2192
   26MOL   H319 8369   3.297   6.970   5.119  0.4285 -0.8147  2.1564
   26MOL   H320 8370   3.228   6.816   4.935 -0.6005  0.4826  1.1752
   26MOL   H321 8371   3.412   6.710   4.795 -0.4804  0.8702 -0.6241
   26MOL   H322 8372   3.663   6.635   4.827 -0.1985  0.0712 -1.1861
   27MOL     C1 8373   2.682   6.583   1.647 -0.5046 -0.0088  0.7656
   27MOL     C2 8374   2.761   6.523   1.769 -0.1282 -0.2031  0.2975
   27MOL     C3 8375   2.883   6.459   1.707  0.0568 -0.3552 -1.3405
   27MOL     C4 8376   3.005   6.530   1.693 -0.1533  0.1653 -0.2206
   27MOL     C5 8377   3.122   6.469   1.645 -0.5681  0.1025  0.1192
   27MOL     C6 8378   3.119   6.333   1.610 -0.2820 -0.6941  0.1859
   27MOL     C7 8379   3.003   6.255   1.628 -0.7678 -0.1807  0.0472
   27MOL     C8 8380   2.884   6.320   1.671  0.3351  0.3649 -0.1820
   27MOL     H9 8381   2.614   6.518   1.594 -1.0173  1.6756 -0.6880
   27MOL    H10 8382   2.611   6.660   1.677  0.7886  1.7979 -0.6587
   27MOL    H11 8383   2.707   6.441   1.816  0.3234 -0.2158  0.7939
   27MOL    H12 8384   3.014   6.636   1.710  0.7091  0.3535 -1.7569
   27MOL    H13 8385   3.214   6.526   1.641  0.5953 -1.6825  0.8664
   27MOL    H14 8386   3.214   6.300   1.570  0.6457  2.3768 -0.2882
   27MOL    H15 8387   3.012   6.150   1.607 -1.2308  0.0240 -1.1766
   27MOL    H16 8388   2.800   6.255   1.690 -0.4094  1.5230  0.6320
   27MOL    H17 8389   2.751   6.635   1.581 -1.5848  1.0604  0.4560
   27MOL    C18 8390   2.807   6.622   1.885  0.3303  0.1631  0.5750
   27MOL    C19 8391   2.678   6.678   1.962  0.2183  0.0082 -0.1062
   27MOL    C20 8392   2.591   6.565   2.015  0.4254  0.1914  0.3429
   27MOL    C21 8393   2.450   6.569   1.989 -0.4588 -0.6796 -0.0458
   27MOL    C22 8394   2.361   6.468   2.031  0.2395 -0.3176 -0.5652
   27MOL    C23 8395   2.420   6.355   2.104  0.2166  0.2711 -0.6626
   27MOL    C24 8396   2.555   6.360   2.135  0.6248  0.2991  0.1042
   27MOL    C25 8397   2.640   6.463   2.098 -0.0067 -0.6653  0.2738
   27MOL    H26 8398   2.866   6.704   1.846  1.3965 -0.6832  0.4034
   27MOL    H27 8399   2.877   6.565   1.946  2.9350  2.1804 -0.4666
   27MOL    H28 8400   2.618   6.750   1.906 -1.9290 -0.4118  1.5897
   27MOL    H29 8401   2.411   6.644   1.921  0.2865 -1.5042 -1.4131
   27MOL    H30 8402   2.255   6.473   2.010  0.0855 -1.6291 -0.1974
   27MOL    H31 8403   2.362   6.272   2.143 -0.4096  1.4972  1.1009
   27MOL    H32 8404   2.597   6.278   2.193 -0.9459 -1.7776 -1.6208
   27MOL    H33 8405   2.745   6.456   2.122 -0.1037  0.9083  1.2429
   27MOL    C34 8406   2.725   6.765   2.077 -0.1859 -0.2918 -0.9651
   27MOL    C35 8407   2.841   6.869   2.046  0.3154 -0.0092 -0.4915
   27MOL    C36 8408   2.805   6.974   1.939  0.7141  0.1347 -0.5882
   27MOL    C37 8409   2.899   7.004   1.839 -1.1035 -0.6100  0.3497
   27MOL    C38 8410   2.864   7.105   1.743  0.0485  0.0907  0.1304
   27MOL    C39 8411   2.749   7.179   1.761 -0.3374 -0.9610 -0.1393
   27MOL    C40 8412   2.655   7.155   1.866  1.0632  0.0215  0.8890
   27MOL    C41 8413   2.687   7.051   1.953  0.3659 -0.5663  0.0265
   27MOL    H42 8414   2.768   6.701   2.154 -3.6244  0.8884  2.1118
   27MOL    H43 8415   2.641   6.813   2.127  2.1550 -0.3616  3.3229
   27MOL    H44 8416   2.930   6.816   2.012 -0.4387 -1.6247  0.0150
   27MOL    H45 8417   3.000   6.966   1.845 -0.6407  0.8895  3.1641
   27MOL    H46 8418   2.937   7.133   1.668  0.8722  1.7132  1.4906
   27MOL    H47 8419   2.722   7.246   1.681  0.4393  1.0641  1.2614
   27MOL    H48 8420   2.565   7.213   1.878  0.9728 -0.1651  1.1137
   27MOL    H49 8421   2.619   7.034   2.035 -0.6412  1.5170 -0.3478
   27MOL    C50 8422   2.880   6.939   2.173 -0.4137  0.4080 -0.1408
   27MOL    C51 8423   2.999   6.878   2.250  0.6540  0.0306 -0.6940
   27MOL    C52 8424   3.128   6.946   2.213  0.1364  0.7503  0.0343
   27MOL    C53 8425   3.221   6.881   2.135 -0.1839 -0.0559  0.4948
   27MOL    C54 8426   3.335   6.956   2.101 -0.2812  0.5884 -0.0429
   27MOL    C55 8427   3.362   7.079   2.156 -0.0862 -0.2077 -0.0327
   27MOL    C56 8428   3.265   7.143   2.234  0.1823 -0.2459 -0.3167
   27MOL    C57 8429   3.150   7.074   2.259  0.1684  0.8517 -0.3669
   27MOL    H58 8430   2.797   6.956   2.242 -0.5663 -0.3843 -0.1346
   27MOL    H59 8431   2.917   7.038   2.147  1.3625 -0.3767 -0.6798
   27MOL    H60 8432   3.014   6.773   2.226 -0.2939 -0.9466  2.7285
   27MOL    H61 8433   3.208   6.779   2.100  0.0195  0.7048 -1.8603
   27MOL    H62 8434   3.405   6.923   2.026 -0.1331  1.7716 -0.4437
   27MOL    H63 8435   3.452   7.132   2.131 -1.1817  2.5445  1.6215
   27MOL    H64 8436   3.274   7.242   2.275 -1.2802 -0.5059  0.6628
   27MOL    H65 8437   3.072   7.118   2.321 -0.8009 -0.1404 -0.8721
   27MOL    C66 8438   2.974   6.888   2.406  0.5044 -0.0603 -0.0963
   27MOL    C67 8439   2.877   6.777   2.467  0.2012 -0.4261  0.0822
   27MOL    C68 8440   2.935   6.637   2.453  0.2717 -0.1266  0.4395
   27MOL    C69 8441   3.069   6.606   2.485  0.2132 -0.3076 -0.5800
   27MOL    C70 8442   3.118   6.475   2.470  0.0998 -0.1467 -0.1032
   27MOL    C71 8443   3.043   6.375   2.401 -0.0124 -0.6862 -0.4315
   27MOL    C72 8444   2.909   6.404   2.373  0.4332  0.2201  0.2702
   27MOL    C73 8445   2.856   6.538   2.388  0.6920 -0.6999  0.3708
   27MOL    H74 8446   2.935   6.988   2.423 -2.4216 -1.0116 -0.9053
   27MOL    H75 8447   3.073   6.876   2.450  1.3881  2.2472 -1.4103
   27MOL    H76 8448   2.790   6.789   2.403 -0.0396  1.0112  0.6740
   27MOL    H77 8449   3.130   6.685   2.524 -0.9887 -0.4853  1.7861
   27MOL    H78 8450   3.217   6.460   2.509  0.7565 -0.3205 -1.7948
   27MOL    H79 8451   3.077   6.274   2.382  0.2340 -0.6509 -0.1764
   27MOL    H80 8452   2.853   6.329   2.319  0.7908  1.4337 -1.8536
   27MOL    H81 8453   2.755   6.555   2.355  0.9429  0.0108 -0.0693
   27MOL    C82 8454   2.835   6.814   2.606 -0.1729  0.2114  1.0272
   27MOL    C83 8455   2.770   6.702   2.689  0.4887  0.7042 -0.3006
   27MOL    C84 8456   2.757   6.745   2.832  0.1196 -0.9146 -0.2794
   27MOL    C85 8457   2.690   6.866   2.868 -0.6871 -0.2224 -0.0216
   27MOL    C86 8458   2.686   6.898   3.008  0.9356 -0.1690 -0.0781
   27MOL    C87 8459   2.731   6.816   3.112  0.4045 -0.5673  0.6584
   27MOL    C88 8460   2.771   6.687   3.075 -0.1673  0.2701 -0.5003
   27MOL    C89 8461   2.790   6.655   2.936 -0.2857 -0.2808 -0.2442
   27MOL    H90 8462   2.769   6.900   2.602 -0.6255 -0.0363  2.8238
   27MOL    H91 8463   2.928   6.842   2.656  0.9168 -0.8818 -0.3338
   27MOL    H92 8464   2.836   6.616   2.693  0.5624  0.8075  0.7573
   27MOL    H93 8465   2.644   6.927   2.792  1.2037  0.3071 -0.7677
   27MOL    H94 8466   2.644   6.995   3.031  1.7360  0.2980 -0.5600
   27MOL    H95 8467   2.713   6.848   3.213  0.6449  0.6771  0.3248
   27MOL    H96 8468   2.779   6.609   3.150 -2.3592  0.0466 -0.4831
   27MOL    H97 8469   2.817   6.554   2.909  0.0773 -0.0137 -0.8923
   27MOL    C98 8470   2.640   6.650   2.637  0.2639  0.0964  0.6471
   27MOL    C99 8471   2.598   6.516   2.696  0.5272  0.3677  0.5904
   27MOL   C100 8472   2.449   6.472   2.659 -0.0778  0.6669 -0.1935
   27MOL   C101 8473   2.406   6.455   2.526 -0.0444 -0.0924  0.2984
   27MOL   C102 8474   2.269   6.437   2.496  0.0760  0.3701  0.0810
   27MOL   C103 8475   2.175   6.432   2.596  0.0215 -0.7789 -0.6159
   27MOL   C104 8476   2.216   6.456   2.728  0.1434  0.2252 -0.5456
   27MOL   C105 8477   2.354   6.466   2.759 -0.0354  0.0820  0.1717
   27MOL   H106 8478   2.632   6.644   2.528 -2.7600 -1.8327  0.9490
   27MOL   H107 8479   2.575   6.734   2.662  0.3751  0.6678 -0.9137
   27MOL   H108 8480   2.602   6.536   2.803  0.9431  0.4237  0.5667
   27MOL   H109 8481   2.480   6.469   2.448  0.2078 -1.8578  0.2111
   27MOL   H110 8482   2.244   6.424   2.392 -2.8282 -1.4780  0.9472
   27MOL   H111 8483   2.073   6.406   2.571 -0.4407  1.2912 -1.0356
   27MOL   H112 8484   2.144   6.453   2.808  0.0399 -1.3705 -0.6781
   27MOL   H113 8485   2.377   6.484   2.863  2.2444  2.8388 -0.7333
   27MOL   C114 8486   2.694   6.393   2.671  0.2704  0.0760  0.1335
   27MOL   C115 8487   2.673   6.257   2.760 -0.2632  0.5823 -0.2533
   27MOL   C116 8488   2.757   6.137   2.723  0.5599 -0.2844 -0.9522
   27MOL   C117 8489   2.704   6.006   2.710  0.1830 -0.9245 -0.1220
   27MOL   C118 8490   2.783   5.890   2.701 -0.2684  0.1389  0.6312
   27MOL   C119 8491   2.922   5.906   2.681  1.0565  0.2845  0.3406
   27MOL   C120 8492   2.978   6.034   2.678  0.6061  0.7132  0.1330
   27MOL   C121 8493   2.899   6.146   2.706 -0.3126 -0.0125  0.2223
   27MOL   H122 8494   2.800   6.414   2.679  0.1631  0.6439  0.0657
   27MOL   H123 8495   2.672   6.365   2.568  0.5951  0.3914 -0.0216
   27MOL   H124 8496   2.572   6.217   2.750  0.4583 -1.8488  1.5726
   27MOL   H125 8497   2.598   5.986   2.720  0.5000 -3.1678 -0.9821
   27MOL   H126 8498   2.745   5.791   2.682  2.8190 -1.2039  1.1968
   27MOL   H127 8499   2.984   5.819   2.666  0.5136  0.3056 -2.2163
   27MOL   H128 8500   3.081   6.052   2.653  1.1639  0.2386  2.0314
   27MOL   H129 8501   2.944   6.244   2.707  1.8470 -0.9592  0.2575
   27MOL   C130 8502   2.692   6.280   2.912 -0.5218  0.5377 -0.1260
   27MOL   C131 8503   2.681   6.156   3.005 -0.2406 -0.4242  0.4276
   27MOL   C132 8504   2.814   6.148   3.093 -0.0607  0.0556  0.2799
   27MOL   C133 8505   2.849   6.260   3.176  0.1734  0.0960  0.4391
   27MOL   C134 8506   2.975   6.266   3.242  0.2164  0.1024 -0.6486
   27MOL   C135 8507   3.049   6.147   3.240  0.7310 -0.0129  0.0490
   27MOL   C136 8508   3.017   6.034   3.156  0.0802 -0.0663 -0.1455
   27MOL   C137 8509   2.900   6.037   3.082 -0.0470 -0.2305 -0.4533
   27MOL   H138 8510   2.630   6.364   2.944  0.3914  0.9829  0.5110
   27MOL   H139 8511   2.788   6.332   2.912 -1.0615  1.5790  0.8774
   27MOL   H140 8512   2.684   6.061   2.951  1.7019 -0.9807  1.4690
   27MOL   H141 8513   2.786   6.346   3.190  1.7828  1.2775  0.5339
   27MOL   H142 8514   3.004   6.340   3.316  1.6307  0.0052 -1.0964
   27MOL   H143 8515   3.138   6.148   3.301  2.2197 -1.4521 -2.0027
   27MOL   H144 8516   3.088   5.954   3.151  1.1209  0.9216 -1.5964
   27MOL   H145 8517   2.888   5.964   3.003 -2.2647 -0.5190  0.1128
   27MOL   C146 8518   2.558   6.150   3.100  0.0598  0.1467  0.5865
   27MOL   C147 8519   2.415   6.150   3.047 -0.1204 -0.0200 -0.3515
   27MOL   C148 8520   2.390   6.049   2.939 -0.0694  0.5871 -0.0154
   27MOL   C149 8521   2.328   6.085   2.814 -0.2723  0.5959 -0.9664
   27MOL   C150 8522   2.300   5.982   2.725 -0.0105  0.3604  0.7497
   27MOL   C151 8523   2.344   5.847   2.752  0.2696 -0.3632 -0.5812
   27MOL   C152 8524   2.398   5.810   2.872 -0.3674  0.4211 -0.3481
   27MOL   C153 8525   2.419   5.914   2.961 -0.2229 -0.5907  0.3504
   27MOL   H154 8526   2.566   6.234   3.168 -2.8477 -0.2233  1.4215
   27MOL   H155 8527   2.562   6.053   3.151  0.2366 -0.9728 -1.4817
   27MOL   H156 8528   2.396   6.245   2.998 -1.7661  0.0317  0.3532
   27MOL   H157 8529   2.304   6.189   2.800 -0.0091  0.5968 -1.4436
   27MOL   H158 8530   2.263   6.018   2.630 -0.7705 -1.1079  0.4760
   27MOL   H159 8531   2.326   5.767   2.682  1.1922 -1.7243  0.7038
   27MOL   H160 8532   2.420   5.708   2.899  1.2085  0.1145 -2.6671
   27MOL   H161 8533   2.464   5.898   3.058  1.0007 -0.0961 -0.1309
   27MOL   C162 8534   2.298   6.116   3.149  0.9177 -0.5022  0.2835
   27MOL   C163 8535   2.292   6.206   3.281 -0.9565  0.3727  0.9478
   27MOL   C164 8536   2.272   6.358   3.239  0.8297 -0.5625  0.0750
   27MOL   C165 8537   2.373   6.449   3.273 -0.2239  0.0543 -0.5549
   27MOL   C166 8538   2.367   6.582   3.233  0.5602 -0.1673 -0.0060
   27MOL   C167 8539   2.246   6.644   3.188 -0.3077  0.1821  0.3457
   27MOL   C168 8540   2.148   6.553   3.160  0.6304 -0.9370  0.3386
   27MOL   C169 8541   2.156   6.413   3.179 -0.0451 -0.3672 -0.1952
   27MOL   H170 8542   2.284   6.013   3.184 -1.0735 -0.1978  0.4701
   27MOL   H171 8543   2.206   6.115   3.090  1.7048  0.6597 -0.9842
   27MOL   H172 8544   2.393   6.199   3.322  0.4895  1.6409 -2.2297
   27MOL   H173 8545   2.467   6.414   3.312  0.2264  2.1096  0.2303
   27MOL   H174 8546   2.444   6.649   3.267  1.9588 -1.4771 -0.5609
   27MOL   H175 8547   2.221   6.748   3.171  1.8530  0.6095 -0.3689
   27MOL   H176 8548   2.059   6.602   3.124  1.0293  0.3966  1.1065
   27MOL   H177 8549   2.066   6.360   3.153 -0.9535  1.5265 -0.9867
   27MOL   C178 8550   2.177   6.158   3.382 -0.6482  0.1525  0.9491
   27MOL   C179 8551   2.160   6.262   3.490  0.1958  0.0851  0.3159
   27MOL   C180 8552   2.039   6.235   3.572  0.4686 -1.1891  0.2629
   27MOL   C181 8553   2.039   6.124   3.660  0.1703 -0.2415  0.1267
   27MOL   C182 8554   1.918   6.097   3.731 -0.4735  0.0884 -0.2216
   27MOL   C183 8555   1.811   6.183   3.732 -0.0515 -0.5158  0.0993
   27MOL   C184 8556   1.813   6.299   3.645 -0.2791  0.5095  0.0261
   27MOL   C185 8557   1.931   6.326   3.574 -0.1114  0.5127 -0.2783
   27MOL   H186 8558   2.196   6.056   3.418 -0.0952 -0.2253 -0.3548
   27MOL   H187 8559   2.080   6.155   3.332 -0.0216 -0.9752 -0.2335
   27MOL   H188 8560   2.143   6.362   3.449 -0.9640 -0.5821 -0.8807
   27MOL   H189 8561   2.125   6.059   3.659  0.9708  0.7995  0.1428
   27MOL   H190 8562   1.899   6.010   3.792 -0.7407  0.2473 -0.0772
   27MOL   H191 8563   1.731   6.168   3.803  0.5349 -2.8089  0.2928
   27MOL   H192 8564   1.732   6.370   3.651 -0.9925 -0.0089 -2.8902
   27MOL   H193 8565   1.933   6.410   3.506 -0.3628  3.0013  2.7176
   27MOL   C194 8566   2.291   6.283   3.578  0.5775 -0.3016  0.1260
   27MOL   C195 8567   2.288   6.412   3.670 -0.2692  1.2832 -0.0901
   27MOL   C196 8568   2.395   6.392   3.783 -0.4013  0.2038 -0.5987
   27MOL   C197 8569   2.362   6.424   3.916  0.3917  0.7439 -0.5096
   27MOL   C198 8570   2.467   6.413   4.015 -0.1074 -0.0514 -0.7179
   27MOL   C199 8571   2.600   6.381   3.974  0.0888 -0.6053  0.5409
   27MOL   C200 8572   2.644   6.362   3.839 -0.0305 -0.2674  0.2321
   27MOL   C201 8573   2.536   6.373   3.749  0.0636  0.8153 -0.2324
   27MOL   H202 8574   2.383   6.276   3.520 -0.3133  0.4763 -1.4220
   27MOL   H203 8575   2.307   6.203   3.650 -0.7429 -0.7922 -0.1116
   27MOL   H204 8576   2.185   6.403   3.705 -0.4246  3.3182 -0.0019
   27MOL   H205 8577   2.263   6.448   3.950 -1.0382 -0.8271 -3.3962
   27MOL   H206 8578   2.451   6.423   4.121  1.5861  0.3978 -0.5041
   27MOL   H207 8579   2.670   6.363   4.055  1.8511  1.1551 -0.5321
   27MOL   H208 8580   2.744   6.331   3.809  0.1056 -0.3052  0.7198
   27MOL   H209 8581   2.560   6.357   3.645 -2.0387  2.1037 -0.9508
   27MOL   C210 8582   2.311   6.545   3.586  0.1819  0.2171  0.5992
   27MOL   C211 8583   2.335   6.679   3.663 -0.2282 -0.6791  0.6822
   27MOL   C212 8584   2.409   6.776   3.569  0.5529 -0.2285  0.1442
   27MOL   C213 8585   2.343   6.828   3.461 -0.3732  0.0513 -0.1456
   27MOL   C214 8586   2.415   6.909   3.370  0.5416 -0.4741 -0.4679
   27MOL   C215 8587   2.546   6.951   3.405 -0.7422  0.0717  0.6536
   27MOL   C216 8588   2.608   6.916   3.527  0.5125  0.1458  0.1709
   27MOL   C217 8589   2.543   6.816   3.599 -0.5415  0.3131  0.2572
   27MOL   H218 8590   2.224   6.564   3.523  0.6487  0.2918 -0.0276
   27MOL   H219 8591   2.397   6.521   3.524 -1.7234  0.5047 -2.2184
   27MOL   H220 8592   2.405   6.659   3.744  0.9518 -0.5051 -0.2638
   27MOL   H221 8593   2.241   6.796   3.446 -1.1495  2.2705  0.1962
   27MOL   H222 8594   2.359   6.941   3.284 -0.3035 -1.5788 -0.3475
   27MOL   H223 8595   2.600   7.010   3.332  2.2418 -0.8474  2.0539
   27MOL   H224 8596   2.707   6.946   3.557  0.9512 -0.2935 -0.8292
   27MOL   H225 8597   2.592   6.761   3.678 -1.3655 -0.1107  0.4852
   27MOL   C226 8598   2.210   6.742   3.727  0.2422  0.5859 -0.0041
   27MOL   C227 8599   2.239   6.874   3.808  0.5795 -0.0622 -0.6809
   27MOL   C228 8600   2.111   6.963   3.804 -0.0274  0.1015  0.2466
   27MOL   C229 8601   1.987   6.921   3.860 -0.3097  0.0971 -0.9974
   27MOL   C230 8602   1.884   7.015   3.872 -0.2380 -0.1505  0.2244
   27MOL   C231 8603   1.896   7.138   3.812 -0.3797  0.1659 -0.5198
   27MOL   C232 8604   2.012   7.178   3.749  0.3456 -0.2599  0.3037
   27MOL   C233 8605   2.120   7.089   3.743  0.2360 -0.2413 -0.1763
   27MOL   H234 8606   2.151   6.665   3.778  2.3772 -0.3048  1.1947
   27MOL   H235 8607   2.142   6.766   3.645 -1.0230 -0.9486  0.5569
   27MOL   H236 8608   2.316   6.926   3.751 -0.1017  0.7314 -0.8795
   27MOL   H237 8609   1.966   6.819   3.887  0.5254  0.2790  0.3647
   27MOL   H238 8610   1.787   6.984   3.910  0.8665 -2.7544  1.0357
   27MOL   H239 8611   1.806   7.198   3.812 -1.6978 -1.7753 -0.5188
   27MOL   H240 8612   2.019   7.276   3.703 -2.0783 -0.5709 -0.7974
   27MOL   H241 8613   2.209   7.122   3.693 -0.4832 -1.5771 -2.3927
   27MOL   C242 8614   2.305   6.841   3.942  0.4864  0.9312 -0.4760
   27MOL   C243 8615   2.279   6.943   4.057 -0.1705 -0.5855  0.8445
   27MOL   C244 8616   2.306   6.891   4.203  0.5112 -0.4544  0.5672
   27MOL   C245 8617   2.398   6.788   4.231  0.4674 -0.0388  0.4932
   27MOL   C246 8618   2.412   6.739   4.361  0.3618 -0.2864  0.0882
   27MOL   C247 8619   2.344   6.801   4.468 -0.5038 -0.5995  0.2168
   27MOL   C248 8620   2.259   6.906   4.436 -0.2270 -0.2330 -0.2152
   27MOL   C249 8621   2.232   6.948   4.304 -0.3035 -0.0757  0.5936
   27MOL   H250 8622   2.410   6.825   3.917  0.5898 -1.5978  1.4692
   27MOL   H251 8623   2.262   6.745   3.971  1.2385  0.6700 -0.2198
   27MOL   H252 8624   2.174   6.969   4.039 -0.3007 -0.7019  1.4235
   27MOL   H253 8625   2.455   6.739   4.154 -1.0528  2.2794 -2.2110
   27MOL   H254 8626   2.467   6.647   4.373 -1.4832 -1.4175  0.0977
   27MOL   H255 8627   2.350   6.749   4.563  0.9861  0.4940  0.7321
   27MOL   H256 8628   2.215   6.967   4.514  2.1283 -0.1586  1.0854
   27MOL   H257 8629   2.156   7.023   4.291 -0.1396 -0.0978 -0.5628
   27MOL   C258 8630   2.369   7.067   4.029 -0.2484  0.0251  0.4059
   27MOL   C259 8631   2.341   7.194   4.107 -0.2441  0.1731 -0.1661
   27MOL   C260 8632   2.448   7.302   4.075  0.5374 -0.4941 -0.1302
   27MOL   C261 8633   2.480   7.331   3.944  0.4291  0.0139  0.4709
   27MOL   C262 8634   2.566   7.437   3.910  0.4235 -0.4104  0.6641
   27MOL   C263 8635   2.624   7.503   4.014  0.1436 -0.9433 -0.3126
   27MOL   C264 8636   2.594   7.473   4.150 -0.2055 -0.2201  0.7054
   27MOL   C265 8637   2.496   7.377   4.186 -0.1986 -0.9873 -0.2690
   27MOL   H266 8638   2.363   7.097   3.925  1.3627 -0.4051  0.1766
   27MOL   H267 8639   2.469   7.040   4.062 -1.0699 -0.8759  2.2516
   27MOL   H268 8640   2.352   7.165   4.211 -1.1588  1.0372  0.1800
   27MOL   H269 8641   2.436   7.277   3.862  0.4209 -0.8622  1.0401
   27MOL   H270 8642   2.594   7.463   3.809 -0.0617 -0.5679  0.4881
   27MOL   H271 8643   2.689   7.585   3.987 -0.8660 -0.2994 -0.8060
   27MOL   H272 8644   2.650   7.530   4.223 -0.0706 -1.5370  1.6291
   27MOL   H273 8645   2.468   7.352   4.288  1.9625 -0.5205  0.4685
   27MOL   C274 8646   2.197   7.241   4.084 -0.4809  0.6287 -0.2004
   27MOL   C275 8647   2.162   7.383   4.125 -0.1787  0.5473  0.0524
   27MOL   C276 8648   2.036   7.426   4.049 -0.0281  0.0697 -0.6578
   27MOL   C277 8649   2.058   7.530   3.960  0.3591  0.1071  0.5381
   27MOL   C278 8650   1.950   7.578   3.877 -0.1970 -0.3976 -0.3886
   27MOL   C279 8651   1.820   7.531   3.897  0.2689 -0.0935 -0.3440
   27MOL   C280 8652   1.798   7.434   3.993  0.5084 -0.2659 -0.1388
   27MOL   C281 8653   1.907   7.371   4.063  0.4371  0.4369  0.1343
   27MOL   H282 8654   2.133   7.160   4.121  0.6536 -1.1227 -2.0059
   27MOL   H283 8655   2.181   7.245   3.977  0.7839  1.8681 -0.3538
   27MOL   H284 8656   2.244   7.451   4.101 -1.4803  2.2012  0.2669
   27MOL   H285 8657   2.157   7.570   3.945  0.8377 -0.2695  2.4769
   27MOL   H286 8658   1.967   7.657   3.804  0.0088 -0.4042 -0.3487
   27MOL   H287 8659   1.737   7.568   3.839 -0.5755  2.0572  2.1615
   27MOL   H288 8660   1.696   7.406   4.014  0.0532  1.8051  0.5997
   27MOL   H289 8661   1.878   7.287   4.124  1.1125  0.6427  0.7494
   27MOL   C290 8662   2.133   7.398   4.279  0.6944  0.1542  0.0874
   27MOL   C291 8663   2.096   7.537   4.324  0.5511 -0.1382 -0.2913
   27MOL   C292 8664   2.036   7.541   4.456 -0.3997 -0.2528 -0.2707
   27MOL   C293 8665   1.919   7.611   4.488  0.2797  0.6257 -0.3383
   27MOL   C294 8666   1.855   7.601   4.615 -0.0016  0.1664 -0.0707
   27MOL   C295 8667   1.918   7.535   4.719 -0.1176  0.3982  0.6298
   27MOL   C296 8668   2.037   7.461   4.694  0.2374 -0.2430  0.5012
   27MOL   C297 8669   2.089   7.455   4.565 -0.6671 -0.3928 -0.2657
   27MOL   H298 8670   2.216   7.368   4.342  0.1401 -1.8105 -0.0701
   27MOL   H299 8671   2.052   7.331   4.309 -0.0504  1.5955  1.3506
   27MOL   H300 8672   2.019   7.568   4.253  0.7358 -0.2351 -0.5361
   27MOL   H301 8673   1.877   7.661   4.402 -0.6018 -1.6062 -1.2599
   27MOL   H302 8674   1.759   7.647   4.636 -0.5882 -0.3240 -1.5778
   27MOL   H303 8675   1.879   7.535   4.820 -1.3632  1.6626  0.1531
   27MOL   H304 8676   2.074   7.389   4.766  2.1415 -1.4698 -1.6353
   27MOL   H305 8677   2.178   7.395   4.547 -0.2394 -0.2498  1.3286
   27MOL   C306 8678   2.213   7.635   4.325  0.3425  0.1604  0.1556
   27MOL   C307 8679   2.169   7.784   4.325 -0.5203  0.1627 -0.1158
   27MOL   C308 8680   2.103   7.824   4.194  0.5419 -0.3445 -0.1281
   27MOL   C309 8681   1.969   7.864   4.187  0.6767 -0.5023 -0.0715
   27MOL   C310 8682   1.917   7.921   4.065  0.5002  0.2440 -0.0336
   27MOL   C311 8683   1.996   7.931   3.947 -0.0873  0.0149  1.1486
   27MOL   C312 8684   2.125   7.867   3.954 -0.1082  0.0035  0.3910
   27MOL   C313 8685   2.180   7.820   4.075  0.0940 -0.2177  0.3471
   27MOL   H314 8686   2.279   7.616   4.241  0.7131  1.9469  0.0224
   27MOL   H315 8687   2.284   7.611   4.405  0.2546  0.3444  0.2914
   27MOL   H316 8688   2.263   7.835   4.349  0.0613 -1.7074  1.8254
   27MOL   H317 8689   1.906   7.869   4.274 -1.0261 -0.7767 -1.2674
   27MOL   H318 8690   1.821   7.971   4.056  0.5318  0.3315  0.1368
   27MOL   H319 8691   1.972   7.982   3.855 -2.2551 -0.2235  1.5734
   27MOL   H320 8692   2.197   7.850   3.876 -1.4443  0.3320 -0.9496
   27MOL   H321 8693   2.281   7.784   4.074 -0.1359 -1.0020  3.1141
   27MOL   H322 8694   2.113   7.805   4.416  0.6895  0.6883  0.5180
   28MOL     C1 8695   6.199   3.087   4.331  0.2000 -0.1882 -0.0148
   28MOL     C2 8696   6.080   3.087   4.430  0.0398  0.1584 -0.4403
   28MOL     C3 8697   5.976   2.990   4.380  0.6593 -0.6227  0.1486
   28MOL     C4 8698   5.841   3.026   4.383  0.2704 -0.4190 -0.3712
   28MOL     C5 8699   5.741   2.930   4.351 -0.3001 -0.3011  0.1745
   28MOL     C6 8700   5.773   2.799   4.319 -0.4427 -0.8691 -0.4262
   28MOL     C7 8701   5.904   2.761   4.315 -1.1421 -0.3564 -0.4786
   28MOL     C8 8702   6.003   2.858   4.347 -0.2250 -0.2542  0.4338
   28MOL     H9 8703   6.253   2.993   4.332  1.2724  0.4173  1.0172
   28MOL    H10 8704   6.159   3.105   4.232 -0.7763  0.8699  0.5516
   28MOL    H11 8705   6.033   3.185   4.433  1.2196  0.7227 -0.5095
   28MOL    H12 8706   5.799   3.122   4.407  1.4652  0.0127 -0.0031
   28MOL    H13 8707   5.634   2.945   4.356 -0.4600 -1.2128 -0.3419
   28MOL    H14 8708   5.699   2.721   4.325  0.1690 -1.4255 -0.1033
   28MOL    H15 8709   5.938   2.659   4.309 -1.5746 -0.5965  1.0840
   28MOL    H16 8710   6.103   2.818   4.346 -0.4457 -0.8218 -1.6612
   28MOL    H17 8711   6.269   3.165   4.364 -1.2635  1.1043  0.1085
   28MOL    C18 8712   6.117   3.046   4.577 -0.5515 -0.1404 -0.2296
   28MOL    C19 8713   6.027   3.087   4.689  0.4308 -0.5199  0.0797
   28MOL    C20 8714   6.058   3.009   4.818 -0.1060  0.1061  0.8827
   28MOL    C21 8715   5.972   2.916   4.882 -0.7770  0.0606 -0.2425
   28MOL    C22 8716   6.009   2.855   5.010 -0.5055 -0.3120 -0.3185
   28MOL    C23 8717   6.134   2.883   5.063  0.1045  0.3759  0.4341
   28MOL    C24 8718   6.224   2.976   5.002  0.7846  1.0598  0.6146
   28MOL    C25 8719   6.182   3.037   4.884  0.5408 -0.5307  0.2629
   28MOL    H26 8720   6.209   3.098   4.605  0.1099 -1.3879 -0.0730
   28MOL    H27 8721   6.143   2.941   4.587  1.3917  0.2101 -1.3094
   28MOL    H28 8722   5.921   3.063   4.675  0.3563 -0.2881  0.2370
   28MOL    H29 8723   5.873   2.895   4.844 -2.0445 -0.8076  3.3063
   28MOL    H30 8724   5.935   2.787   5.050  0.6338  0.0206  2.5164
   28MOL    H31 8725   6.165   2.833   5.154 -2.2679 -2.9397 -0.5028
   28MOL    H32 8726   6.315   3.018   5.042  0.3143  1.1733  1.5962
   28MOL    H33 8727   6.238   3.112   4.830 -1.0652 -0.4475 -1.3650
   28MOL    C34 8728   6.012   3.238   4.699 -0.2786  0.2161 -0.2954
   28MOL    C35 8729   5.916   3.302   4.800  0.7818 -0.5211 -0.3327
   28MOL    C36 8730   5.976   3.320   4.940  0.1682  0.4175  0.7568
   28MOL    C37 8731   6.067   3.420   4.975  0.5617 -0.6584  0.1343
   28MOL    C38 8732   6.124   3.432   5.104  0.0851 -0.9287 -0.5169
   28MOL    C39 8733   6.095   3.335   5.204  0.8316  0.1787  0.4918
   28MOL    C40 8734   6.007   3.231   5.172  0.8124  0.3025  0.1612
   28MOL    C41 8735   5.949   3.224   5.044  0.8393  0.0945 -0.4105
   28MOL    H42 8736   5.984   3.279   4.602 -0.8780  1.2696  0.3112
   28MOL    H43 8737   6.113   3.277   4.715  0.1337 -0.9933  0.0955
   28MOL    H44 8738   5.836   3.229   4.817  1.1120 -0.6426  0.7425
   28MOL    H45 8739   6.080   3.506   4.910 -0.3210 -0.5283  0.1203
   28MOL    H46 8740   6.185   3.519   5.123  0.5376 -1.3582  0.0190
   28MOL    H47 8741   6.142   3.335   5.302 -2.0341  1.7463  1.9385
   28MOL    H48 8742   5.972   3.147   5.232 -1.8714  0.4477 -1.1244
   28MOL    H49 8743   5.887   3.139   5.019 -0.5254  1.4434 -1.7444
   28MOL    C50 8744   5.857   3.441   4.752  0.1520  0.7540  0.4925
   28MOL    C51 8745   5.750   3.434   4.638 -0.3416  0.0073  0.2904
   28MOL    C52 8746   5.630   3.349   4.675  0.4785  0.5355  0.2090
   28MOL    C53 8747   5.567   3.362   4.802  0.0100  0.4628 -0.5285
   28MOL    C54 8748   5.460   3.276   4.829  0.3532  0.1192 -0.8250
   28MOL    C55 8749   5.420   3.168   4.744  0.0254  0.3769  0.1796
   28MOL    C56 8750   5.479   3.163   4.616 -0.2735 -0.3079 -0.1282
   28MOL    C57 8751   5.582   3.251   4.583  0.2847  0.4162 -0.3303
   28MOL    H58 8752   5.941   3.501   4.719  0.5199  0.2483  0.5045
   28MOL    H59 8753   5.813   3.496   4.836  3.6856 -1.0512  3.6856
   28MOL    H60 8754   5.801   3.372   4.564 -0.0953  0.1670  0.3267
   28MOL    H61 8755   5.601   3.437   4.873  2.2106 -2.2092  1.3348
   28MOL    H62 8756   5.410   3.303   4.920  0.5042 -0.3604 -0.5999
   28MOL    H63 8757   5.333   3.106   4.763  0.5172  0.2448  2.0034
   28MOL    H64 8758   5.454   3.092   4.537  0.0396 -0.6186  0.0512
   28MOL    H65 8759   5.613   3.231   4.482  0.4419 -1.4733  0.0797
   28MOL    C66 8760   5.721   3.568   4.574  0.1072  0.0371  0.1206
   28MOL    C67 8761   5.826   3.683   4.559  0.6683  0.2004 -0.6845
   28MOL    C68 8762   5.960   3.634   4.502 -0.6741 -0.2517 -0.1314
   28MOL    C69 8763   5.963   3.550   4.386  0.1128 -0.4677 -0.2126
   28MOL    C70 8764   6.084   3.493   4.340 -0.1495 -0.2251  0.3042
   28MOL    C71 8765   6.203   3.515   4.415 -0.0447 -0.7255  0.7612
   28MOL    C72 8766   6.197   3.596   4.525 -0.0147  0.3002  0.4126
   28MOL    C73 8767   6.081   3.663   4.565 -0.5503  0.3564 -0.4186
   28MOL    H74 8768   5.633   3.614   4.620  1.7345  2.6861  0.6873
   28MOL    H75 8769   5.680   3.554   4.474 -1.0423  1.3427  0.4001
   28MOL    H76 8770   5.864   3.714   4.656  1.3010 -1.7958 -0.2820
   28MOL    H77 8771   5.871   3.531   4.332 -1.6934  3.0756  1.4363
   28MOL    H78 8772   6.081   3.433   4.250  0.8658 -1.6418  1.2134
   28MOL    H79 8773   6.299   3.475   4.389 -0.4927 -1.3399  0.0251
   28MOL    H80 8774   6.286   3.604   4.586  1.6420  0.6265 -1.9616
   28MOL    H81 8775   6.088   3.727   4.652  2.1190 -0.7931  0.2520
   28MOL    C82 8776   5.770   3.804   4.491  0.6188 -0.7045  0.3981
   28MOL    C83 8777   5.873   3.918   4.491  0.4073  0.1488  0.6048
   28MOL    C84 8778   5.937   3.962   4.359  0.1552  0.0605  0.0620
   28MOL    C85 8779   6.079   3.970   4.342 -0.4733 -0.3071 -0.0414
   28MOL    C86 8780   6.138   3.989   4.219  0.1037  0.1256  0.2691
   28MOL    C87 8781   6.053   4.002   4.109  0.1424  0.2632  0.6691
   28MOL    C88 8782   5.913   4.004   4.121 -0.7731  0.1202 -1.0455
   28MOL    C89 8783   5.854   3.979   4.247  0.0906 -0.2809 -0.5306
   28MOL    H90 8784   5.681   3.828   4.548  0.7641 -2.7107  1.5264
   28MOL    H91 8785   5.726   3.778   4.395  3.1086  2.5349 -1.7248
   28MOL    H92 8786   5.966   3.891   4.540  0.8270  2.6513  1.2380
   28MOL    H93 8787   6.144   3.950   4.426  0.7534 -1.2465 -1.1881
   28MOL    H94 8788   6.246   3.995   4.213  0.1058 -0.4147 -0.2833
   28MOL    H95 8789   6.093   4.013   4.010 -1.1423  1.8171  0.2933
   28MOL    H96 8790   5.840   4.016   4.043  0.1686  0.4469 -1.8871
   28MOL    H97 8791   5.747   3.984   4.260  0.0853 -0.6373 -0.4420
   28MOL    C98 8792   5.810   4.051   4.550  0.1260 -0.4370 -0.0200
   28MOL    C99 8793   5.776   4.038   4.700  0.4392 -0.5424 -0.2426
   28MOL   C100 8794   5.887   3.979   4.774 -0.2751  0.2632  0.2933
   28MOL   C101 8795   5.869   3.865   4.856 -0.0340 -0.2606  0.0150
   28MOL   C102 8796   5.973   3.802   4.928 -0.1570 -0.6931  0.0469
   28MOL   C103 8797   6.106   3.864   4.919  0.9249  0.0295  1.0679
   28MOL   C104 8798   6.126   3.980   4.850  0.1533  0.1799  0.1503
   28MOL   C105 8799   6.016   4.039   4.778  0.1278  0.1807  0.0651
   28MOL   H106 8800   5.716   4.075   4.499 -0.0062 -0.9874 -0.0328
   28MOL   H107 8801   5.876   4.137   4.534 -3.5022  2.2739 -1.2173
   28MOL   H108 8802   5.693   3.968   4.713 -0.1312  0.5011  2.0704
   28MOL   H109 8803   5.774   3.814   4.848 -0.3995  0.3482  0.3931
   28MOL   H110 8804   5.961   3.707   4.978  3.0046 -1.5298 -0.6388
   28MOL   H111 8805   6.181   3.810   4.974  1.1248 -0.7702  0.0308
   28MOL   H112 8806   6.230   4.012   4.851  0.9011 -2.1958  1.4085
   28MOL   H113 8807   6.029   4.128   4.720  1.3892  0.3054  0.5294
   28MOL   C114 8808   5.727   4.175   4.758 -0.5142 -0.0457  0.1594
   28MOL   C115 8809   5.660   4.188   4.900  0.6593 -0.0404 -0.4666
   28MOL   C116 8810   5.673   4.337   4.933 -0.1735  0.6503  0.2492
   28MOL   C117 8811   5.578   4.433   4.897  0.0360 -0.5321  0.0227
   28MOL   C118 8812   5.598   4.568   4.931  0.4717 -0.1355 -0.0227
   28MOL   C119 8813   5.720   4.609   4.993  0.1951  0.2527  0.4954
   28MOL   C120 8814   5.808   4.512   5.036  0.7963  0.6073  0.4231
   28MOL   C121 8815   5.786   4.375   5.008 -0.2211 -0.0610  0.7086
   28MOL   H122 8816   5.648   4.202   4.688 -1.2974  0.3362  1.1750
   28MOL   H123 8817   5.804   4.250   4.741  0.9683 -1.5942 -0.0843
   28MOL   H124 8818   5.717   4.133   4.975  0.5019  2.6456  1.6824
   28MOL   H125 8819   5.487   4.406   4.845 -0.4785 -1.0386  1.1629
   28MOL   H126 8820   5.526   4.647   4.914  0.0623  0.1474  2.7768
   28MOL   H127 8821   5.736   4.712   5.023 -0.0499  0.4892 -0.1729
   28MOL   H128 8822   5.900   4.549   5.079  2.0097 -1.2296 -0.4812
   28MOL   H129 8823   5.845   4.295   5.049  0.3210 -0.4309 -0.7539
   28MOL   C130 8824   5.512   4.146   4.903 -0.0146  0.2890 -0.3056
   28MOL   C131 8825   5.491   3.993   4.927 -0.2827 -0.4105 -0.2911
   28MOL   C132 8826   5.554   3.944   5.056  0.2836  0.1311 -0.0514
   28MOL   C133 8827   5.571   4.024   5.171 -0.3913  0.2311 -0.2132
   28MOL   C134 8828   5.624   3.960   5.288 -0.4989  0.1883  0.8850
   28MOL   C135 8829   5.648   3.822   5.291  0.3775 -0.3037 -0.0858
   28MOL   C136 8830   5.622   3.741   5.181 -0.4905  0.2274 -0.1221
   28MOL   C137 8831   5.575   3.808   5.063  0.2648  0.0080 -0.1945
   28MOL   H138 8832   5.460   4.171   4.811 -0.9428  0.4937  0.2595
   28MOL   H139 8833   5.463   4.187   4.992 -0.1912  0.5058 -0.5044
   28MOL   H140 8834   5.523   3.930   4.844 -0.0560 -0.6991  0.0086
   28MOL   H141 8835   5.559   4.131   5.182  0.2345  0.4319 -1.3692
   28MOL   H142 8836   5.667   4.014   5.371 -0.2408  1.1956  0.1216
   28MOL   H143 8837   5.694   3.786   5.382 -1.2199 -2.3623 -0.0653
   28MOL   H144 8838   5.627   3.636   5.207  2.1393  0.1683 -0.7506
   28MOL   H145 8839   5.565   3.752   4.970 -2.8257  0.2576 -0.0452
   28MOL   C146 8840   5.339   3.966   4.941  0.9435  0.8157  0.4483
   28MOL   C147 8841   5.255   3.998   4.821  0.2706 -0.6529  0.3964
   28MOL   C148 8842   5.288   3.910   4.702 -0.3662  0.6407  0.8825
   28MOL   C149 8843   5.261   3.773   4.721  0.0794  0.0264  0.4123
   28MOL   C150 8844   5.293   3.683   4.621  0.3147 -0.0309  0.1538
   28MOL   C151 8845   5.360   3.724   4.503  0.2054  0.3377  0.3083
   28MOL   C152 8846   5.398   3.858   4.495 -0.0862  0.6444  0.3351
   28MOL   C153 8847   5.359   3.955   4.590 -0.1850  0.3966 -0.8301
   28MOL   H154 8848   5.307   4.028   5.025  0.5234  1.0781  0.0910
   28MOL   H155 8849   5.311   3.867   4.977  1.0930  0.6690  0.1609
   28MOL   H156 8850   5.278   4.101   4.792 -0.5608 -1.0346 -1.7047
   28MOL   H157 8851   5.209   3.740   4.810  0.3107  3.4628  1.9157
   28MOL   H158 8852   5.270   3.577   4.627  0.3787 -0.1428 -1.3462
   28MOL   H159 8853   5.384   3.665   4.416 -1.7728 -0.1001  0.0310
   28MOL   H160 8854   5.449   3.892   4.406  0.9992 -0.4182  0.5428
   28MOL   H161 8855   5.387   4.059   4.586 -0.8068  0.8832  4.5326
   28MOL   C162 8856   5.107   4.003   4.853 -0.3677 -0.2746  0.1772
   28MOL   C163 8857   5.032   4.109   4.771 -0.1451  0.6959 -0.1839
   28MOL   C164 8858   5.034   4.096   4.615  0.0179 -0.1086 -0.0310
   28MOL   C165 8859   4.995   3.966   4.560  0.3920  0.5843  0.3794
   28MOL   C166 8860   5.002   3.940   4.423  0.3041 -0.2341  0.7136
   28MOL   C167 8861   5.047   4.046   4.335  0.1209  0.2383 -0.5911
   28MOL   C168 8862   5.083   4.169   4.389 -0.0052  0.2843  0.1970
   28MOL   C169 8863   5.067   4.194   4.525 -0.2808 -0.1650  0.1072
   28MOL   H170 8864   5.093   4.026   4.959  0.7173 -1.8155  0.6719
   28MOL   H171 8865   5.057   3.908   4.834 -1.2958  0.7185 -2.6801
   28MOL   H172 8866   5.096   4.197   4.778  0.5157  0.0283  2.2636
   28MOL   H173 8867   4.978   3.883   4.627  2.6561 -0.1201  0.1384
   28MOL   H174 8868   4.966   3.849   4.378  0.5299 -0.6131  1.2949
   28MOL   H175 8869   5.045   4.026   4.229  1.9776  2.5092 -1.0861
   28MOL   H176 8870   5.111   4.246   4.317  2.1011 -1.0247 -0.4346
   28MOL   H177 8871   5.095   4.288   4.571 -1.3429  0.9419 -1.4483
   28MOL   C178 8872   4.901   4.167   4.826  0.4123  0.4125 -0.0464
   28MOL   C179 8873   4.912   4.247   4.958  0.1899 -0.6100  0.3881
   28MOL   C180 8874   5.017   4.354   4.945 -0.5595 -0.5860 -0.0830
   28MOL   C181 8875   5.013   4.461   4.849 -0.1520  0.4701 -0.0122
   28MOL   C182 8876   5.120   4.553   4.842  0.1811 -0.3212  0.0719
   28MOL   C183 8877   5.225   4.543   4.933 -0.2041 -0.3541  0.3640
   28MOL   C184 8878   5.232   4.434   5.027  0.3420 -0.2177  0.0209
   28MOL   C185 8879   5.129   4.341   5.033 -0.9539  0.2717  0.4002
   28MOL   H186 8880   4.834   4.082   4.838  0.5867 -0.0599 -2.2901
   28MOL   H187 8881   4.860   4.234   4.750  1.6917  2.0406  0.6560
   28MOL   H188 8882   4.943   4.172   5.032  0.3245 -0.6570  0.2849
   28MOL   H189 8883   4.931   4.457   4.780 -0.0202 -1.1540 -0.0987
   28MOL   H190 8884   5.111   4.626   4.762 -0.2413 -0.8745 -0.3883
   28MOL   H191 8885   5.311   4.608   4.932  0.0366 -0.6711 -0.8224
   28MOL   H192 8886   5.322   4.426   5.087  0.0836 -1.2527  0.2649
   28MOL   H193 8887   5.141   4.260   5.104  0.0299  0.0242 -0.0409
   28MOL   C194 8888   4.775   4.311   5.007 -0.1241 -0.2363 -0.1964
   28MOL   C195 8889   4.670   4.206   5.040 -0.2442 -0.2144 -0.3698
   28MOL   C196 8890   4.703   4.107   5.147  0.3980 -0.8324  0.1189
   28MOL   C197 8891   4.668   3.973   5.134  0.1776 -0.1761  0.7921
   28MOL   C198 8892   4.682   3.889   5.247 -0.2604 -0.0830  0.0951
   28MOL   C199 8893   4.736   3.942   5.367  0.2882 -0.1301 -0.4740
   28MOL   C200 8894   4.774   4.074   5.379  0.7310  0.7257  0.2330
   28MOL   C201 8895   4.753   4.159   5.271  0.5278  0.1467  0.2558
   28MOL   H202 8896   4.738   4.382   4.932 -0.7128  2.6441  2.7121
   28MOL   H203 8897   4.791   4.377   5.093  0.4644 -2.5822  1.5245
   28MOL   H204 8898   4.661   4.149   4.948 -3.1113 -0.1066 -0.1827
   28MOL   H205 8899   4.614   3.939   5.047 -1.0343 -0.6987  1.7436
   28MOL   H206 8900   4.645   3.787   5.248  0.4998 -0.3721 -0.4840
   28MOL   H207 8901   4.746   3.885   5.458 -2.2861 -0.3694 -0.2834
   28MOL   H208 8902   4.804   4.114   5.475 -0.6882 -0.6903  1.2957
   28MOL   H209 8903   4.773   4.264   5.288  0.5694  0.3547 -0.9839
   28MOL   C210 8904   4.532   4.267   5.075 -0.2927 -0.3440 -0.2069
   28MOL   C211 8905   4.449   4.330   4.964 -0.2873 -0.4760  0.5697
   28MOL   C212 8906   4.449   4.238   4.846  0.3527 -0.3484  0.3202
   28MOL   C213 8907   4.501   4.280   4.723 -0.1425 -0.3371 -0.2909
   28MOL   C214 8908   4.512   4.190   4.616 -0.8152 -0.7296 -0.5262
   28MOL   C215 8909   4.446   4.071   4.620  0.7188  0.2125 -0.4176
   28MOL   C216 8910   4.388   4.031   4.742  0.6939  0.2264  0.6296
   28MOL   C217 8911   4.391   4.110   4.853 -0.4210 -0.0134 -0.4105
   28MOL   H218 8912   4.538   4.345   5.152  1.5473  0.8088 -1.4878
   28MOL   H219 8913   4.466   4.189   5.113  0.1048 -0.7785 -0.4060
   28MOL   H220 8914   4.504   4.421   4.940 -1.2368  0.4451  1.8866
   28MOL   H221 8915   4.545   4.379   4.720  0.1121 -0.3573  1.9201
   28MOL   H222 8916   4.553   4.225   4.522  1.1728 -1.0684  0.1774
   28MOL   H223 8917   4.438   4.003   4.537  0.3191  1.3052 -1.3012
   28MOL   H224 8918   4.338   3.936   4.746  0.8278  0.0547 -1.3871
   28MOL   H225 8919   4.336   4.084   4.942  1.1075  3.3071  1.6126
   28MOL   C226 8920   4.307   4.368   5.010  0.3740  0.4674 -0.5082
   28MOL   C227 8921   4.217   4.427   4.895  0.6914  0.7112 -0.4474
   28MOL   C228 8922   4.068   4.432   4.939  0.3469 -1.0767  0.8301
   28MOL   C229 8923   4.030   4.516   5.048 -0.2674  0.3891 -0.2300
   28MOL   C230 8924   3.898   4.510   5.101 -0.6816 -0.5949 -0.1846
   28MOL   C231 8925   3.805   4.420   5.044 -0.5135  0.3103  0.7568
   28MOL   C232 8926   3.846   4.329   4.929 -0.2839  0.1503 -0.0622
   28MOL   C233 8927   3.977   4.344   4.875 -0.2271 -0.5921  0.3088
   28MOL   H234 8928   4.328   4.432   5.095 -4.3884  1.3629  0.1213
   28MOL   H235 8929   4.253   4.279   5.040 -1.0952  1.0222 -1.4542
   28MOL   H236 8930   4.220   4.348   4.820 -0.0300 -1.4089  1.6876
   28MOL   H237 8931   4.101   4.584   5.093 -0.0743 -0.4486  0.7701
   28MOL   H238 8932   3.866   4.567   5.186 -0.8313  0.6547 -1.0655
   28MOL   H239 8933   3.705   4.408   5.085 -0.9328 -0.1867 -0.3951
   28MOL   H240 8934   3.781   4.253   4.888 -1.3240  1.0845 -0.1861
   28MOL   H241 8935   4.003   4.286   4.788 -0.2101  0.2026 -0.2184
   28MOL   C242 8936   4.266   4.558   4.828 -0.1279 -0.1710  0.2465
   28MOL   C243 8937   4.193   4.589   4.690  0.2757  0.1492 -0.2109
   28MOL   C244 8938   4.163   4.738   4.686 -0.1140 -0.6523 -0.1542
   28MOL   C245 8939   4.058   4.778   4.775 -0.0942 -0.1226 -0.2108
   28MOL   C246 8940   4.017   4.909   4.786 -0.3260  0.0941 -0.0848
   28MOL   C247 8941   4.061   5.001   4.689 -0.1948  0.6266  0.1979
   28MOL   C248 8942   4.170   4.967   4.606  0.1615  0.0363 -0.2134
   28MOL   C249 8943   4.214   4.834   4.593  0.2701 -0.6390 -0.1737
   28MOL   H250 8944   4.368   4.539   4.796  0.1268  1.0872  0.3031
   28MOL   H251 8945   4.275   4.645   4.893 -0.4697  0.9890 -1.2110
   28MOL   H252 8946   4.096   4.540   4.692 -0.3925  1.4481  1.4105
   28MOL   H253 8947   4.012   4.719   4.853  0.2869 -0.0295  0.0833
   28MOL   H254 8948   3.949   4.940   4.863  0.7687  0.2777  0.8235
   28MOL   H255 8949   4.020   5.101   4.691  0.0779  0.7848 -1.8596
   28MOL   H256 8950   4.217   5.039   4.540 -1.7617  1.6959  0.1867
   28MOL   H257 8951   4.283   4.812   4.513 -1.7247 -1.0320 -1.8387
   28MOL   C258 8952   4.266   4.543   4.562  0.1252 -0.5163  0.0415
   28MOL   C259 8953   4.184   4.547   4.426  0.5323 -0.4949  0.2883
   28MOL   C260 8954   4.273   4.555   4.297 -0.8042 -0.1705 -0.6037
   28MOL   C261 8955   4.258   4.663   4.203  0.1670  0.4281 -0.4738
   28MOL   C262 8956   4.336   4.668   4.086  0.2746 -0.1064 -0.2714
   28MOL   C263 8957   4.456   4.588   4.087  0.2590  0.5069 -0.0548
   28MOL   C264 8958   4.483   4.486   4.178  0.1944 -0.8210  0.3205
   28MOL   C265 8959   4.384   4.466   4.278 -0.4526 -0.2759 -0.1684
   28MOL   H266 8960   4.308   4.444   4.583  2.2457  0.0720 -1.2185
   28MOL   H267 8961   4.354   4.604   4.543  0.3532 -1.5322 -2.4862
   28MOL   H268 8962   4.138   4.646   4.428 -0.7730 -1.1030  1.5778
   28MOL   H269 8963   4.187   4.740   4.227 -2.0437 -1.7164  0.1034
   28MOL   H270 8964   4.331   4.759   4.029 -3.1592  1.4595  2.3374
   28MOL   H271 8965   4.527   4.606   4.008  0.1308  1.6237  0.0758
   28MOL   H272 8966   4.564   4.418   4.155  1.1875  0.6053 -0.4622
   28MOL   H273 8967   4.402   4.389   4.352 -0.1378  0.6681  0.7443
   28MOL   C274 8968   4.062   4.451   4.421  0.1689  0.0518  0.1625
   28MOL   C275 8969   4.089   4.304   4.379 -0.3063  0.5639  0.2381
   28MOL   C276 8970   4.008   4.213   4.483 -0.4597 -0.2627  0.0291
   28MOL   C277 8971   3.865   4.212   4.488  0.1421 -0.0498 -0.0686
   28MOL   C278 8972   3.796   4.146   4.594  0.7851  0.3934  0.1402
   28MOL   C279 8973   3.863   4.059   4.678  0.2310 -0.2476  0.4754
   28MOL   C280 8974   4.001   4.045   4.668  0.2370 -0.2102  0.1493
   28MOL   C281 8975   4.074   4.127   4.576  0.1966 -0.5654 -0.1539
   28MOL   H282 8976   3.981   4.498   4.365  1.7283  1.6212 -0.8182
   28MOL   H283 8977   4.019   4.457   4.521  0.8807 -1.4350  0.5689
   28MOL   H284 8978   4.196   4.285   4.392 -0.4609 -0.0454  0.6780
   28MOL   H285 8979   3.814   4.286   4.428 -1.6539 -1.8032 -0.7830
   28MOL   H286 8980   3.690   4.162   4.612  1.1211  0.9669  1.6807
   28MOL   H287 8981   3.817   3.998   4.755  1.6332 -0.5481  1.0943
   28MOL   H288 8982   4.052   3.978   4.735  2.2725 -1.4425 -2.5343
   28MOL   H289 8983   4.182   4.121   4.574  0.2110 -0.4586  0.3773
   28MOL   C290 8984   4.047   4.282   4.228 -0.0069  0.0094 -0.4505
   28MOL   C291 8985   4.053   4.135   4.179 -0.0631  0.1578 -0.3774
   28MOL   C292 8986   3.981   4.114   4.047  0.9166  0.3705 -0.2203
   28MOL   C293 8987   3.885   4.021   4.030  0.7400 -0.4923  0.2560
   28MOL   C294 8988   3.809   4.012   3.910 -0.2941 -0.4745  0.6297
   28MOL   C295 8989   3.833   4.100   3.800 -0.7095 -0.4872  0.1353
   28MOL   C296 8990   3.930   4.199   3.824 -0.3142 -0.4342 -0.0901
   28MOL   C297 8991   4.009   4.198   3.940 -0.3690 -0.1195  0.7589
   28MOL   H298 8992   4.098   4.342   4.153  1.7447  0.2742  0.9411
   28MOL   H299 8993   3.941   4.308   4.230 -0.4012 -1.4727 -0.8365
   28MOL   H300 8994   3.987   4.085   4.249  1.6617  1.0350  1.9602
   28MOL   H301 8995   3.858   3.950   4.108 -2.4008 -0.1105 -0.4166
   28MOL   H302 8996   3.735   3.933   3.901  0.4378 -1.1807  0.7421
   28MOL   H303 8997   3.786   4.089   3.703 -0.9624 -0.8212  0.2935
   28MOL   H304 8998   3.966   4.263   3.744 -0.9646 -0.8896 -0.7578
   28MOL   H305 8999   4.089   4.269   3.954  0.1209 -0.4771 -0.1808
   28MOL   C306 9000   4.197   4.066   4.186 -0.6536  0.4680 -0.3401
   28MOL   C307 9001   4.313   4.127   4.103 -0.6192  0.0471 -0.2231
   28MOL   C308 9002   4.446   4.066   4.139  0.2904 -0.4453  0.2314
   28MOL   C309 9003   4.526   4.010   4.035  0.0056  0.7114  0.0425
   28MOL   C310 9004   4.657   3.964   4.066  0.7755  0.7371 -0.3455
   28MOL   C311 9005   4.720   3.983   4.192 -0.1592 -0.8127  0.9221
   28MOL   C312 9006   4.634   4.030   4.288 -0.1558  0.4355 -1.0172
   28MOL   C313 9007   4.496   4.070   4.267 -0.2281  0.3813 -0.3568
   28MOL   H314 9008   4.182   3.962   4.157 -0.1604  0.9184 -2.2898
   28MOL   H315 9009   4.227   4.042   4.288  0.2436 -3.1779 -1.4076
   28MOL   H316 9010   4.327   4.233   4.121 -0.4622  0.2341 -1.4411
   28MOL   H317 9011   4.491   3.998   3.934 -0.0435 -1.1079  0.2663
   28MOL   H318 9012   4.720   3.924   3.988 -0.5973  1.1133 -1.6792
   28MOL   H319 9013   4.825   3.956   4.198 -0.4294 -2.0271  0.3940
   28MOL   H320 9014   4.688   4.046   4.380 -1.4185 -3.4412  0.4987
   28MOL   H321 9015   4.437   4.113   4.347 -1.1594  0.4989 -1.1000
   28MOL   H322 9016   4.290   4.116   3.998 -0.5913 -0.3272 -0.1927
   29MOL     C1 9017   2.749   5.208   7.292  0.4618  0.1120 -0.5980
   29MOL     C2 9018   2.650   5.140   7.388  0.0660 -0.2694 -0.1730
   29MOL     C3 9019   2.572   5.028   7.315 -0.0587  0.5606  0.2539
   29MOL     C4 9020   2.590   4.886   7.342  0.2500  0.0776 -0.0212
   29MOL     C5 9021   2.515   4.794   7.269  0.0031 -0.5670 -0.6508
   29MOL     C6 9022   2.418   4.834   7.176 -0.2465 -0.4983 -0.0014
   29MOL     C7 9023   2.400   4.969   7.144  0.1925 -0.1215 -0.0870
   29MOL     C8 9024   2.483   5.062   7.212  0.6316  0.1767  0.2424
   29MOL     H9 9025   2.820   5.139   7.246  1.7568  1.2169 -0.2857
   29MOL    H10 9026   2.687   5.251   7.213  0.0849  0.8350  0.0883
   29MOL    H11 9027   2.575   5.214   7.414  1.2956  0.1073  2.4075
   29MOL    H12 9028   2.656   4.850   7.420  2.0467  0.0554 -1.5317
   29MOL    H13 9029   2.534   4.690   7.294 -1.9243 -0.2568  2.3510
   29MOL    H14 9030   2.347   4.764   7.134 -1.9707 -0.0393  2.0755
   29MOL    H15 9031   2.316   4.996   7.082  1.4656  0.4479 -1.5862
   29MOL    H16 9032   2.465   5.167   7.195 -1.7746 -0.1883  0.4563
   29MOL    H17 9033   2.804   5.293   7.332  0.5516 -1.7082  3.3911
   29MOL    C18 9034   2.718   5.092   7.514 -0.1711 -0.2411 -0.2609
   29MOL    C19 9035   2.636   5.032   7.631  0.3916 -0.3645  0.0825
   29MOL    C20 9036   2.723   4.976   7.742  0.7185  0.0754  0.8255
   29MOL    C21 9037   2.714   4.842   7.778  0.1651 -0.1873 -0.0925
   29MOL    C22 9038   2.789   4.791   7.891 -0.4077 -0.2636 -0.0232
   29MOL    C23 9039   2.877   4.876   7.953 -0.5439  0.3068  1.0958
   29MOL    C24 9040   2.888   5.012   7.916  0.0569  0.1549  0.2241
   29MOL    C25 9041   2.811   5.064   7.813 -0.5979  0.9812  0.0350
   29MOL    H26 9042   2.747   5.188   7.557  0.1393 -0.4958  0.0978
   29MOL    H27 9043   2.809   5.037   7.492 -0.0405  0.1713 -0.7512
   29MOL    H28 9044   2.572   4.951   7.595  0.5150  0.1689 -1.3876
   29MOL    H29 9045   2.654   4.776   7.718 -2.1010  1.1526  0.6659
   29MOL    H30 9046   2.793   4.684   7.908  0.5879 -0.2453 -0.1128
   29MOL    H31 9047   2.947   4.840   8.027 -0.9625 -0.0807  1.3129
   29MOL    H32 9048   2.966   5.075   7.954  0.7064  0.6837 -1.9395
   29MOL    H33 9049   2.815   5.169   7.792 -0.6324  0.9201 -0.2769
   29MOL    C34 9050   2.530   5.128   7.697  0.4649  0.6724 -0.0239
   29MOL    C35 9051   2.389   5.117   7.643 -0.0362  0.6531  0.4509
   29MOL    C36 9052   2.328   4.976   7.646  0.1474 -0.2252 -0.0632
   29MOL    C37 9053   2.249   4.923   7.537 -0.4440 -0.1229  0.6211
   29MOL    C38 9054   2.177   4.804   7.554 -0.2327 -0.2880  0.4865
   29MOL    C39 9055   2.186   4.727   7.672 -0.2291 -0.7825 -0.0754
   29MOL    C40 9056   2.269   4.773   7.778 -0.4408 -0.4281 -0.7596
   29MOL    C41 9057   2.339   4.897   7.764 -0.2597  0.5435  0.6510
   29MOL    H42 9058   2.564   5.230   7.682 -0.3402  0.6656 -2.0158
   29MOL    H43 9059   2.533   5.117   7.806  0.4910 -1.4363 -0.2143
   29MOL    H44 9060   2.394   5.134   7.535 -1.4556  0.6562  0.3650
   29MOL    H45 9061   2.221   4.972   7.445 -1.2360  0.1309  0.9896
   29MOL    H46 9062   2.128   4.761   7.468 -0.4546 -0.0951  0.5163
   29MOL    H47 9063   2.143   4.628   7.671  0.6998 -1.1983  0.6516
   29MOL    H48 9064   2.267   4.715   7.868  2.6616  0.2910 -0.1648
   29MOL    H49 9065   2.397   4.940   7.844  2.6699  1.3412 -1.8171
   29MOL    C50 9066   2.299   5.224   7.708  0.2209  0.1381 -0.2397
   29MOL    C51 9067   2.330   5.373   7.666  0.1738 -0.7760 -0.2517
   29MOL    C52 9068   2.335   5.386   7.516  0.3061 -0.6536  0.1722
   29MOL    C53 9069   2.215   5.365   7.433  0.2469 -0.6910  0.7370
   29MOL    C54 9070   2.221   5.384   7.293 -0.0798  0.3030  0.5098
   29MOL    C55 9071   2.341   5.436   7.240  0.1706 -0.2790  0.6712
   29MOL    C56 9072   2.454   5.466   7.323 -0.4773 -0.2352 -0.2072
   29MOL    C57 9073   2.453   5.436   7.459 -0.2775  0.7845 -0.5480
   29MOL    H58 9074   2.292   5.208   7.816  2.1338 -0.0292 -0.1376
   29MOL    H59 9075   2.199   5.210   7.667 -0.0751 -0.6012  0.7116
   29MOL    H60 9076   2.422   5.421   7.697 -0.9861 -0.0025  2.1037
   29MOL    H61 9077   2.131   5.314   7.477  0.6288 -1.7373  0.2628
   29MOL    H62 9078   2.133   5.360   7.235  0.7887 -1.0074 -0.2924
   29MOL    H63 9079   2.357   5.485   7.145  0.5817 -0.6616  0.5426
   29MOL    H64 9080   2.534   5.520   7.274 -0.3694 -1.5440 -1.5186
   29MOL    H65 9081   2.528   5.476   7.525 -1.2245 -1.5688  2.0621
   29MOL    C66 9082   2.216   5.461   7.722 -0.2750 -0.4186 -0.1837
   29MOL    C67 9083   2.191   5.473   7.882  0.0847  0.4928 -0.1795
   29MOL    C68 9084   2.318   5.473   7.959 -0.4718 -0.9171 -1.1640
   29MOL    C69 9085   2.431   5.541   7.914  0.6901  0.1607  0.2485
   29MOL    C70 9086   2.545   5.547   7.996 -0.3914 -0.2190  0.6759
   29MOL    C71 9087   2.544   5.496   0.012  0.3404  0.2167  0.6506
   29MOL    C72 9088   2.431   5.428   0.059 -0.0403  0.1034 -0.5166
   29MOL    C73 9089   2.314   5.423   8.093 -0.0138  0.1787  0.6564
   29MOL    H74 9090   2.118   5.436   7.680 -1.6643 -1.2720  3.3758
   29MOL    H75 9091   2.241   5.562   7.689  0.8281 -0.8407 -0.6459
   29MOL    H76 9092   2.126   5.388   7.904  0.5503  0.3982  0.8623
   29MOL    H77 9093   2.419   5.594   7.821 -2.3452  1.2857  1.2044
   29MOL    H78 9094   2.624   5.612   7.962 -2.9021  1.6024 -1.8969
   29MOL    H79 9095   2.635   5.510   0.069  0.7913  0.7189 -0.1870
   29MOL    H80 9096   2.421   5.393   0.160  0.4284  1.3618 -0.0220
   29MOL    H81 9097   2.221   5.381   0.016 -1.1622  2.2078  0.1463
   29MOL    C82 9098   2.124   5.603   7.902 -0.3414 -0.2317 -0.6162
   29MOL    C83 9099   1.969   5.592   7.877 -0.8875 -0.1407 -0.1517
   29MOL    C84 9100   1.898   5.524   7.998  0.3383 -0.0785  0.1738
   29MOL    C85 9101   1.857   5.390   7.990  0.6405 -0.4551  0.6956
   29MOL    C86 9102   1.793   5.323   8.098 -0.6777  0.6397 -0.1572
   29MOL    C87 9103   1.759   5.395   0.102 -0.4199 -0.1818  0.1363
   29MOL    C88 9104   1.801   5.531   0.112  0.1308 -0.2166 -0.9388
   29MOL    C89 9105   1.871   5.594   0.001  0.0758  0.4697  0.1004
   29MOL    H90 9106   2.170   5.681   7.840  0.3987 -1.3775 -1.5354
   29MOL    H91 9107   2.140   5.646   8.001 -1.7311 -2.4485  0.5992
   29MOL    H92 9108   1.940   5.535   7.788 -0.6452  0.6033 -0.7178
   29MOL    H93 9109   1.875   5.339   7.897 -0.2827  0.8799 -0.2463
   29MOL    H94 9110   1.768   5.220   8.079  0.0505  0.7211 -1.6807
   29MOL    H95 9111   1.708   5.348   0.185 -0.6554  0.3997  0.3198
   29MOL    H96 9112   1.771   5.576   0.205  0.8866  1.1299 -1.3416
   29MOL    H97 9113   1.898   5.699   0.006  1.2056  0.1245  1.8907
   29MOL    C98 9114   1.914   5.731   7.836 -0.3651  0.3034  0.2605
   29MOL    C99 9115   1.948   5.774   7.683  0.2838  0.4362  0.0252
   29MOL   C100 9116   1.884   5.682   7.579 -0.2045  0.3489  0.5816
   29MOL   C101 9117   1.959   5.613   7.486  0.6733 -0.0859 -0.1096
   29MOL   C102 9118   1.896   5.535   7.387  0.5583 -0.2908  0.3873
   29MOL   C103 9119   1.754   5.541   7.374 -0.5997  0.1505 -0.6708
   29MOL   C104 9120   1.678   5.615   7.474 -0.0709  0.7805  0.2762
   29MOL   C105 9121   1.741   5.693   7.567 -0.3643 -0.8251 -0.6845
   29MOL   H106 9122   1.942   5.800   7.915 -1.7447  0.6028  0.5111
   29MOL   H107 9123   1.805   5.733   7.840 -0.4040 -2.7912  1.8919
   29MOL   H108 9124   2.054   5.760   7.663 -0.0537 -0.3324 -1.2821
   29MOL   H109 9125   2.066   5.598   7.489  0.7130  0.3825  1.6944
   29MOL   H110 9126   1.953   5.483   7.311 -2.4950 -2.1811 -0.6675
   29MOL   H111 9127   1.694   5.487   7.302 -2.8976  3.6598 -1.5216
   29MOL   H112 9128   1.570   5.622   7.465 -0.1436  0.5136  0.9513
   29MOL   H113 9129   1.684   5.764   7.625 -1.6182 -1.7839 -0.7281
   29MOL   C114 9130   1.920   5.925   7.650 -0.2291  0.5093  0.4831
   29MOL   C115 9131   2.011   6.019   7.717  0.3373  0.0044  0.5087
   29MOL   C116 9132   2.151   6.004   7.648 -0.1009  0.1647 -0.6589
   29MOL   C117 9133   2.158   6.042   7.514 -0.0950  0.0927  0.1535
   29MOL   C118 9134   2.278   6.023   7.442  0.9981  0.3714  0.5468
   29MOL   C119 9135   2.391   5.963   7.503  0.5786  0.1445 -0.2734
   29MOL   C120 9136   2.381   5.932   7.634  0.4472 -0.0207 -0.4130
   29MOL   C121 9137   2.264   5.956   7.711 -0.1239  0.7103  0.5532
   29MOL   H122 9138   1.817   5.940   7.682 -1.1220 -0.1423 -1.9799
   29MOL   H123 9139   1.915   5.953   7.545 -0.1013 -1.6252 -0.1063
   29MOL   H124 9140   2.006   5.974   7.816 -1.5748 -0.1775  0.3501
   29MOL   H125 9141   2.078   6.085   7.456  1.6358  4.8287  1.0874
   29MOL   H126 9142   2.280   6.054   7.339  0.6373 -0.2158  0.3595
   29MOL   H127 9143   2.484   5.944   7.452  2.0128  2.4195  1.4131
   29MOL   H128 9144   2.474   5.902   7.680  0.4170 -0.5643 -0.7072
   29MOL   H129 9145   2.246   5.918   7.811  1.3665 -0.6771  0.3089
   29MOL   C130 9146   1.968   6.172   7.717 -0.6245  0.1419  0.0551
   29MOL   C131 9147   1.844   6.200   7.799 -0.3740 -0.0125  0.2236
   29MOL   C132 9148   1.819   6.119   7.924 -0.1577  0.3733  0.1834
   29MOL   C133 9149   1.909   6.129   8.033 -0.1772 -0.8186 -0.5542
   29MOL   C134 9150   1.896   6.042   0.030 -0.4265 -0.0255 -0.1711
   29MOL   C135 9151   1.784   5.959   0.032  0.0854  0.8479 -0.4046
   29MOL   C136 9152   1.686   5.952   8.048  0.3797 -0.2436  0.0102
   29MOL   C137 9153   1.712   6.025   7.925 -0.1269 -0.4633  0.8977
   29MOL   H138 9154   1.945   6.210   7.617 -0.0264 -0.0565 -0.1645
   29MOL   H139 9155   2.056   6.227   7.752 -0.3545  0.0186 -0.4178
   29MOL   H140 9156   1.758   6.167   7.740 -0.1500  1.6396 -1.0565
   29MOL   H141 9157   1.994   6.195   8.025 -0.1064 -0.9278 -0.7115
   29MOL   H142 9158   1.970   6.054   0.109 -1.2158  3.0717  0.1542
   29MOL   H143 9159   1.762   5.885   0.107 -2.5136  0.1645 -1.7846
   29MOL   H144 9160   1.611   5.878   8.067  1.0047 -0.7111  0.6582
   29MOL   H145 9161   1.644   6.019   7.842 -0.5881 -1.0174  1.3122
   29MOL   C146 9162   1.828   6.353   7.835  0.0392 -0.3479  0.3557
   29MOL   C147 9163   1.801   6.446   7.716 -0.6851  0.3894 -0.4619
   29MOL   C148 9164   1.683   6.397   7.637  0.1090 -0.2226  0.0252
   29MOL   C149 9165   1.549   6.434   7.672 -0.5162 -0.1877 -0.1212
   29MOL   C150 9166   1.446   6.406   7.595 -0.0300 -0.2439  0.4715
   29MOL   C151 9167   1.469   6.361   7.467 -0.4011 -0.4123 -0.0677
   29MOL   C152 9168   1.594   6.304   7.431  0.1310  0.7337  0.1093
   29MOL   C153 9169   1.705   6.328   7.516  0.0570  0.5011  0.7703
   29MOL   H154 9170   1.917   6.384   7.889 -0.5556 -0.3687  1.3685
   29MOL   H155 9171   1.749   6.364   7.910  1.3744 -0.6988  1.8390
   29MOL   H156 9172   1.883   6.433   7.645  0.9853 -1.1665  1.6878
   29MOL   H157 9173   1.533   6.488   7.764  0.5802  0.7705 -0.4814
   29MOL   H158 9174   1.349   6.436   7.631  0.4952 -0.0994  1.8054
   29MOL   H159 9175   1.385   6.347   7.401  0.4043  0.1435 -1.2267
   29MOL   H160 9176   1.612   6.261   7.334  0.8565  0.4768  0.3552
   29MOL   H161 9177   1.810   6.308   7.503  0.1093  2.0124 -1.3992
   29MOL   C162 9178   1.788   6.593   7.757  0.4495  0.5632  0.6966
   29MOL   C163 9179   1.916   6.664   7.806 -0.5323  0.2742  0.2700
   29MOL   C164 9180   2.031   6.653   7.706  0.4603  0.5008  0.7078
   29MOL   C165 9181   2.160   6.612   7.746 -0.2552  0.7321 -0.7086
   29MOL   C166 9182   2.255   6.593   7.648  0.4199  0.9354 -0.3803
   29MOL   C167 9183   2.237   6.631   7.515 -0.8372  0.6002  0.0007
   29MOL   C168 9184   2.109   6.670   7.472 -0.2162  0.3061  0.3801
   29MOL   C169 9185   2.006   6.690   7.568  0.2288 -0.3988 -0.8515
   29MOL   H170 9186   1.707   6.603   7.829 -2.3145 -0.0442 -2.1808
   29MOL   H171 9187   1.743   6.645   7.672  1.2523  2.7679  1.5979
   29MOL   H172 9188   1.951   6.605   7.890 -0.0658  2.4028  1.6118
   29MOL   H173 9189   2.180   6.577   7.846  2.1056 -1.6905 -1.9786
   29MOL   H174 9190   2.349   6.551   7.682 -1.1038 -0.9049  1.6884
   29MOL   H175 9191   2.321   6.613   7.449 -1.4122 -2.4517  0.0539
   29MOL   H176 9192   2.099   6.693   7.367 -0.1427  2.9732  0.9140
   29MOL   H177 9193   1.906   6.716   7.535  0.3042  0.1142 -0.6842
   29MOL   C178 9194   1.895   6.812   7.843 -0.9055 -0.3415 -0.4960
   29MOL   C179 9195   1.808   6.840   7.969  0.1057  0.0813 -0.0204
   29MOL   C180 9196   1.848   6.763   8.085  0.6512 -0.1062  0.5317
   29MOL   C181 9197   1.980   6.768   0.021 -0.6251  0.9976  1.0334
   29MOL   C182 9198   2.021   6.685   0.127  0.7558 -0.0090 -0.1486
   29MOL   C183 9199   1.925   6.603   0.180  0.1961  0.3181  0.4220
   29MOL   C184 9200   1.792   6.603   0.141 -0.0694  0.4016 -0.3872
   29MOL   C185 9201   1.749   6.681   0.036  0.0496  0.1375  0.5279
   29MOL   H186 9202   1.851   6.862   7.757 -0.7499  0.3005 -0.2052
   29MOL   H187 9203   1.996   6.854   7.851 -0.7055 -0.7011 -1.0754
   29MOL   H188 9204   1.706   6.814   7.938 -0.2974  2.0373 -0.4410
   29MOL   H189 9205   2.052   6.836   8.095  0.3492  1.1665  2.9923
   29MOL   H190 9206   2.116   6.686   0.178 -0.0304  1.1127  1.3381
   29MOL   H191 9207   1.954   6.535   0.258 -1.9628 -1.2526 -0.1073
   29MOL   H192 9208   1.719   6.535   0.182  1.5795 -0.9632  0.3220
   29MOL   H193 9209   1.647   6.678   8.114  0.1292  1.0380  0.2408
   29MOL   C194 9210   1.803   6.985   8.002  0.1599 -0.6397  0.1067
   29MOL   C195 9211   1.678   7.039   8.079  0.1073  0.0028  0.0815
   29MOL   C196 9212   1.706   7.177   0.014 -0.3108 -0.5199  0.9103
   29MOL   C197 9213   1.730   7.193   0.154 -0.4347 -0.1870  0.6333
   29MOL   C198 9214   1.765   7.321   0.204 -0.3435  0.4467 -0.2071
   29MOL   C199 9215   1.778   7.422   0.113 -0.0378  0.7668  0.3749
   29MOL   C200 9216   1.781   7.406   8.089 -0.4258 -0.9347  0.3961
   29MOL   C201 9217   1.733   7.283   8.035  0.0261  0.2932 -0.0494
   29MOL   H202 9218   1.808   7.051   7.915 -0.0616 -0.2197  0.4115
   29MOL   H203 9219   1.890   7.010   8.063  1.0466  0.4592 -1.5780
   29MOL   H204 9220   1.666   6.985   0.058  0.1362  0.2369  0.2187
   29MOL   H205 9221   1.713   7.110   0.222  1.1884 -0.1228  1.1247
   29MOL   H206 9222   1.771   7.341   0.310 -1.0051  0.3936 -0.1546
   29MOL   H207 9223   1.812   7.513   0.160  2.7408 -0.6612  1.2729
   29MOL   H208 9224   1.803   7.490   8.025  0.2765 -0.5544  1.1304
   29MOL   H209 9225   1.722   7.281   7.928 -0.2474  2.5552 -0.0844
   29MOL   C210 9226   1.549   7.034   7.990  0.1242 -0.2043  0.4652
   29MOL   C211 9227   1.434   7.132   8.021 -0.3031 -0.4508 -0.3894
   29MOL   C212 9228   1.339   7.158   7.909  0.1127 -0.5222  0.2427
   29MOL   C213 9229   1.285   7.049   7.835  0.5895  0.9830 -0.1248
   29MOL   C214 9230   1.191   7.071   7.736  0.6485  0.0015 -0.4831
   29MOL   C215 9231   1.153   7.199   7.704 -0.2346  0.6452 -0.0183
   29MOL   C216 9232   1.208   7.307   7.771  0.2270 -0.2560  0.4400
   29MOL   C217 9233   1.305   7.294   7.874 -0.7404  0.6788  0.1189
   29MOL   H218 9234   1.504   6.936   7.993 -0.4324  0.0546  0.6581
   29MOL   H219 9235   1.580   7.050   7.887  0.2059  0.4142  0.5772
   29MOL   H220 9236   1.476   7.232   8.031 -1.4487  0.3143 -2.9395
   29MOL   H221 9237   1.302   6.945   7.859 -3.1238 -0.0326 -1.5794
   29MOL   H222 9238   1.149   6.991   7.676  1.1049  0.0895 -0.9211
   29MOL   H223 9239   1.080   7.210   7.625 -0.9391  0.3698  0.6000
   29MOL   H224 9240   1.178   7.407   7.743  4.1039  0.7931 -0.2982
   29MOL   H225 9241   1.337   7.383   7.926  3.3931 -0.3020 -0.5589
   29MOL   C226 9242   1.371   7.084   0.045  0.5852  0.2266 -0.5367
   29MOL   C227 9243   1.283   7.193   0.123  0.9618  0.1163 -0.6197
   29MOL   C228 9244   1.210   7.128   0.240 -0.0910 -0.5693  0.7551
   29MOL   C229 9245   1.071   7.127   0.244 -0.9350 -0.2806 -0.0716
   29MOL   C230 9246   1.001   7.056   0.346 -0.3734 -0.3616 -0.5641
   29MOL   C231 9247   1.072   6.986   0.448  0.3822 -0.4251 -0.3557
   29MOL   C232 9248   1.213   6.993   0.444 -1.2018  0.3357 -0.6309
   29MOL   C233 9249   1.285   7.058   0.344  0.0757 -0.0327  0.1711
   29MOL   H234 9250   1.444   7.042   0.114  1.1265 -1.0036 -1.8097
   29MOL   H235 9251   1.302   7.004   0.015 -1.2951  1.8003 -0.4953
   29MOL   H236 9252   1.204   7.237   0.062  1.1347  1.4628  0.1152
   29MOL   H237 9253   1.016   7.187   0.173 -1.7907 -1.2549 -0.2415
   29MOL   H238 9254   0.893   7.066   0.347 -0.4747 -1.4240  0.1323
   29MOL   H239 9255   1.029   6.927   0.528  1.3527  0.3993  0.7960
   29MOL   H240 9256   1.271   6.933   0.513 -1.4434 -0.8564 -1.4339
   29MOL   H241 9257   1.392   7.047   0.330 -0.0302 -2.3391  1.0969
   29MOL   C242 9258   1.382   7.309   0.160  0.2253 -0.3425  0.0888
   29MOL   C243 9259   1.324   7.405   0.265 -0.1229 -0.1930  0.4129
   29MOL   C244 9260   1.432   7.451   0.357 -0.2369 -0.3290 -0.8893
   29MOL   C245 9261   1.422   7.435   0.502 -0.5211 -0.0836  0.2827
   29MOL   C246 9262   1.515   7.494   0.588 -0.0023  0.5274 -0.0328
   29MOL   C247 9263   1.622   7.568   0.536 -0.4465 -0.6847  0.4043
   29MOL   C248 9264   1.639   7.571   0.399 -0.5043 -0.4517 -0.3037
   29MOL   C249 9265   1.543   7.529   0.305 -0.2767  0.8241 -0.0295
   29MOL   H250 9266   1.407   7.354   0.064 -1.6818 -1.1203 -0.8053
   29MOL   H251 9267   1.472   7.267   0.205 -1.2444 -1.1474  2.3705
   29MOL   H252 9268   1.261   7.346   0.331 -0.7203  0.1482  0.1509
   29MOL   H253 9269   1.347   7.373   0.548 -0.5228  0.4153  0.9572
   29MOL   H254 9270   1.504   7.491   0.695 -2.6003 -0.0037 -0.2929
   29MOL   H255 9271   1.683   7.625   0.604  0.0272  1.0485 -1.4260
   29MOL   H256 9272   1.710   7.644   0.361 -1.2390  0.4275 -0.0157
   29MOL   H257 9273   1.548   7.547   0.199 -0.1314  2.7821  0.2788
   29MOL   C258 9274   1.245   7.524   0.203  0.2011  0.1695 -0.1764
   29MOL   C259 9275   1.154   7.590   0.316  0.5639  0.3856  0.2558
   29MOL   C260 9276   1.149   7.740   0.294  0.2641 -0.0500  0.0843
   29MOL   C261 9277   1.049   7.803   0.215 -0.5620  0.1366 -0.5279
   29MOL   C262 9278   1.036   7.938   0.215 -0.1037 -0.4943  0.2321
   29MOL   C263 9279   1.124   8.015   0.293 -0.2213  0.6132 -0.1768
   29MOL   C264 9280   1.231   7.955   0.358  0.0873 -0.4573 -0.3351
   29MOL   C265 9281   1.247   7.819   0.355 -0.8846 -0.5470  0.0300
   29MOL   H266 9282   1.190   7.493   0.114  3.0718 -0.0672 -1.9575
   29MOL   H267 9283   1.311   7.603   0.165 -0.2427  0.8232  0.4114
   29MOL   H268 9284   1.201   7.580   0.414  0.7985  2.1943  0.3514
   29MOL   H269 9285   0.972   7.748   0.163 -0.9411  2.2382 -2.2344
   29MOL   H270 9286   0.964   7.997   0.160  0.3678 -1.2494 -1.2164
   29MOL   H271 9287   1.111   0.007   0.301 -0.6174  0.4228  1.7224
   29MOL   H272 9288   1.291   8.020   0.420  0.0240 -0.7832  0.0687
   29MOL   H273 9289   1.325   7.776   0.416  0.9037  1.5648 -0.7184
   29MOL   C274 9290   1.014   7.530   0.335 -0.1798 -0.2815  0.6998
   29MOL   C275 9291   0.936   7.576   0.462  0.0294  0.1304 -0.2694
   29MOL   C276 9292   0.792   7.536   0.455 -0.0738  0.0522  0.0689
   29MOL   C277 9293   0.747   7.406   0.494 -0.4767  0.0331  0.4933
   29MOL   C278 9294   0.614   7.369   0.480 -0.2726  0.0722  0.4426
   29MOL   C279 9295   0.526   7.448   0.406 -0.5163 -0.5932  1.1068
   29MOL   C280 9296   0.570   7.572   0.368  0.1192  0.4360  0.7474
   29MOL   C281 9297   0.701   7.617   0.385 -0.6271  0.4080 -0.5599
   29MOL   H282 9298   1.016   7.423   0.318 -0.1245 -0.4290  1.6159
   29MOL   H283 9299   0.956   7.565   0.249  1.2089  1.8434  0.5724
   29MOL   H284 9300   0.924   7.684   0.454 -1.9964 -0.1492 -1.1823
   29MOL   H285 9301   0.820   7.337   0.536 -1.2849 -0.2937  1.3759
   29MOL   H286 9302   0.573   7.273   0.508 -0.3943  0.0014  0.0208
   29MOL   H287 9303   0.420   7.431   0.391 -0.2249 -0.9022 -0.5763
   29MOL   H288 9304   0.503   7.625   0.301  0.2400 -0.8370 -0.4091
   29MOL   H289 9305   0.743   7.701   0.333  1.5971 -0.3468 -0.0508
   29MOL   C290 9306   0.998   7.555   0.606 -0.1638 -0.0563  0.4025
   29MOL   C291 9307   0.931   7.628   0.724  0.0189  0.2982  0.1004
   29MOL   C292 9308   0.910   7.529   0.838  0.1737 -0.1874 -0.1906
   29MOL   C293 9309   0.773   7.520   0.883 -0.1737 -0.4315 -0.5503
   29MOL   C294 9310   0.738   7.436   0.990 -0.1461 -1.1777 -0.2593
   29MOL   C295 9311   0.842   7.378   1.067  0.0610  0.8084 -0.6395
   29MOL   C296 9312   0.983   7.400   1.034  0.0146  0.8584  0.3116
   29MOL   C297 9313   1.010   7.469   0.918  0.7271 -0.4691 -0.1162
   29MOL   H298 9314   1.104   7.580   0.603 -0.4312  1.5631  2.6966
   29MOL   H299 9315   1.008   7.449   0.630  0.7178 -0.2370 -0.7315
   29MOL   H300 9316   0.835   7.654   0.678  0.7140  2.2975 -0.2477
   29MOL   H301 9317   0.694   7.574   0.833 -0.2116 -0.8614 -0.9586
   29MOL   H302 9318   0.634   7.427   1.017  0.0140  0.7871  1.0844
   29MOL   H303 9319   0.823   7.323   1.158  0.6183  0.5132 -0.6995
   29MOL   H304 9320   1.061   7.355   1.092  0.0040 -0.5513 -0.7326
   29MOL   H305 9321   1.116   7.482   0.900  0.8963 -2.6265 -0.7775
   29MOL   C306 9322   1.021   7.736   0.770  0.0210  0.2997  0.3008
   29MOL   C307 9323   1.031   7.849   0.666 -0.1629 -0.7217 -0.3247
   29MOL   C308 9324   1.156   7.938   0.696  0.5732 -1.3297  0.0066
   29MOL   C309 9325   1.290   7.888   0.691  0.1014 -0.2848 -0.4083
   29MOL   C310 9326   1.405   7.969   0.682  0.7691 -0.1477  0.1269
   29MOL   C311 9327   1.385   8.110   0.691  0.4984  0.0516  0.2466
   29MOL   C312 9328   1.253   0.050   0.700  0.6234 -0.7449 -0.0109
   29MOL   C313 9329   1.137   8.083   0.708 -0.5330 -0.2228 -1.4850
   29MOL   H314 9330   1.118   7.695   0.798  1.1435  1.9100 -1.1270
   29MOL   H315 9331   0.987   7.776   0.866 -1.5815  0.9497 -0.5190
   29MOL   H316 9332   0.952   7.925   0.662  2.9217  2.5712 -2.0484
   29MOL   H317 9333   1.294   7.780   0.681  0.5499 -0.2173 -1.0072
   29MOL   H318 9334   1.506   7.931   0.676 -0.2904 -3.0501 -0.0542
   29MOL   H319 9335   1.470   0.062   0.696  0.8561 -0.4502  0.9962
   29MOL   H320 9336   1.241   0.157   0.698 -1.2805 -0.9419  0.2499
   29MOL   H321 9337   1.039   0.013   0.716 -0.4056  0.0305 -1.3239
   29MOL   H322 9338   1.040   7.819   0.561 -0.7858 -0.3369 -0.4964
   30MOL     C1 9339   2.510   2.887   4.946 -0.5319 -0.1223  0.6273
   30MOL     C2 9340   2.504   3.042   4.913 -0.2610  0.2032 -0.2202
   30MOL     C3 9341   2.372   3.079   4.843 -0.5770  0.0578  0.4731
   30MOL     C4 9342   2.249   3.055   4.908 -1.0258 -0.5459 -0.0703
   30MOL     C5 9343   2.128   3.064   4.836 -0.1722 -0.1319 -0.8436
   30MOL     C6 9344   2.128   3.119   4.708  0.1265 -0.3052  0.7566
   30MOL     C7 9345   2.250   3.155   4.645  0.2890  0.0817 -0.2756
   30MOL     C8 9346   2.371   3.129   4.713  0.7932  0.5688 -0.0285
   30MOL     H9 9347   2.513   2.828   4.854  1.7209  0.6046  0.1825
   30MOL    H10 9348   2.602   2.864   5.001 -1.2352  1.3603  2.4901
   30MOL    H11 9349   2.582   3.071   4.843  0.3075  1.8770  1.0719
   30MOL    H12 9350   2.244   3.013   5.008 -0.8319  2.3863  1.2128
   30MOL    H13 9351   2.032   3.027   4.869  1.0360 -0.8398  1.9989
   30MOL    H14 9352   2.041   3.124   4.643  0.7315 -0.6006 -0.0801
   30MOL    H15 9353   2.237   3.195   4.546  1.1965 -2.4058 -1.4345
   30MOL    H16 9354   2.464   3.155   4.664  1.6786 -1.3078  0.6053
   30MOL    H17 9355   2.432   2.865   5.019 -2.6572  0.1388 -1.5248
   30MOL    C18 9356   2.517   3.144   5.036 -0.0912  0.3782  0.3978
   30MOL    C19 9357   2.547   3.290   4.999 -0.4618 -0.5921 -0.4651
   30MOL    C20 9358   2.537   3.380   5.127 -0.8927 -0.0918 -0.7602
   30MOL    C21 9359   2.458   3.497   5.122 -0.3330  0.1822 -0.1029
   30MOL    C22 9360   2.444   3.579   5.239  0.0782  0.7581  0.1970
   30MOL    C23 9361   2.500   3.535   5.361  0.1115 -0.2293  0.3238
   30MOL    C24 9362   2.574   3.412   5.370  0.7043  0.3138  0.0859
   30MOL    C25 9363   2.592   3.336   5.253 -0.0583 -0.0828 -0.0018
   30MOL    H26 9364   2.598   3.110   5.100 -0.2501  0.4880  0.6567
   30MOL    H27 9365   2.422   3.152   5.089  0.2742  3.5948  0.7041
   30MOL    H28 9366   2.466   3.326   4.936 -0.6457 -1.6790 -0.8749
   30MOL    H29 9367   2.405   3.519   5.030 -1.2555  0.4448  0.4792
   30MOL    H30 9368   2.373   3.661   5.238 -2.3732 -1.2990  1.2199
   30MOL    H31 9369   2.489   3.584   5.457 -1.4833  0.7864 -0.3578
   30MOL    H32 9370   2.599   3.366   5.465 -0.5384  0.6910  0.6077
   30MOL    H33 9371   2.640   3.240   5.259 -0.0788 -0.0989 -0.0805
   30MOL    C34 9372   2.680   3.321   4.922  0.1424 -0.5517 -0.0734
   30MOL    C35 9373   2.679   3.447   4.824  0.0405 -0.0936 -0.3909
   30MOL    C36 9374   2.820   3.495   4.813 -0.2123 -0.4194  0.4359
   30MOL    C37 9375   2.853   3.615   4.877  0.4784 -0.2878 -0.3240
   30MOL    C38 9376   2.983   3.667   4.871 -0.5266  0.1385  0.1933
   30MOL    C39 9377   3.085   3.594   4.808  0.2222 -0.6649  0.0036
   30MOL    C40 9378   3.053   3.463   4.757  0.3233  0.0732  0.3231
   30MOL    C41 9379   2.922   3.418   4.750 -0.3005  0.0780 -0.3329
   30MOL    H42 9380   2.704   3.232   4.863  0.2467  0.1698 -1.1367
   30MOL    H43 9381   2.763   3.317   4.993  0.0801 -1.3674 -0.0413
   30MOL    H44 9382   2.613   3.527   4.858 -0.5109 -0.8873  0.4238
   30MOL    H45 9383   2.783   3.676   4.931  0.4695 -0.3776 -0.2344
   30MOL    H46 9384   3.015   3.766   4.897 -0.1019 -0.3752  1.6811
   30MOL    H47 9385   3.185   3.634   4.802 -0.5781  1.0746 -2.9177
   30MOL    H48 9386   3.135   3.406   4.716  0.4877  0.7470 -0.2922
   30MOL    H49 9387   2.899   3.326   4.699  1.2932  1.2173 -3.2116
   30MOL    C50 9388   2.615   3.404   4.693  0.0597 -0.5485 -0.0668
   30MOL    C51 9389   2.633   3.499   4.567  0.2254 -0.1812  0.0348
   30MOL    C52 9390   2.556   3.436   4.449 -0.0681  0.1999 -1.1900
   30MOL    C53 9391   2.418   3.459   4.447  0.0264 -0.1881  0.1241
   30MOL    C54 9392   2.335   3.409   4.347 -0.0487  0.4161  0.3992
   30MOL    C55 9393   2.397   3.335   4.247  0.1951 -0.3011  0.4331
   30MOL    C56 9394   2.537   3.307   4.247  0.0130 -0.9105 -0.8163
   30MOL    C57 9395   2.618   3.351   4.353  0.5788 -0.3428  0.1757
   30MOL    H58 9396   2.511   3.382   4.720 -0.5622  4.2979  1.9105
   30MOL    H59 9397   2.665   3.313   4.661  1.7913  0.9753 -1.7774
   30MOL    H60 9398   2.734   3.486   4.526 -0.1486  0.7292 -1.1820
   30MOL    H61 9399   2.377   3.531   4.515 -0.6552 -1.2163  0.8149
   30MOL    H62 9400   2.232   3.441   4.352 -1.4877 -3.4473 -2.0007
   30MOL    H63 9401   2.346   3.287   4.164  0.1660  0.9175 -0.2635
   30MOL    H64 9402   2.576   3.250   4.164  0.0738  3.4186 -3.9434
   30MOL    H65 9403   2.726   3.338   4.356  0.5218 -0.4259  2.4062
   30MOL    C66 9404   2.598   3.648   4.605 -0.3542 -0.1649 -0.0215
   30MOL    C67 9405   2.584   3.750   4.491  0.5889 -0.3535 -0.2888
   30MOL    C68 9406   2.547   3.891   4.535  0.1281 -0.3095  0.0004
   30MOL    C69 9407   2.629   3.967   4.622  0.3449 -0.4716 -0.1077
   30MOL    C70 9408   2.599   4.103   4.647 -0.1798  0.2768 -0.4997
   30MOL    C71 9409   2.476   4.160   4.613  0.7246  0.0516  0.6242
   30MOL    C72 9410   2.381   4.079   4.541 -0.6363 -0.7593 -0.1114
   30MOL    C73 9411   2.424   3.949   4.500 -0.0889 -0.3782  0.3648
   30MOL    H74 9412   2.664   3.690   4.680 -0.9061  1.8068 -0.6154
   30MOL    H75 9413   2.505   3.636   4.661  1.2562 -1.8851  2.3577
   30MOL    H76 9414   2.502   3.713   4.430  0.9868 -0.6277 -0.6548
   30MOL    H77 9415   2.716   3.923   4.670 -0.0146  0.3994  1.3884
   30MOL    H78 9416   2.662   4.170   4.704 -0.9855  0.9668 -0.4187
   30MOL    H79 9417   2.445   4.254   4.657  0.5515  0.3386 -0.1009
   30MOL    H80 9418   2.290   4.125   4.506 -2.7450 -2.1946  3.2294
   30MOL    H81 9419   2.366   3.889   4.433 -1.0247  2.2684 -1.2732
   30MOL    C82 9420   2.697   3.750   4.395 -0.0188  0.1971 -0.1152
   30MOL    C83 9421   2.667   3.821   4.261  0.7406  0.0552 -0.3829
   30MOL    C84 9422   2.799   3.881   4.194 -0.0143  0.1256 -1.0814
   30MOL    C85 9423   2.855   4.006   4.230 -0.2959 -0.3523 -0.1259
   30MOL    C86 9424   2.963   4.063   4.157  0.0029 -0.0512  0.3345
   30MOL    C87 9425   3.028   3.991   4.049  0.3741 -0.4239  0.2460
   30MOL    C88 9426   2.977   3.866   4.019  0.0676 -0.3378  0.5441
   30MOL    C89 9427   2.868   3.819   4.088  0.5689  0.1187  0.2589
   30MOL    H90 9428   2.722   3.648   4.365 -1.2254 -0.1955  0.1794
   30MOL    H91 9429   2.785   3.790   4.447 -1.3774  0.3639  2.1227
   30MOL    H92 9430   2.594   3.900   4.278  1.0291  0.2239  0.0704
   30MOL    H93 9431   2.808   4.068   4.305 -1.8768 -1.9517  0.2488
   30MOL    H94 9432   2.997   4.162   4.184 -0.1541 -0.2757  1.3826
   30MOL    H95 9433   3.115   4.034   4.000  0.4086 -0.2714  0.4418
   30MOL    H96 9434   3.019   3.804   3.941  1.4784 -0.7452  1.6060
   30MOL    H97 9435   2.831   3.719   4.069  1.5739  0.5348 -4.5609
   30MOL    C98 9436   2.594   3.722   4.165  0.2729  0.1799 -0.4264
   30MOL    C99 9437   2.544   3.785   4.026 -0.1465  0.0490 -0.3821
   30MOL   C100 9438   2.479   3.673   3.937 -0.1942  0.3413 -0.4844
   30MOL   C101 9439   2.363   3.598   3.980  0.1050 -0.1652  0.0425
   30MOL   C102 9440   2.308   3.497   3.904 -0.6159  0.2034 -0.1037
   30MOL   C103 9441   2.355   3.474   3.773 -0.0858  0.2782 -0.1347
   30MOL   C104 9442   2.472   3.543   3.733 -0.5356  0.6261 -0.0280
   30MOL   C105 9443   2.537   3.639   3.811  0.0307  0.1012 -0.0998
   30MOL   H106 9444   2.505   3.686   4.217  0.8720 -2.9413 -1.4472
   30MOL   H107 9445   2.645   3.629   4.138 -0.7055 -0.5991  0.3243
   30MOL   H108 9446   2.618   3.841   3.970 -0.6622  1.5655  0.4354
   30MOL   H109 9447   2.315   3.627   4.072  2.7807  0.5559  1.2728
   30MOL   H110 9448   2.219   3.450   3.942 -0.4510  1.3713  1.7589
   30MOL   H111 9449   2.307   3.401   3.710 -2.2923  2.0906 -0.5697
   30MOL   H112 9450   2.516   3.522   3.637  1.0615  1.3897  0.5258
   30MOL   H113 9451   2.623   3.694   3.775 -0.4751  2.2987  1.8803
   30MOL   C114 9452   2.432   3.878   4.066  0.4570 -0.5714  0.0102
   30MOL   C115 9453   2.349   3.941   3.948  0.5608 -1.1610  0.0343
   30MOL   C116 9454   2.216   3.995   4.002  1.0183 -0.4224  0.2587
   30MOL   C117 9455   2.093   3.944   3.950  0.4122  0.1097  0.1380
   30MOL   C118 9456   1.970   4.006   3.985  0.0781 -0.7059 -0.1752
   30MOL   C119 9457   1.966   4.102   4.088  0.0014 -0.2431  0.9557
   30MOL   C120 9458   2.087   4.151   4.139 -0.4700 -0.1315  0.2470
   30MOL   C121 9459   2.213   4.099   4.096  0.6852 -0.1171 -0.1366
   30MOL   H122 9460   2.475   3.970   4.107  0.7403 -0.5922 -0.2334
   30MOL   H123 9461   2.368   3.836   4.144  0.0041  1.4576  0.7542
   30MOL   H124 9462   2.326   3.862   3.877 -1.0735  1.4838 -2.4798
   30MOL   H125 9463   2.088   3.881   3.863  2.1373 -1.5461  1.2148
   30MOL   H126 9464   1.879   3.974   3.935 -0.3164  0.1203  0.0078
   30MOL   H127 9465   1.873   4.152   4.109 -0.7802 -1.9924  1.7167
   30MOL   H128 9466   2.085   4.223   4.220 -0.0602 -0.7331  0.8016
   30MOL   H129 9467   2.302   4.135   4.144  0.0162  1.0232  0.2810
   30MOL   C130 9468   2.431   4.042   3.865 -0.0169  0.3116  0.1725
   30MOL   C131 9469   2.348   4.130   3.762 -0.1490 -0.1179 -0.8198
   30MOL   C132 9470   2.389   4.278   3.759 -0.7583 -0.5660 -0.3823
   30MOL   C133 9471   2.502   4.326   3.683 -0.0643  0.3706 -0.6788
   30MOL   C134 9472   2.535   4.462   3.675 -0.2145 -0.4182  0.3193
   30MOL   C135 9473   2.458   4.549   3.749 -0.1106 -0.5987 -0.3699
   30MOL   C136 9474   2.346   4.503   3.822  0.3199  0.3512 -0.2033
   30MOL   C137 9475   2.310   4.367   3.833  0.4107  0.1066  0.1145
   30MOL   H138 9476   2.510   3.985   3.816 -1.8927 -1.5877 -0.7167
   30MOL   H139 9477   2.485   4.112   3.928  0.3546  0.0288  0.1680
   30MOL   H140 9478   2.243   4.128   3.791 -0.2410 -0.8122 -1.1817
   30MOL   H141 9479   2.552   4.250   3.625 -1.4814 -1.2232  0.1765
   30MOL   H142 9480   2.621   4.497   3.621 -1.0081  1.2513  0.1011
   30MOL   H143 9481   2.498   4.650   3.749  1.0742 -1.0533  0.5590
   30MOL   H144 9482   2.294   4.578   3.881  0.0645 -0.0419  0.0729
   30MOL   H145 9483   2.222   4.336   3.888 -0.2950  1.8892  0.0159
   30MOL   C146 9484   2.351   4.062   3.624 -0.7130 -0.0574 -0.2262
   30MOL   C147 9485   2.257   4.123   3.509  0.4884  0.3826 -0.3648
   30MOL   C148 9486   2.339   4.118   3.383 -0.4962 -0.5982  0.2729
   30MOL   C149 9487   2.379   3.999   3.326 -0.0785 -0.9479 -0.0264
   30MOL   C150 9488   2.439   3.990   3.199  0.5061 -0.3757  0.9286
   30MOL   C151 9489   2.479   4.117   3.141  0.0951  0.5736 -0.2847
   30MOL   C152 9490   2.464   4.238   3.209  0.1661 -0.3411 -0.5307
   30MOL   C153 9491   2.384   4.239   3.324  0.0958 -0.2312  0.9570
   30MOL   H154 9492   2.341   3.954   3.622  2.4472 -0.4043 -1.2118
   30MOL   H155 9493   2.455   4.064   3.591 -0.2678 -1.9633  0.9802
   30MOL   H156 9494   2.229   4.225   3.536 -1.5726 -0.2985  0.1201
   30MOL   H157 9495   2.356   3.908   3.379 -0.6311 -0.7215  0.1252
   30MOL   H158 9496   2.468   3.899   3.149 -0.8740 -0.2404 -0.1481
   30MOL   H159 9497   2.526   4.102   3.045  1.7937  0.8404  0.4864
   30MOL   H160 9498   2.495   4.332   3.165  2.3146 -1.4286 -1.4281
   30MOL   H161 9499   2.350   4.334   3.364  0.0194  0.0982  0.1184
   30MOL   C162 9500   2.126   4.048   3.489  0.1580  0.5609  0.0258
   30MOL   C163 9501   2.005   4.078   3.583 -0.7125 -0.4797 -0.2750
   30MOL   C164 9502   1.989   4.230   3.601 -0.5700  0.5100 -0.3613
   30MOL   C165 9503   1.990   4.285   3.733 -0.5321  0.0546 -0.3072
   30MOL   C166 9504   1.971   4.427   3.740 -0.3525 -0.2966  0.3110
   30MOL   C167 9505   1.963   4.513   3.626  0.5679  1.4928 -0.1647
   30MOL   C168 9506   1.950   4.454   3.500  0.7476 -0.7402  0.3550
   30MOL   C169 9507   1.963   4.310   3.490  0.3369 -0.1221 -0.4092
   30MOL   H170 9508   2.154   3.943   3.484  0.1005  0.5097  0.6587
   30MOL   H171 9509   2.086   4.072   3.391  0.9500  1.9633  0.0335
   30MOL   H172 9510   2.031   4.038   3.681 -0.1501 -2.8660 -1.3398
   30MOL   H173 9511   2.012   4.230   3.823  0.7952  0.0729 -0.6211
   30MOL   H174 9512   1.980   4.479   3.834  0.0174  0.5542 -0.1886
   30MOL   H175 9513   1.943   4.618   3.635 -1.7519  1.0017  0.8216
   30MOL   H176 9514   1.931   4.507   3.408 -2.6857 -1.5828  0.5127
   30MOL   H177 9515   1.957   4.262   3.393  1.8257  2.0608 -1.6254
   30MOL   C178 9516   1.874   4.018   3.527 -0.1213 -0.0093 -0.4829
   30MOL   C179 9517   1.867   3.868   3.515  0.2727  0.4217 -0.3732
   30MOL   C180 9518   1.828   3.811   3.650 -0.7012 -0.7010 -0.3137
   30MOL   C181 9519   1.707   3.850   3.715 -0.7593 -0.1377  0.5494
   30MOL   C182 9520   1.674   3.793   3.840  0.5305 -0.4435  0.1382
   30MOL   C183 9521   1.757   3.693   3.895  0.1741  0.3098 -0.7044
   30MOL   C184 9522   1.873   3.653   3.823  0.1216  0.3940  0.5330
   30MOL   C185 9523   1.909   3.708   3.694  0.5326 -0.2578  0.1047
   30MOL   H186 9524   1.861   4.044   3.422 -0.4018  1.0434 -0.1985
   30MOL   H187 9525   1.787   4.068   3.569  0.5528 -0.1188  1.0634
   30MOL   H188 9526   1.967   3.838   3.487  0.6584  0.0006  1.3951
   30MOL   H189 9527   1.643   3.926   3.674 -2.1616 -0.9520  1.1954
   30MOL   H190 9528   1.583   3.820   3.892  1.6563  0.1535  1.8625
   30MOL   H191 9529   1.732   3.644   3.987  0.6333  1.4926  0.0607
   30MOL   H192 9530   1.917   3.567   3.871 -0.7103 -0.5281 -0.3473
   30MOL   H193 9531   1.997   3.666   3.648  1.2169  0.3126  0.8732
   30MOL   C194 9532   1.761   3.828   3.412  0.0753 -0.2388  0.8144
   30MOL   C195 9533   1.814   3.839   3.262  0.1416 -0.0733 -0.6281
   30MOL   C196 9534   1.865   3.716   3.190 -0.1396 -0.0429  0.3118
   30MOL   C197 9535   1.991   3.714   3.130  0.1253  0.0223  0.3120
   30MOL   C198 9536   2.038   3.593   3.073 -0.5623 -0.2027  0.8934
   30MOL   C199 9537   1.959   3.482   3.073  0.0349  0.3585  0.1195
   30MOL   C200 9538   1.832   3.481   3.127  1.1286 -0.1030 -0.4470
   30MOL   C201 9539   1.782   3.600   3.185 -0.6320 -0.3116  0.0410
   30MOL   H202 9540   1.661   3.869   3.428 -0.5091 -0.4825 -1.9292
   30MOL   H203 9541   1.745   3.721   3.421 -0.6742 -0.1014  1.1087
   30MOL   H204 9542   1.902   3.904   3.270  0.7651 -0.9685 -0.1483
   30MOL   H205 9543   2.050   3.804   3.122  0.9955 -0.6399 -1.0420
   30MOL   H206 9544   2.139   3.588   3.035 -1.6330  0.2845 -2.0891
   30MOL   H207 9545   1.990   3.392   3.021  2.3037  1.2539 -0.1139
   30MOL   H208 9546   1.777   3.388   3.125 -1.3681  1.3575 -1.7699
   30MOL   H209 9547   1.683   3.598   3.227  0.4374  1.8390  2.7621
   30MOL   C210 9548   1.716   3.928   3.174  0.3837 -0.3737  0.3276
   30MOL   C211 9549   1.776   3.990   3.044  0.4795  0.1302  0.4740
   30MOL   C212 9550   1.669   4.037   2.942 -0.3682 -0.2690 -0.0473
   30MOL   C213 9551   1.555   4.091   2.997  0.4363 -0.1213 -0.6314
   30MOL   C214 9552   1.460   4.150   2.910 -0.6082  0.0625  0.2351
   30MOL   C215 9553   1.470   4.134   2.771 -1.1889 -0.0161 -0.1807
   30MOL   C216 9554   1.583   4.070   2.717  0.3167  0.2378  0.1191
   30MOL   C217 9555   1.681   4.014   2.801 -0.7206 -0.2459  0.0991
   30MOL   H218 9556   1.656   4.000   3.230 -0.1448  0.1377 -0.8665
   30MOL   H219 9557   1.641   3.858   3.136 -0.0938  0.8363 -1.0283
   30MOL   H220 9558   1.829   3.908   2.995  1.2750 -0.5704  2.4665
   30MOL   H221 9559   1.545   4.105   3.104  0.4330 -0.4516 -0.5896
   30MOL   H222 9560   1.368   4.187   2.952 -0.6933 -0.4722  0.5311
   30MOL   H223 9561   1.390   4.171   2.708 -1.0860 -1.7911 -1.3877
   30MOL   H224 9562   1.596   4.068   2.610  0.4233 -2.1237  0.1393
   30MOL   H225 9563   1.763   3.966   2.750 -1.4885 -1.9316  0.4039
   30MOL   C226 9564   1.874   4.108   3.079 -0.1291  0.5704 -0.1482
   30MOL   C227 9565   1.967   4.156   2.965  0.6362 -0.7481  0.0451
   30MOL   C228 9566   2.035   4.291   2.997  0.2789 -0.2212 -0.1489
   30MOL   C229 9567   2.016   4.411   2.916 -0.0371 -0.2123 -0.3671
   30MOL   C230 9568   2.066   4.533   2.957  0.2545  0.1862  0.2134
   30MOL   C231 9569   2.127   4.541   3.076 -0.7844 -0.3213 -0.2865
   30MOL   C232 9570   2.147   4.428   3.154  0.0649  0.2795 -0.4633
   30MOL   C233 9571   2.105   4.299   3.117 -0.2969  0.4283 -0.2311
   30MOL   H234 9572   1.942   4.077   3.158 -2.7997  0.9341  2.3522
   30MOL   H235 9573   1.813   4.186   3.124 -2.0665 -1.5754  1.0336
   30MOL   H236 9574   1.903   4.173   2.879  1.8512 -2.0149 -1.1403
   30MOL   H237 9575   1.968   4.407   2.819 -2.2521 -1.3463  0.7246
   30MOL   H238 9576   2.036   4.620   2.902  0.9792 -0.2912 -0.9667
   30MOL   H239 9577   2.152   4.637   3.120 -0.0405 -0.3945 -0.5467
   30MOL   H240 9578   2.195   4.437   3.250 -5.1012 -1.5049  2.4570
   30MOL   H241 9579   2.127   4.212   3.176 -0.7632  0.5768  0.1598
   30MOL   C242 9580   2.077   4.053   2.926  0.2432 -0.1376 -0.2454
   30MOL   C243 9581   2.163   4.078   2.802  0.9954 -0.5117  0.3427
   30MOL   C244 9582   2.268   3.972   2.779 -0.1475  0.2583  0.2396
   30MOL   C245 9583   2.403   4.010   2.771 -0.3078 -0.4550  0.0389
   30MOL   C246 9584   2.500   3.908   2.747  0.1820  0.2289 -0.4555
   30MOL   C247 9585   2.465   3.772   2.760  0.4106  0.7097 -1.2013
   30MOL   C248 9586   2.328   3.728   2.784  0.0896 -0.1655  0.1070
   30MOL   C249 9587   2.234   3.834   2.783 -0.7526  0.4088 -0.9603
   30MOL   H250 9588   2.023   3.960   2.909 -3.6813  1.8021  1.0510
   30MOL   H251 9589   2.144   4.037   3.011 -1.7496  1.0475  1.5804
   30MOL   H252 9590   2.214   4.171   2.826 -1.9247  1.3866 -0.6345
   30MOL   H253 9591   2.436   4.113   2.758 -0.9774 -0.5992 -3.2103
   30MOL   H254 9592   2.605   3.928   2.730 -0.0178  0.7280 -1.1310
   30MOL   H255 9593   2.533   3.693   2.733 -0.3622 -1.2467  2.3410
   30MOL   H256 9594   2.307   3.622   2.783 -0.0829 -0.1260 -0.6419
   30MOL   H257 9595   2.127   3.817   2.786 -0.8573  0.9596 -1.4157
   30MOL   C258 9596   2.073   4.082   2.671 -0.2374 -0.4262 -0.3280
   30MOL   C259 9597   2.137   4.150   2.545 -0.1872 -0.6388  0.4933
   30MOL   C260 9598   2.061   4.120   2.419  0.2746 -0.2471  0.6108
   30MOL   C261 9599   2.127   4.061   2.305 -0.0764  0.6681  0.2003
   30MOL   C262 9600   2.064   4.034   2.185  0.2896  0.0315  0.0769
   30MOL   C263 9601   1.926   4.049   2.177 -0.4825 -0.2883  0.1415
   30MOL   C264 9602   1.850   4.092   2.287 -0.5445 -0.3924 -0.2979
   30MOL   C265 9603   1.917   4.125   2.408  0.6475  0.4944 -0.0397
   30MOL   H266 9604   1.983   4.142   2.684  1.2096  1.3649  1.6058
   30MOL   H267 9605   2.036   3.982   2.649 -0.0697 -0.6521  0.4133
   30MOL   H268 9606   2.236   4.105   2.535  0.1502  0.0304  0.8002
   30MOL   H269 9607   2.232   4.042   2.316 -0.3882 -0.9606  0.5385
   30MOL   H270 9608   2.116   3.996   2.099  0.4452  0.0585  0.1592
   30MOL   H271 9609   1.870   4.026   2.088 -1.2024  2.2958 -0.1060
   30MOL   H272 9610   1.743   4.075   2.286 -0.6713  0.3036  0.6453
   30MOL   H273 9611   1.858   4.155   2.493 -2.9773  2.3338 -3.0462
   30MOL   C274 9612   2.144   4.305   2.563 -0.1604 -0.0514  0.2445
   30MOL   C275 9613   2.219   4.379   2.444 -0.9595 -0.7306  0.0208
   30MOL   C276 9614   2.180   4.525   2.436  0.1502 -0.1128  0.3705
   30MOL   C277 9615   2.177   4.607   2.553 -0.0492 -0.4927 -0.1968
   30MOL   C278 9616   2.136   4.740   2.537  0.4999  0.6314  0.4556
   30MOL   C279 9617   2.096   4.793   2.406  0.3451 -0.4464 -0.3120
   30MOL   C280 9618   2.091   4.704   2.296  0.4661 -0.2957  0.6907
   30MOL   C281 9619   2.141   4.570   2.313  0.8070 -0.3186  0.1994
   30MOL   H282 9620   2.186   4.319   2.662  1.3059 -0.0291 -0.3677
   30MOL   H283 9621   2.039   4.334   2.567  0.5088  2.9668 -2.0714
   30MOL   H284 9622   2.181   4.335   2.352 -4.5615  0.0412  1.0586
   30MOL   H285 9623   2.201   4.566   2.650  1.1967 -0.9851 -0.7037
   30MOL   H286 9624   2.132   4.803   2.625  1.4923  2.0859 -0.5078
   30MOL   H287 9625   2.051   4.890   2.396  2.1717  0.5302  0.7475
   30MOL   H288 9626   2.062   4.743   2.200 -2.3723  4.0932  3.1446
   30MOL   H289 9627   2.137   4.503   2.228 -0.2585 -0.9976  0.7854
   30MOL   C290 9628   2.376   4.352   2.453  0.3308  0.5597  0.4834
   30MOL   C291 9629   2.443   4.300   2.324  0.3333  0.5807  0.2855
   30MOL   C292 9630   2.427   4.401   2.220  0.1195 -0.4670  0.0547
   30MOL   C293 9631   2.483   4.529   2.224  0.2474  1.3817 -0.4109
   30MOL   C294 9632   2.475   4.611   2.112  0.3739 -0.5264 -0.1559
   30MOL   C295 9633   2.410   4.571   1.993  0.1853 -0.8130  0.0730
   30MOL   C296 9634   2.342   4.450   1.996  0.1660 -0.6508 -0.6643
   30MOL   C297 9635   2.348   4.359   2.110 -0.7757  0.2467 -0.2317
   30MOL   H298 9636   2.390   4.285   2.538 -1.5315  2.1350  2.0966
   30MOL   H299 9637   2.429   4.440   2.489  2.3164 -0.6867  0.6781
   30MOL   H300 9638   2.387   4.214   2.288  1.0827  0.7703 -1.3827
   30MOL   H301 9639   2.546   4.553   2.307  0.0558 -1.6950  0.6772
   30MOL   H302 9640   2.538   4.699   2.112  0.2394 -0.4304 -0.6526
   30MOL   H303 9641   2.408   4.654   1.924  3.5681 -2.1191 -1.7013
   30MOL   H304 9642   2.285   4.428   1.907 -0.3775 -2.0402  0.0074
   30MOL   H305 9643   2.290   4.269   2.101 -0.0862 -0.1866 -0.4591
   30MOL   C306 9644   2.588   4.269   2.338 -0.4812  0.0098  0.3646
   30MOL   C307 9645   2.611   4.147   2.422 -0.6548  0.1385 -0.1164
   30MOL   C308 9646   2.754   4.091   2.401  0.4231 -1.0807  0.1582
   30MOL   C309 9647   2.846   4.113   2.504 -0.2455  0.8518 -0.0546
   30MOL   C310 9648   2.970   4.064   2.496 -0.0580 -0.2113 -0.1203
   30MOL   C311 9649   3.012   3.992   2.384  0.5792 -0.2303 -0.0499
   30MOL   C312 9650   2.923   3.970   2.277  0.3513  0.1329  0.1858
   30MOL   C313 9651   2.796   4.021   2.284  0.3893 -0.6186 -0.1214
   30MOL   H314 9652   2.668   4.340   2.360 -0.0245  0.3454 -2.1450
   30MOL   H315 9653   2.620   4.243   2.237 -1.0013  1.8289 -0.2927
   30MOL   H316 9654   2.531   4.078   2.395 -0.7890 -0.1058  0.8701
   30MOL   H317 9655   2.812   4.160   2.595 -2.2866  0.1921 -0.4337
   30MOL   H318 9656   3.031   4.088   2.582 -1.2148  1.9102  0.1193
   30MOL   H319 9657   3.111   3.950   2.384  0.2653 -1.0690  2.3286
   30MOL   H320 9658   2.954   3.921   2.185  0.4677 -1.6774  1.1551
   30MOL   H321 9659   2.721   4.006   2.208  2.7574 -2.7298 -2.1330
   30MOL   H322 9660   2.589   4.176   2.525 -0.4089  0.6664 -0.2133
   31MOL     C1 9661   7.907   4.755   6.915  0.3354  0.4272 -0.2718
   31MOL     C2 9662   7.881   4.876   6.824  0.0499 -0.6253 -0.5866
   31MOL     C3 9663   7.851   4.831   6.681  0.5930 -0.0000 -0.1128
   31MOL     C4 9664   7.748   4.741   6.662  0.3470 -1.0091  0.1910
   31MOL     C5 9665   7.715   4.685   6.535 -0.1260  0.0484 -0.3394
   31MOL     C6 9666   7.792   4.735   6.425  0.8758  0.1734 -0.1904
   31MOL     C7 9667   7.897   4.830   6.449 -0.2765 -0.4682 -0.6334
   31MOL     C8 9668   7.928   4.874   6.580 -0.6182 -0.4234 -0.5800
   31MOL     H9 9669   7.949   4.666   6.869  2.3697  0.9865  0.4327
   31MOL    H10 9670   7.972   4.781   6.999 -1.4620 -2.2941  2.0869
   31MOL    H11 9671   7.970   4.939   6.823 -0.0744 -0.4058  0.9254
   31MOL    H12 9672   7.693   4.713   6.751  1.1173  0.2525  1.0900
   31MOL    H13 9673   7.643   4.604   6.535 -1.5541  1.2787 -1.0366
   31MOL    H14 9674   7.780   4.691   6.327  1.5336  1.4566 -0.8608
   31MOL    H15 9675   7.957   4.862   6.365 -0.6295  1.4082 -0.1931
   31MOL    H16 9676   8.011   4.936   6.610  0.4650 -0.3635 -3.5680
   31MOL    H17 9677   7.809   4.715   6.942  0.3110  0.0483 -0.9282
   31MOL    C18 9678   7.759   4.959   6.874 -0.5109 -0.0382 -0.1511
   31MOL    C19 9679   7.779   5.030   7.012 -0.0890 -0.5975 -0.0062
   31MOL    C20 9680   7.870   5.147   7.003 -0.2121 -0.4765  0.1053
   31MOL    C21 9681   7.977   5.162   7.096  0.2974 -0.2502 -0.3780
   31MOL    C22 9682   8.064   5.273   7.093  0.4450 -0.0048  0.8160
   31MOL    C23 9683   8.049   5.379   7.002  0.2714 -0.3338 -0.3843
   31MOL    C24 9684   7.942   5.367   6.905 -0.2119 -0.4392  0.0447
   31MOL    C25 9685   7.853   5.258   6.913 -0.5408  0.7005  0.0471
   31MOL    H26 9686   7.666   4.901   6.872 -2.2160  2.5458  1.0443
   31MOL    H27 9687   7.730   5.035   6.801  0.3254 -1.0931 -1.6080
   31MOL    H28 9688   7.823   4.968   7.090 -0.8657 -1.4842 -0.2652
   31MOL    H29 9689   7.990   5.079   7.164  1.5651  0.3505  0.1229
   31MOL    H30 9690   0.038   5.284   7.152 -0.0274  1.1849  1.3382
   31MOL    H31 9691   8.104   5.472   7.007  1.1041 -0.8597  0.2828
   31MOL    H32 9692   7.908   5.451   6.846 -1.6068  0.5846  2.2419
   31MOL    H33 9693   7.764   5.262   6.851 -0.0022 -0.2437 -0.7986
   31MOL    C34 9694   7.646   5.083   7.082  0.6105  0.1411  0.1502
   31MOL    C35 9695   7.542   4.978   7.125  0.2552 -0.0106 -0.4755
   31MOL    C36 9696   7.582   4.907   7.258  0.0137  0.7415  0.5194
   31MOL    C37 9697   7.510   4.792   7.288  0.5123  0.4702 -0.3083
   31MOL    C38 9698   7.538   4.718   7.406 -0.7766 -0.5946  0.3276
   31MOL    C39 9699   7.640   4.770   7.485 -0.8250 -0.2130 -0.2928
   31MOL    C40 9700   7.719   4.885   7.455  0.0825 -0.3954 -0.0477
   31MOL    C41 9701   7.681   4.957   7.342  0.2854 -0.0396  0.2854
   31MOL    H42 9702   7.604   5.161   7.019  0.6981 -0.4469 -0.6466
   31MOL    H43 9703   7.680   5.155   7.157  1.0211 -0.7741  0.8588
   31MOL    H44 9704   7.525   4.901   7.050 -2.3730 -0.6941  0.7591
   31MOL    H45 9705   7.423   4.756   7.235  1.3390 -2.1394  0.0597
   31MOL    H46 9706   7.467   4.640   7.428 -2.1376  0.5424  0.0527
   31MOL    H47 9707   7.653   4.721   7.581  0.8501  0.8947  0.0706
   31MOL    H48 9708   7.794   4.921   7.524  0.2501  1.3651 -1.1116
   31MOL    H49 9709   7.744   5.041   7.315 -2.0770  1.8329  0.4478
   31MOL    C50 9710   7.401   5.036   7.134  1.0583 -0.1824  0.9807
   31MOL    C51 9711   7.336   5.092   7.005 -0.8877 -0.4676  0.4640
   31MOL    C52 9712   7.325   4.984   6.897  0.4587 -0.7922 -0.1560
   31MOL    C53 9713   7.239   4.879   6.917  0.4069  0.6116  0.2083
   31MOL    C54 9714   7.222   4.773   6.819  0.4421 -0.3660 -0.2772
   31MOL    C55 9715   7.298   4.777   6.698 -0.0771  0.2526 -0.7684
   31MOL    C56 9716   7.397   4.875   6.684  0.0731  0.0154  0.0249
   31MOL    C57 9717   7.410   4.977   6.785  0.0409 -0.6429  0.2877
   31MOL    H58 9718   7.402   5.121   7.203  0.1787  1.1657 -0.6204
   31MOL    H59 9719   7.332   4.965   7.180 -0.5461  0.7816  0.1022
   31MOL    H60 9720   7.413   5.160   6.968 -0.9509 -0.4543  0.3555
   31MOL    H61 9721   7.182   4.874   7.009 -0.7728 -0.5272 -0.5663
   31MOL    H62 9722   7.145   4.699   6.832 -1.6294  1.6095 -1.0315
   31MOL    H63 9723   7.288   4.706   6.617 -1.5132 -0.2831 -0.1420
   31MOL    H64 9724   7.445   4.889   6.588 -0.1790  1.2670  0.0730
   31MOL    H65 9725   7.487   5.052   6.775 -1.5579  1.0083  0.0629
   31MOL    C66 9726   7.205   5.174   7.018 -0.3043  0.4096 -0.0686
   31MOL    C67 9727   7.203   5.307   7.090 -0.4935  0.3701  0.0956
   31MOL    C68 9728   7.334   5.383   7.058 -0.7762  0.6205  0.2399
   31MOL    C69 9729   7.364   5.430   6.927  0.3118  0.4290  0.0361
   31MOL    C70 9730   7.482   5.501   6.901 -0.3471 -0.0944 -0.3672
   31MOL    C71 9731   7.573   5.533   7.002  0.2327 -0.0588 -0.4436
   31MOL    C72 9732   7.540   5.496   7.134 -0.4183  0.3689  0.1170
   31MOL    C73 9733   7.424   5.418   7.160  0.2391  0.3180  0.0622
   31MOL    H74 9734   7.131   5.103   7.054  0.4303 -0.9329 -1.1227
   31MOL    H75 9735   7.187   5.199   6.913  0.8068  1.9041  0.0743
   31MOL    H76 9736   7.203   5.294   7.198 -1.0209  0.7687  0.1470
   31MOL    H77 9737   7.293   5.420   6.846 -0.4049 -0.1148  0.7135
   31MOL    H78 9738   7.494   5.529   6.797 -0.2567 -1.2145 -0.6635
   31MOL    H79 9739   7.657   5.596   6.974 -0.5603  1.5857  0.7688
   31MOL    H80 9740   7.610   5.520   7.213 -2.8030  3.0478  1.5338
   31MOL    H81 9741   7.396   5.394   7.261 -1.0386 -2.2105 -0.8369
   31MOL    C82 9742   7.075   5.380   7.052  0.0897 -0.5760 -0.2377
   31MOL    C83 9743   7.032   5.476   7.162  0.3715  0.2342 -0.0302
   31MOL    C84 9744   7.135   5.569   7.226 -0.0664 -0.0749 -0.3890
   31MOL    C85 9745   7.193   5.676   7.159 -0.5324 -0.2317 -0.0334
   31MOL    C86 9746   7.312   5.741   7.207 -1.0832  0.1002 -0.4005
   31MOL    C87 9747   7.366   5.697   7.333 -0.0599  0.3539 -0.6375
   31MOL    C88 9748   7.292   5.607   7.411  0.0769  0.6864 -0.4525
   31MOL    C89 9749   7.178   5.546   7.362  0.6797  0.6375  0.5315
   31MOL    H90 9750   6.990   5.312   7.045 -1.3525  1.0537  1.1059
   31MOL    H91 9751   7.082   5.431   6.956  0.1085  1.4491  0.8077
   31MOL    H92 9752   6.994   5.414   7.243  1.2008 -0.9591 -0.5371
   31MOL    H93 9753   7.153   5.707   7.064 -0.3367  0.7606  0.2025
   31MOL    H94 9754   7.364   5.818   7.153  0.0640 -0.3733  0.0246
   31MOL    H95 9755   7.451   5.754   7.368 -1.2173  0.2032  2.5842
   31MOL    H96 9756   7.316   5.576   7.511  0.5288 -1.0090 -1.0575
   31MOL    H97 9757   7.120   5.474   7.419 -0.0688 -0.4935 -1.5688
   31MOL    C98 9758   6.918   5.569   7.114  0.0432  0.8848  0.1074
   31MOL    C99 9759   6.791   5.497   7.052 -0.6643  0.1318  0.1186
   31MOL   C100 9760   6.721   5.406   7.144 -0.1358 -0.0130 -0.2505
   31MOL   C101 9761   6.695   5.276   7.102  0.4622  0.7869 -0.6807
   31MOL   C102 9762   6.632   5.193   7.192 -0.1575 -0.0260  0.0588
   31MOL   C103 9763   6.596   5.235   7.322  0.5227  0.2976  0.4032
   31MOL   C104 9764   6.623   5.364   7.371  0.5065 -0.1864  0.4581
   31MOL   C105 9765   6.678   5.453   7.277  0.4369 -0.9166 -0.1130
   31MOL   H106 9766   6.950   5.645   7.043 -1.1254  1.0124 -0.2943
   31MOL   H107 9767   6.878   5.627   7.197 -2.1927 -0.9888  0.3920
   31MOL   H108 9768   6.827   5.430   6.974 -0.7947  0.2056 -0.0064
   31MOL   H109 9769   6.706   5.252   6.997 -0.4945 -0.4904 -0.5039
   31MOL   H110 9770   6.603   5.091   7.170 -0.8200  0.0357  0.6192
   31MOL   H111 9771   6.557   5.169   7.398  0.6542 -0.3072 -0.0568
   31MOL   H112 9772   6.608   5.403   7.471  2.7066  0.2726  0.6250
   31MOL   H113 9773   6.707   5.553   7.306  3.2257 -1.3328 -1.2730
   31MOL   C114 9774   6.698   5.591   6.970 -0.1663  0.1030 -0.0164
   31MOL   C115 9775   6.757   5.614   6.832  0.2561  0.4943 -0.5281
   31MOL   C116 9776   6.771   5.490   6.751  0.3031 -0.1271 -0.1771
   31MOL   C117 9777   6.656   5.414   6.712  0.2639  0.4192  0.1530
   31MOL   C118 9778   6.672   5.282   6.670  0.6935  0.6231  0.5018
   31MOL   C119 9779   6.802   5.229   6.649  0.7458  0.1801 -0.6302
   31MOL   C120 9780   6.910   5.316   6.671  0.5065  0.7053  0.1859
   31MOL   C121 9781   6.897   5.441   6.727 -0.3386 -0.2238  1.0192
   31MOL   H122 9782   6.677   5.685   7.020 -0.3915 -1.4915  2.9947
   31MOL   H123 9783   6.594   5.559   6.973  0.1021 -1.0249 -2.0959
   31MOL   H124 9784   6.861   5.643   6.848  0.3184  0.2641 -0.5161
   31MOL   H125 9785   6.561   5.461   6.732 -0.0203  0.2333 -0.7252
   31MOL   H126 9786   6.590   5.219   6.639  1.1935 -0.7160  1.8565
   31MOL   H127 9787   6.815   5.126   6.621 -1.2489 -0.5252  0.9027
   31MOL   H128 9788   7.010   5.281   6.647 -0.0112 -0.3812 -0.4001
   31MOL   H129 9789   6.981   5.503   6.751 -0.7798 -0.4734  3.2875
   31MOL   C130 9790   6.675   5.723   6.760  0.0075 -0.2538  0.2299
   31MOL   C131 9791   6.732   5.867   6.772 -0.0411  0.1443  0.4957
   31MOL   C132 9792   6.872   5.880   6.725 -0.2075 -0.0415 -0.3718
   31MOL   C133 9793   6.922   5.805   6.615 -0.8604  0.0269 -0.5944
   31MOL   C134 9794   7.058   5.831   6.571 -0.0527 -0.7137 -0.9682
   31MOL   C135 9795   7.144   5.912   6.647  0.7721  0.3683 -0.8982
   31MOL   C136 9796   7.100   5.979   6.762 -0.6763  0.2436 -0.1759
   31MOL   C137 9797   6.964   5.962   6.794  0.1238 -0.0151  1.0847
   31MOL   H138 9798   6.570   5.720   6.788  0.2149  0.3727  1.1080
   31MOL   H139 9799   6.670   5.688   6.657  4.4670  1.7251 -0.7963
   31MOL   H140 9800   6.723   5.889   6.878 -1.3715  0.0806  0.3950
   31MOL   H141 9801   6.854   5.745   6.556  0.6518 -1.2678 -1.0518
   31MOL   H142 9802   7.095   5.786   6.480  0.7701 -0.1069 -0.9295
   31MOL   H143 9803   7.250   5.917   6.625  1.0835 -3.0017 -0.3674
   31MOL   H144 9804   7.172   6.031   6.823 -0.0521 -0.1066 -0.6094
   31MOL   H145 9805   6.920   6.016   6.876  0.5567  0.8146  0.7828
   31MOL   C146 9806   6.640   5.954   6.692 -0.2720 -0.0982 -0.0879
   31MOL   C147 9807   6.527   6.002   6.777 -0.0069  0.2224 -0.5023
   31MOL   C148 9808   6.554   6.143   6.830 -0.1033 -0.3796 -0.1046
   31MOL   C149 9809   6.526   6.253   6.746  0.3010  0.1656  0.0430
   31MOL   C150 9810   6.557   6.384   6.776 -0.0291 -0.4922  0.2685
   31MOL   C151 9811   6.629   6.403   6.896 -0.3793  0.1670  0.0736
   31MOL   C152 9812   6.669   6.292   6.976 -0.1576  0.1709  0.1016
   31MOL   C153 9813   6.622   6.164   6.946 -0.0292 -0.1079  0.6042
   31MOL   H154 9814   6.594   5.910   6.604  2.3527 -0.8369 -1.1584
   31MOL   H155 9815   6.700   6.039   6.656  1.6410 -2.1116 -1.8170
   31MOL   H156 9816   6.511   5.931   6.858 -0.5151 -1.4323 -2.0348
   31MOL   H157 9817   6.484   6.238   6.647  0.3042 -0.2040  0.0979
   31MOL   H158 9818   6.534   6.466   6.711 -2.6036 -2.1183 -0.9152
   31MOL   H159 9819   6.653   6.502   6.931  0.1078 -0.2411  0.8954
   31MOL   H160 9820   6.724   6.306   7.068  1.0371 -2.1916 -0.2008
   31MOL   H161 9821   6.652   6.086   7.015  2.4029  0.4113  0.1487
   31MOL   C162 9822   6.392   5.997   6.701  0.1870  0.4371 -0.7594
   31MOL   C163 9823   6.326   5.863   6.699 -0.5428  0.0905 -0.1438
   31MOL   C164 9824   6.280   5.819   6.838 -0.4355  0.2244 -0.4763
   31MOL   C165 9825   6.216   5.912   6.926 -0.2810  0.3018  1.2148
   31MOL   C166 9826   6.175   5.871   7.058  0.1343  0.1648  0.2827
   31MOL   C167 9827   6.194   5.739   7.093  0.6462  0.3389  0.2385
   31MOL   C168 9828   6.247   5.641   7.003 -0.1822 -0.2534  0.0768
   31MOL   C169 9829   6.294   5.679   6.877 -0.2105 -0.8328 -0.7578
   31MOL   H170 9830   6.417   6.028   6.599 -0.3696  1.6252 -0.5413
   31MOL   H171 9831   6.313   6.062   6.737 -0.9328 -0.6110 -1.2851
   31MOL   H172 9832   6.402   5.786   6.684 -0.1587 -0.0273  2.1375
   31MOL   H173 9833   6.204   6.017   6.906  1.9567  1.2757  4.6201
   31MOL   H174 9834   6.127   5.941   7.124 -1.8470 -1.1916  0.3320
   31MOL   H175 9835   6.174   5.700   7.192  0.4841 -2.3389 -0.8051
   31MOL   H176 9836   6.268   5.542   7.039  1.0775 -0.1759 -0.4309
   31MOL   H177 9837   6.332   5.608   6.805 -0.7669  0.0403 -1.9448
   31MOL   C178 9838   6.213   5.853   6.597 -0.1718  0.1874  0.7541
   31MOL   C179 9839   6.258   5.860   6.454  0.6585  0.0675 -0.4776
   31MOL   C180 9840   6.335   5.733   6.419 -0.7590  0.4563  0.3609
   31MOL   C181 9841   6.474   5.734   6.401 -0.3311  0.2419 -0.3705
   31MOL   C182 9842   6.549   5.617   6.374  0.3572 -0.3440 -0.2810
   31MOL   C183 9843   6.477   5.497   6.353 -0.5173  0.1505 -0.8453
   31MOL   C184 9844   6.339   5.496   6.356  0.6627 -0.3357 -0.0579
   31MOL   C185 9845   6.266   5.611   6.389  0.7756  0.6563  0.7182
   31MOL   H186 9846   6.152   5.939   6.627  0.2185  0.4298  0.8477
   31MOL   H187 9847   6.157   5.760   6.608 -0.1942  0.0005 -0.7890
   31MOL   H188 9848   6.329   5.941   6.437  1.7525 -0.5559  1.0334
   31MOL   H189 9849   6.528   5.828   6.407  0.5596 -0.1923 -1.3453
   31MOL   H190 9850   6.656   5.629   6.367  0.2049  0.9908 -0.3203
   31MOL   H191 9851   6.527   5.401   6.346 -1.4435 -0.9308  4.5762
   31MOL   H192 9852   6.285   5.403   6.346  1.0705 -0.5653 -0.1637
   31MOL   H193 9853   6.158   5.613   6.400  0.4594  0.0710 -1.9673
   31MOL   C194 9854   6.135   5.883   6.357  0.2772 -0.4689  0.5456
   31MOL   C195 9855   6.058   6.011   6.395 -0.5575  0.4857 -0.1918
   31MOL   C196 9856   6.141   6.129   6.418 -0.7682  0.2408 -0.0145
   31MOL   C197 9857   6.105   6.208   6.531  0.0161  0.2882  0.1565
   31MOL   C198 9858   6.176   6.328   6.553  1.1235 -0.2728  0.4303
   31MOL   C199 9859   6.272   6.366   6.457 -0.4195  0.4883  0.4701
   31MOL   C200 9860   6.291   6.290   6.339  0.7681 -0.1873  0.0201
   31MOL   C201 9861   6.226   6.168   6.320 -0.0897 -1.0051 -0.0556
   31MOL   H202 9862   6.065   5.799   6.352  0.8242 -0.8824 -0.1933
   31MOL   H203 9863   6.178   5.897   6.258 -0.7073  1.3096  0.3304
   31MOL   H204 9864   6.003   6.001   6.489  0.1389 -0.3156  0.1425
   31MOL   H205 9865   6.023   6.191   6.599  0.5113 -0.1182  0.6565
   31MOL   H206 9866   6.147   6.378   6.644 -0.7886 -1.5246  0.5393
   31MOL   H207 9867   6.319   6.462   6.473  0.8044  0.0611 -0.4762
   31MOL   H208 9868   6.355   6.322   6.257  0.7372  0.9585  0.4350
   31MOL   H209 9869   6.256   6.112   6.233  1.1236  2.0228 -1.6755
   31MOL   C210 9870   5.951   6.047   6.297  0.1867 -0.2614  0.4281
   31MOL   C211 9871   5.829   5.951   6.295 -0.4080 -0.0346  1.0679
   31MOL   C212 9872   5.767   5.913   6.430  0.0674  0.1771 -0.2839
   31MOL   C213 9873   5.712   6.020   6.500 -0.0861  0.1552  0.4698
   31MOL   C214 9874   5.655   5.998   6.630  0.1195  0.5875  0.1020
   31MOL   C215 9875   5.674   5.870   6.683  0.1479  0.1383 -0.4415
   31MOL   C216 9876   5.741   5.763   6.626  0.2345  0.3927 -0.2606
   31MOL   C217 9877   5.787   5.782   6.496 -0.6016 -1.0397  0.1753
   31MOL   H218 9878   5.987   6.047   6.195 -0.7094 -1.0253  0.0990
   31MOL   H219 9879   5.911   6.146   6.319  1.6267  0.1352  1.3179
   31MOL   H220 9880   5.873   5.858   6.257  2.0728  1.5363 -0.0246
   31MOL   H221 9881   5.709   6.121   6.461  0.2071  0.2869  0.7896
   31MOL   H222 9882   5.609   6.078   6.686  1.5640  0.6835  1.1857
   31MOL   H223 9883   5.621   5.865   6.778 -0.8596 -1.8230 -1.0811
   31MOL   H224 9884   5.771   5.669   6.670 -2.0071 -0.3220 -0.2198
   31MOL   H225 9885   5.841   5.704   6.444  1.6069  0.6221 -0.1407
   31MOL   C226 9886   5.726   5.998   6.188  0.1407 -0.1576 -0.2878
   31MOL   C227 9887   5.760   6.027   6.036 -0.5672  0.1838  0.3920
   31MOL   C228 9888   5.843   5.914   5.977 -0.5186  0.5585  0.3629
   31MOL   C229 9889   5.781   5.796   5.928 -0.3081  0.1536 -0.7092
   31MOL   C230 9890   5.853   5.689   5.872 -0.2273  0.1621  0.4112
   31MOL   C231 9891   5.989   5.706   5.862  0.4225  0.6158  0.6962
   31MOL   C232 9892   6.051   5.823   5.908 -0.5350 -0.2810 -0.7622
   31MOL   C233 9893   5.977   5.926   5.965  0.3070 -0.4680 -0.1701
   31MOL   H234 9894   5.668   6.076   6.237 -2.4651 -0.6370 -2.5051
   31MOL   H235 9895   5.655   5.916   6.180  1.4855 -1.4850  0.9617
   31MOL   H236 9896   5.825   6.114   6.042 -1.2220  0.5663  2.6598
   31MOL   H237 9897   5.674   5.787   5.938 -0.5159  3.2683  0.2180
   31MOL   H238 9898   5.816   5.595   5.834  3.0950 -0.5612 -1.2272
   31MOL   H239 9899   6.043   5.629   5.810 -0.0643  0.0685  0.9911
   31MOL   H240 9900   6.158   5.831   5.903 -0.5598  0.2995 -0.3861
   31MOL   H241 9901   6.042   6.008   5.990 -0.3982  0.2150 -0.5319
   31MOL   C242 9902   5.629   6.057   5.959 -0.0912 -0.3569  0.6055
   31MOL   C243 9903   5.637   6.072   5.804  0.1866 -0.0509  0.7342
   31MOL   C244 9904   5.503   6.093   5.732 -0.5058 -0.2173  0.3048
   31MOL   C245 9905   5.484   6.020   5.611 -0.3826 -0.2589 -0.0291
   31MOL   C246 9906   5.364   6.025   5.538 -0.4358 -0.0031  0.5540
   31MOL   C247 9907   5.251   6.097   5.587 -0.0470  0.4413  0.2712
   31MOL   C248 9908   5.269   6.170   5.710  0.7997  0.0057 -0.3233
   31MOL   C249 9909   5.391   6.161   5.780 -0.4172 -0.4037 -0.0145
   31MOL   H250 9910   5.587   6.151   5.994 -1.8520 -0.1841 -1.8233
   31MOL   H251 9911   5.547   5.986   5.977 -0.3290 -0.1855  0.1857
   31MOL   H252 9912   5.673   5.979   5.759 -0.1737  0.7671 -1.2776
   31MOL   H253 9913   5.561   5.957   5.570 -0.3575 -0.4900  0.3762
   31MOL   H254 9914   5.365   5.981   5.440 -2.3482  0.3720  0.3574
   31MOL   H255 9915   5.163   6.102   5.526 -0.1433 -0.4923  0.3288
   31MOL   H256 9916   5.189   6.229   5.749  2.5682  1.5230  1.0807
   31MOL   H257 9917   5.394   6.216   5.873  1.2869  0.9324 -0.8197
   31MOL   C258 9918   5.735   6.178   5.760  0.3843  0.3591 -0.0789
   31MOL   C259 9919   5.785   6.168   5.615 -0.0530 -0.6169  0.6206
   31MOL   C260 9920   5.832   6.300   5.556  0.4367  0.4898 -0.2533
   31MOL   C261 9921   5.923   6.378   5.619 -0.7663  0.0805 -0.2090
   31MOL   C262 9922   5.961   6.505   5.566  0.3999  0.4899  0.7453
   31MOL   C263 9923   5.900   6.537   5.443  1.0324 -0.1359 -0.2488
   31MOL   C264 9924   5.808   6.456   5.376  0.2125  0.0680 -0.3402
   31MOL   C265 9925   5.770   6.333   5.436  0.1841  1.0711  0.3211
   31MOL   H266 9926   5.828   6.171   5.817  0.2426 -0.4445  0.0527
   31MOL   H267 9927   5.685   6.273   5.779  0.4012  0.2769  0.3731
   31MOL   H268 9928   5.701   6.132   5.556 -1.2949  2.8132  0.1832
   31MOL   H269 9929   5.971   6.348   5.711  0.4571 -2.0119 -1.4986
   31MOL   H270 9930   6.040   6.561   5.613 -0.1924  1.9768  0.0028
   31MOL   H271 9931   5.934   6.632   5.404 -0.1846  1.1380  1.6835
   31MOL   H272 9932   5.773   6.488   5.279  2.3215  2.2016 -0.4523
   31MOL   H273 9933   5.704   6.268   5.381 -0.7678  0.1575  2.4778
   31MOL   C274 9934   5.894   6.055   5.589  0.2954 -0.5927 -0.0188
   31MOL   C275 9935   5.940   6.033   5.444 -0.6671  0.8200  0.4198
   31MOL   C276 9936   6.072   5.951   5.431 -0.0594  0.4989 -0.3034
   31MOL   C277 9937   6.079   5.809   5.466  0.6037 -0.1849  0.1746
   31MOL   C278 9938   6.204   5.747   5.449  0.2951  0.6977  0.0653
   31MOL   C279 9939   6.312   5.816   5.398 -0.3510  0.0748  0.1042
   31MOL   C280 9940   6.306   5.955   5.371  0.1793  0.8523  0.2108
   31MOL   C281 9941   6.183   6.021   5.390  0.0509  0.0466 -0.9267
   31MOL   H282 9942   5.864   5.959   5.632 -0.0703 -1.2589 -1.7153
   31MOL   H283 9943   5.980   6.086   5.648 -0.3386 -4.2511  3.0155
   31MOL   H284 9944   5.959   6.133   5.404 -3.4310  0.9652 -0.7075
   31MOL   H285 9945   5.988   5.759   5.497  0.7039 -0.9111 -0.6658
   31MOL   H286 9946   6.202   5.645   5.484 -1.6794  1.4451  2.2171
   31MOL   H287 9947   6.407   5.765   5.404 -1.2357 -1.7310 -1.1275
   31MOL   H288 9948   6.393   6.004   5.330  1.6976 -0.5126  1.7359
   31MOL   H289 9949   6.191   6.128   5.381 -0.7581  0.0521 -1.5588
   31MOL   C290 9950   5.828   5.960   5.369  0.0558 -0.2487  0.0719
   31MOL   C291 9951   5.858   5.915   5.228  0.7957 -0.1613 -0.4181
   31MOL   C292 9952   5.726   5.842   5.185 -0.0930  0.3847 -0.3121
   31MOL   C293 9953   5.721   5.701   5.198  0.1719  0.0674  0.2306
   31MOL   C294 9954   5.607   5.633   5.169 -0.5370  0.1771  0.3690
   31MOL   C295 9955   5.495   5.699   5.114 -0.0479 -0.1518 -0.0796
   31MOL   C296 9956   5.495   5.843   5.120 -0.3757  0.3248  0.2613
   31MOL   C297 9957   5.609   5.916   5.151 -0.1191  0.3544 -1.2557
   31MOL   H298 9958   5.742   6.027   5.367 -0.3730 -0.7596  1.1078
   31MOL   H299 9959   5.782   5.888   5.436 -1.1876 -0.8116 -1.3728
   31MOL   H300 9960   5.931   5.835   5.222 -0.5046 -1.4383  0.3483
   31MOL   H301 9961   5.808   5.651   5.239 -0.7505 -1.3319  0.5188
   31MOL   H302 9962   5.601   5.526   5.179  0.5920  0.0584 -0.0555
   31MOL   H303 9963   5.404   5.644   5.096 -1.1323  1.1145  1.4303
   31MOL   H304 9964   5.405   5.898   5.097 -0.6712  0.0436  0.7293
   31MOL   H305 9965   5.610   6.024   5.151  2.6337  0.4008  0.9371
   31MOL   C306 9966   5.903   6.035   5.142 -0.4261  0.4216  0.4176
   31MOL   C307 9967   5.927   6.009   4.992 -0.8639  0.1153 -0.3102
   31MOL   C308 9968   6.014   5.890   4.957 -0.7408 -0.3552  0.1041
   31MOL   C309 9969   5.998   5.814   4.840 -0.2021 -0.0948  0.2733
   31MOL   C310 9970   6.096   5.722   4.806  0.4700  0.7668  0.2784
   31MOL   C311 9971   6.202   5.687   4.895 -0.4926 -0.4815 -0.6705
   31MOL   C312 9972   6.211   5.758   5.018  0.1024 -0.4038 -0.3941
   31MOL   C313 9973   6.114   5.856   5.051  0.4743 -0.1119 -0.7126
   31MOL   H314 9974   6.000   6.069   5.177  0.9598 -0.0497 -2.8014
   31MOL   H315 9975   5.833   6.119   5.150 -1.3656 -0.2279 -0.6783
   31MOL   H316 9976   5.977   6.094   4.944  0.3897 -0.5019 -0.1279
   31MOL   H317 9977   5.914   5.836   4.777  0.4304  0.6732 -0.3136
   31MOL   H318 9978   6.078   5.675   4.710  0.8431  0.1730  0.4960
   31MOL   H319 9979   6.280   5.618   4.869  0.6935  1.3902 -2.1999
   31MOL   H320 9980   6.290   5.739   5.090 -0.3848 -0.8338  0.0310
   31MOL   H321 9981   6.125   5.918   5.139 -0.4868  1.8861 -1.9824
   31MOL   H322 9982   5.831   5.992   4.944 -2.2049 -0.1966  2.4016
   32MOL     C1 9983   4.402   0.363   2.016  0.2461 -1.1025 -0.3905
   32MOL     C2 9984   4.479   0.300   1.900  0.4116 -0.0832 -0.4306
   32MOL     C3 9985   4.623   0.360   1.891  0.3192  0.4327  0.1942
   32MOL     C4 9986   4.706   0.379   2.009  0.3365  0.2134 -0.1329
   32MOL     C5 9987   4.829   0.445   1.995  0.5647 -0.8567  0.2691
   32MOL     C6 9988   4.879   0.492   1.870 -0.3752  0.3764  0.2006
   32MOL     C7 9989   4.797   0.481   1.754 -0.0794  0.3504  0.1828
   32MOL     C8 9990   4.672   0.420   1.771  0.3374  0.3801 -0.2738
   32MOL     H9 9991   4.296   0.340   2.021  0.4574 -1.7724  1.4163
   32MOL    H10 9992   4.445   0.343   2.114 -2.3926 -2.8061  0.4678
   32MOL    H11 9993   4.416   0.316   1.812 -0.2292  0.5225  0.1356
   32MOL    H12 9994   4.693   0.343   2.110 -0.4101 -2.9239 -1.3058
   32MOL    H13 9995   4.890   0.452   2.083 -0.0989 -0.7199  0.7230
   32MOL    H14 9996   4.978   0.537   1.863 -1.4492  2.5553 -1.6004
   32MOL    H15 9997   4.827   0.521   1.658  2.3040  0.5150  0.9800
   32MOL    H16 9998   4.608   0.414   1.684  1.1739  0.7183 -0.9177
   32MOL    H17 9999   4.399   0.472   2.015 -2.0962 -1.1411 -1.0483
   32MOL    C1810000   4.481   0.147   1.934 -0.0322 -0.0594  0.5135
   32MOL    C1910001   4.573   0.067   1.847  0.0009  0.2365  0.3972
   32MOL    C2010002   4.673   8.101   1.930  0.3405 -0.5461  0.3115
   32MOL    C2110003   4.809   0.026   1.930  0.0976 -0.5257  0.0566
   32MOL    C2210004   4.901   8.064   1.999  0.1768  0.0078 -0.6327
   32MOL    C2310005   4.867   7.950   2.073  0.1020 -0.5543 -0.1080
   32MOL    C2410006   4.731   7.918   2.085  0.4995 -0.6027 -0.5137
   32MOL    C2510007   4.636   7.992   2.014  1.1511 -1.1854  0.0480
   32MOL    H2610008   4.382   0.103   1.934 -0.1259  0.1509  0.4177
   32MOL    H2710009   4.513   0.146   2.038  1.7992 -0.8003 -0.0398
   32MOL    H2810010   4.627   0.124   1.771 -0.4233  0.5693  0.3462
   32MOL    H2910011   4.839   0.096   1.853 -0.6697 -0.6054 -0.3214
   32MOL    H3010012   5.006   8.088   1.988  1.0406 -2.0324  2.4792
   32MOL    H3110013   4.945   7.896   2.125  2.7047  2.8040 -0.3519
   32MOL    H3210014   4.691   7.841   2.150 -0.0433 -1.5375 -1.9200
   32MOL    H3310015   4.534   7.958   2.020  0.6406 -0.1488 -2.1042
   32MOL    C3410016   4.490   8.080   1.758  0.4103  0.6688 -0.3763
   32MOL    C3510017   4.392   0.014   1.642 -0.0564 -0.1782 -0.6823
   32MOL    C3610018   4.433   0.134   1.564 -0.0640  0.8038 -0.8222
   32MOL    C3710019   4.344   0.238   1.539 -0.1834  0.0154 -0.1134
   32MOL    C3810020   4.385   0.348   1.456  0.2534  0.2256  0.0957
   32MOL    C3910021   4.513   0.349   1.394  0.0769 -0.0512 -0.4053
   32MOL    C4010022   4.605   0.245   1.415  0.2969  0.5578  0.0698
   32MOL    C4110023   4.561   0.139   1.498 -0.2175 -0.5856 -0.4974
   32MOL    H4210024   4.442   8.014   1.831  0.2264 -1.0993 -2.0562
   32MOL    H4310025   4.560   8.011   1.713  0.6033 -0.1620  1.1563
   32MOL    H4410026   4.295   0.034   1.688  1.5974 -1.3518  3.5686
   32MOL    H4510027   4.244   0.240   1.580  0.3785 -2.7689  1.5035
   32MOL    H4610028   4.315   0.430   1.446 -2.2030 -1.9361 -0.6448
   32MOL    H4710029   4.539   0.433   1.331  0.8756  0.6637  0.8579
   32MOL    H4810030   4.697   0.250   1.359 -0.3616  0.8192 -1.0123
   32MOL    H4910031   4.624   0.052   1.511  0.5802  0.2359  1.1868
   32MOL    C5010032   4.365   8.018   1.531 -0.2582 -0.6608 -0.0378
   32MOL    C5110033   4.274   7.901   1.585 -0.1320 -0.0371 -0.0938
   32MOL    C5210034   4.139   7.941   1.630  0.9088 -0.7037  0.4668
   32MOL    C5310035   4.044   7.987   1.539  0.0906  0.8184  0.3153
   32MOL    C5410036   3.909   8.020   1.578 -0.7390 -0.0017  0.4448
   32MOL    C5510037   3.865   7.995   1.714  0.3456 -0.3180 -0.2246
   32MOL    C5610038   3.966   7.938   1.801  0.3211  0.8739 -0.0923
   32MOL    C5710039   4.094   7.911   1.758 -0.0361  0.0840  0.1074
   32MOL    H5810040   4.466   7.984   1.512  0.4306  0.7076  1.0233
   32MOL    H5910041   4.329   8.058   1.436 -0.3125  0.2057  0.3384
   32MOL    H6010042   4.324   7.858   1.672 -1.5342 -2.4242 -0.4384
   32MOL    H6110043   4.079   8.013   1.440  2.2169  0.5289  0.9607
   32MOL    H6210044   3.835   8.070   1.517 -1.5838  0.8271  2.1212
   32MOL    H6310045   3.763   8.013   1.742 -0.1412 -0.3518 -1.9434
   32MOL    H6410046   3.948   7.907   1.903 -0.9004  2.1149  0.0850
   32MOL    H6510047   4.161   7.866   1.830 -1.7962 -4.7020 -1.0427
   32MOL    C6610048   4.276   7.794   1.475  0.3100 -0.5893  0.2290
   32MOL    C6710049   4.402   7.704   1.458 -0.9252  0.0383 -0.0249
   32MOL    C6810050   4.466   7.673   1.595 -0.1692  0.1143  0.8465
   32MOL    C6910051   4.596   7.716   1.633  1.0820  0.3608 -0.0859
   32MOL    C7010052   4.633   7.710   1.771  0.4016 -0.2448  0.1634
   32MOL    C7110053   4.548   7.652   1.864  0.5496 -0.1576  0.0778
   32MOL    C7210054   4.427   7.593   1.827  0.3037  0.4248  0.5937
   32MOL    C7310055   4.388   7.602   1.691 -0.1402  0.3884 -0.1529
   32MOL    H7410056   4.236   7.840   1.385  0.9130 -0.2496  0.1337
   32MOL    H7510057   4.197   7.723   1.500  1.1813 -1.0364  1.7814
   32MOL    H7610058   4.468   7.768   1.399 -0.7318  0.1569  0.3140
   32MOL    H7710059   4.662   7.769   1.567 -0.6125  2.4477 -0.1643
   32MOL    H7810060   4.731   7.749   1.793  0.2030  0.1393  0.3689
   32MOL    H7910061   4.581   7.652   1.966 -0.0101  1.5680  0.2741
   32MOL    H8010062   4.353   7.554   1.895  0.1332 -2.6029 -1.2570
   32MOL    H8110063   4.285   7.573   1.677 -0.4648  0.9627  0.9793
   32MOL    C8210064   4.370   7.580   1.378  0.9242 -0.2126 -0.7391
   32MOL    C8310065   4.482   7.467   1.358  0.1786  0.6478 -0.6376
   32MOL    C8410066   4.409   7.348   1.297 -0.1219 -0.5558  0.3359
   32MOL    C8510067   4.370   7.231   1.363  0.0088 -0.7668  0.8524
   32MOL    C8610068   4.316   7.119   1.296 -0.5937  0.2593 -0.0402
   32MOL    C8710069   4.281   7.118   1.161  0.4546  0.2252 -1.0262
   32MOL    C8810070   4.306   7.239   1.093 -0.3242  0.3584  0.5425
   32MOL    C8910071   4.372   7.351   1.158 -0.6790 -0.0338 -0.8888
   32MOL    H9010072   4.318   7.616   1.289  1.0579  1.2551 -0.2364
   32MOL    H9110073   4.298   7.520   1.434  1.2454  0.1732  0.0878
   32MOL    H9210074   4.522   7.448   1.458 -1.7376  2.6625  0.5447
   32MOL    H9310075   4.389   7.220   1.469 -0.6453 -1.9823  0.8615
   32MOL    H9410076   4.293   7.034   1.358  1.0691  0.3724  0.7393
   32MOL    H9510077   4.255   7.022   1.120 -1.4643 -0.4596  1.6475
   32MOL    H9610078   4.288   7.235   0.987 -1.5670  1.9849  0.6757
   32MOL    H9710079   4.396   7.436   1.097  0.0057  0.5349  0.1468
   32MOL    C9810080   4.608   7.503   1.281 -0.2819  0.4748  0.1178
   32MOL    C9910081   4.717   7.391   1.262 -0.1360 -0.6882 -0.5821
   32MOL   C10010082   4.777   7.399   1.121 -0.1801  0.0293  0.0825
   32MOL   C10110083   4.751   7.298   1.025  0.0151 -0.1162 -0.3791
   32MOL   C10210084   4.813   7.298   0.898  0.4245  0.4029  0.4954
   32MOL   C10310085   4.902   7.402   0.862  0.6224 -0.7728 -0.1792
   32MOL   C10410086   4.924   7.511   0.951  0.6830 -0.0805  0.4420
   32MOL   C10510087   4.860   7.504   1.079 -1.3471 -0.4769  1.5424
   32MOL   H10610088   4.651   7.590   1.331  0.1404 -0.0773  0.7035
   32MOL   H10710089   4.577   7.545   1.185  0.7021  0.8016 -0.0613
   32MOL   H10810090   4.666   7.295   1.259 -0.6423 -0.4118 -0.9220
   32MOL   H10910091   4.687   7.212   1.042 -0.8139  0.7355  0.8406
   32MOL   H11010092   4.784   7.217   0.833  1.2923  1.2488 -0.9596
   32MOL   H11110093   4.956   7.399   0.769  0.1524 -0.7725 -0.4519
   32MOL   H11210094   4.993   7.586   0.915  1.8893 -1.2033  0.3799
   32MOL   H11310095   4.881   7.595   1.133  0.3859  0.1247 -0.0964
   32MOL   C11410096   4.814   7.384   1.376  0.0693 -0.2072 -0.4249
   32MOL   C11510097   4.947   7.311   1.349  0.1438 -0.5021  0.1667
   32MOL   C11610098   5.055   7.344   1.448 -0.8127  0.1278  0.8199
   32MOL   C11710099   5.047   7.284   1.578  0.9990 -0.3115  0.4880
   32MOL   C11810100   5.157   7.319   1.672 -0.6180 -0.4823  0.0453
   32MOL   C11910101   5.268   7.406   1.638  0.3342  0.1027  0.4534
   32MOL   C12010102   5.273   7.457   1.504  0.3622  0.4283 -0.4949
   32MOL   C12110103   5.163   7.428   1.410 -0.3058  0.0017 -0.2243
   32MOL   H12210104   4.766   7.362   1.472  0.5463 -1.1832 -0.3980
   32MOL   H12310105   4.840   7.487   1.401  1.9225 -0.3762 -1.5476
   32MOL   H12410106   4.991   7.342   1.254  1.5031  2.5435  1.7414
   32MOL   H12510107   4.966   7.220   1.607 -0.9464  1.2780 -1.2955
   32MOL   H12610108   5.162   7.282   1.773  0.3709 -0.6417 -0.0544
   32MOL   H12710109   5.353   7.431   1.699 -0.5117  1.5790  1.0461
   32MOL   H12810110   5.359   7.513   1.472  0.5817  0.9710  0.9880
   32MOL   H12910111   5.173   7.471   1.311 -0.6360 -0.8392 -0.6292
   32MOL   C13010112   4.913   7.157   1.341 -0.3171  0.5854  0.1245
   32MOL   C13110113   5.040   7.073   1.305  0.2059  0.4312  0.3414
   32MOL   C13210114   5.096   6.997   1.428 -0.0743  0.5353  0.4945
   32MOL   C13310115   5.040   6.881   1.485  0.2342  0.4585  0.4863
   32MOL   C13410116   5.091   6.814   1.594 -0.3121 -0.1680 -0.1747
   32MOL   C13510117   5.189   6.881   1.672  0.4687 -0.1503  0.0355
   32MOL   C13610118   5.246   6.995   1.620  0.3741 -0.7309  0.0802
   32MOL   C13710119   5.206   7.047   1.498 -0.2758 -0.5798  0.2088
   32MOL   H13810120   4.836   7.151   1.264 -1.2115  1.2616  0.9542
   32MOL   H13910121   4.848   7.135   1.426  0.0832  1.0745  0.5555
   32MOL   H14010122   5.119   7.139   1.270  1.4018 -0.2404  1.6798
   32MOL   H14110123   4.953   6.839   1.437  1.1066 -1.6995  0.7514
   32MOL   H14210124   5.051   6.717   1.618 -0.6044  0.4904  2.0778
   32MOL   H14310125   5.231   6.841   1.764  0.9404 -0.7050 -0.4151
   32MOL   H14410126   5.332   7.033   1.673 -1.5571  0.1873  2.6837
   32MOL   H14510127   5.256   7.133   1.456 -0.1449  0.6596  2.8377
   32MOL   C14610128   5.013   6.974   1.188  0.4454 -0.1877  0.3453
   32MOL   C14710129   5.055   7.016   1.042  0.0238 -0.7936  0.1674
   32MOL   C14810130   5.195   7.082   1.034 -0.6570 -0.7942  0.4760
   32MOL   C14910131   5.309   7.005   1.041 -0.2567  0.5368  0.6348
   32MOL   C15010132   5.438   7.068   1.021 -0.4162  1.0313  0.2938
   32MOL   C15110133   5.453   7.203   0.988 -0.1895  0.2084 -0.2195
   32MOL   C15210134   5.334   7.277   0.987  0.6641  0.2061  0.1746
   32MOL   C15310135   5.207   7.216   1.005  0.8271  1.0525 -0.8945
   32MOL   H15410136   4.908   6.946   1.181 -0.0729  1.2063  2.3351
   32MOL   H15510137   5.069   6.882   1.204 -1.0250 -1.2477 -0.4836
   32MOL   H15610138   4.985   7.094   1.011  1.0894  0.1929  0.1681
   32MOL   H15710139   5.315   6.898   1.058 -0.6209  0.6163  1.2757
   32MOL   H15810140   5.526   7.006   1.023 -0.7846  0.5368  1.9065
   32MOL   H15910141   5.552   7.244   0.977  0.2269  0.4075  3.7172
   32MOL   H16010142   5.339   7.384   0.971 -1.1973  0.8078  3.2730
   32MOL   H16110143   5.115   7.271   1.018 -0.1073 -0.7342  0.3161
   32MOL   C16210144   5.039   6.897   0.949  0.5565  0.2363 -0.0410
   32MOL   C16310145   5.054   6.920   0.793 -0.7537  0.0674 -0.5709
   32MOL   C16410146   5.132   6.811   0.715  0.0351 -0.5562 -0.4976
   32MOL   C16510147   5.202   6.849   0.598  0.7299  0.1327 -0.6214
   32MOL   C16610148   5.258   6.751   0.516 -0.2813  0.1837 -0.3516
   32MOL   C16710149   5.240   6.614   0.545  0.5774 -0.1280  0.7834
   32MOL   C16810150   5.168   6.574   0.662  0.6029  0.6326 -0.3440
   32MOL   C16910151   5.116   6.672   0.751  0.1455 -0.1981 -0.2553
   32MOL   H17010152   4.950   6.838   0.969 -0.9376  2.1329 -0.9508
   32MOL   H17110153   5.112   6.819   0.971 -1.0697 -1.4195 -0.3394
   32MOL   H17210154   5.112   7.012   0.787 -1.1977  0.5269  1.5065
   32MOL   H17310155   5.211   6.954   0.574  0.0324  0.6254  1.1444
   32MOL   H17410156   5.322   6.783   0.435  2.9446 -0.5962  1.7689
   32MOL   H17510157   5.269   6.543   0.469 -1.4371 -0.6499  0.4807
   32MOL   H17610158   5.136   6.472   0.677  0.9998  0.4311 -0.8568
   32MOL   H17710159   5.046   6.642   0.828  1.9479 -1.7073  0.8409
   32MOL   C17810160   4.925   6.960   0.716 -0.0912 -0.2673 -0.2630
   32MOL   C17910161   4.810   6.859   0.706  0.4831  0.9015  0.4177
   32MOL   C18010162   4.678   6.934   0.718  0.5814  0.4850 -0.4111
   32MOL   C18110163   4.607   6.976   0.604  0.3298  0.0862 -0.7532
   32MOL   C18210164   4.480   7.040   0.616 -0.0324  0.4377 -0.3987
   32MOL   C18310165   4.425   7.060   0.743 -0.2123  0.0240 -0.3318
   32MOL   C18410166   4.507   7.033   0.860 -0.2071  0.0507 -0.1763
   32MOL   C18510167   4.634   6.971   0.847  0.2223  1.3821 -0.5161
   32MOL   H18610168   4.943   6.994   0.614  0.1843 -1.0045 -0.4573
   32MOL   H18710169   4.894   7.049   0.772 -2.5229  0.7197 -3.0339
   32MOL   H18810170   4.814   6.801   0.798 -1.8366  1.1968  0.7453
   32MOL   H18910171   4.638   6.942   0.506  1.5552 -0.4045 -0.2083
   32MOL   H19010172   4.417   7.066   0.532  0.6559  1.9361 -0.4725
   32MOL   H19110173   4.328   7.100   0.768  0.4011  0.6860  1.0571
   32MOL   H19210174   4.461   7.052   0.956 -0.9700 -0.5582 -0.4210
   32MOL   H19310175   4.694   6.958   0.935 -0.1874  0.7621 -0.3210
   32MOL   C19410176   4.819   6.759   0.591  0.1574 -0.3538  0.3667
   32MOL   C19510177   4.722   6.645   0.583  0.3393 -0.6620 -0.0743
   32MOL   C19610178   4.694   6.595   0.435 -0.1016  0.7869  0.1752
   32MOL   C19710179   4.800   6.547   0.355  0.4176  0.1754 -0.0573
   32MOL   C19810180   4.770   6.483   0.233  0.0018  0.4477  0.3434
   32MOL   C19910181   4.640   6.474   0.180  0.7964  0.0504  0.2176
   32MOL   C20010182   4.530   6.523   0.260 -0.7406 -0.2107 -0.3193
   32MOL   C20110183   4.564   6.585   0.385  0.3209 -0.2892  0.3111
   32MOL   H20210184   4.916   6.710   0.593  0.9602  1.1593 -0.5280
   32MOL   H20310185   4.812   6.819   0.500 -1.1246  2.5449  2.3046
   32MOL   H20410186   4.631   6.691   0.622  1.3125  0.2438  1.1720
   32MOL   H20510187   4.900   6.549   0.396 -0.5348  0.6946  2.2854
   32MOL   H20610188   4.843   6.437   0.169 -1.1111  0.9556 -1.3283
   32MOL   H20710189   4.626   6.430   0.083  2.1176 -0.2774  0.1717
   32MOL   H20810190   4.428   6.516   0.224 -0.8607 -0.1432  0.0144
   32MOL   H20910191   4.479   6.608   0.448  0.6800 -1.3146  1.1866
   32MOL   C21010192   4.768   6.516   0.664  0.4516  0.2159 -0.5427
   32MOL   C21110193   4.720   6.504   0.811 -0.1111 -0.2746 -0.8025
   32MOL   C21210194   4.569   6.509   0.825 -0.1309  0.2043 -0.6743
   32MOL   C21310195   4.511   6.632   0.853  0.2961 -0.1594  0.3265
   32MOL   C21410196   4.374   6.644   0.864 -0.2368  0.6731  0.6080
   32MOL   C21510197   4.281   6.532   0.843 -0.7060  0.5840  0.1311
   32MOL   C21610198   4.341   6.410   0.806 -0.6187 -0.2883  0.6650
   32MOL   C21710199   4.483   6.401   0.801 -0.2462 -0.2090 -0.0702
   32MOL   H21810200   4.875   6.509   0.647  0.2093 -0.5700 -1.8425
   32MOL   H21910201   4.724   6.428   0.616  1.0105 -1.4991  1.9800
   32MOL   H22010202   4.767   6.583   0.870  1.2728  0.0168 -2.2572
   32MOL   H22110203   4.577   6.718   0.861  0.9580 -0.7643  1.4795
   32MOL   H22210204   4.328   6.738   0.890 -0.0892  0.7636  0.5395
   32MOL   H22310205   4.174   6.543   0.846 -0.8131  0.1079 -1.4638
   32MOL   H22410206   4.282   6.324   0.780  1.6770 -2.4341  2.3476
   32MOL   H22510207   4.521   6.306   0.765  2.4527  1.1988 -1.0602
   32MOL   C22610208   4.776   6.372   0.874  0.0521  0.4782 -0.6579
   32MOL   C22710209   4.922   6.358   0.897  0.0075 -0.1650  0.2792
   32MOL   C22810210   4.985   6.448   1.006  0.3324  0.6396  0.0076
   32MOL   C22910211   5.124   6.458   1.011  0.1931 -0.5963  0.2905
   32MOL   C23010212   5.182   6.538   1.114  0.0602  0.4142  0.4037
   32MOL   C23110213   5.104   6.590   1.217  0.1254  0.2295  0.1292
   32MOL   C23210214   4.961   6.585   1.205  1.2494  0.0165 -0.3008
   32MOL   C23310215   4.900   6.512   1.102 -0.0797 -0.2726  0.1591
   32MOL   H23410216   4.740   6.294   0.807 -0.5207  1.3259 -1.3635
   32MOL   H23510217   4.726   6.356   0.970  1.3302  1.0539  0.1166
   32MOL   H23610218   4.977   6.383   0.807  0.6061 -2.7558 -0.1186
   32MOL   H23710219   5.188   6.422   0.933  2.5467 -1.1111  2.3915
   32MOL   H23810220   5.287   6.557   1.124  0.5354 -1.4958 -0.6323
   32MOL   H23910221   5.150   6.640   1.301  0.0414 -1.0757  0.9579
   32MOL   H24010222   4.909   6.644   1.279 -0.3982  0.2267 -1.5974
   32MOL   H24110223   4.793   6.502   1.096 -0.1820 -0.0159  1.4408
   32MOL   C24210224   4.959   6.216   0.944 -0.1017  0.0049 -0.0850
   32MOL   C24310225   4.975   6.108   0.832 -0.3808 -0.1409  0.5724
   32MOL   C24410226   5.097   6.132   0.743 -0.2766  0.3877 -0.1689
   32MOL   C24510227   5.072   6.178   0.610 -0.5299 -0.3922 -0.0015
   32MOL   C24610228   5.183   6.223   0.535  1.0336 -0.3117 -0.0165
   32MOL   C24710229   5.313   6.199   0.576 -0.2658 -0.0045  0.5190
   32MOL   C24810230   5.339   6.150   0.703 -0.1854  0.2850  0.8457
   32MOL   C24910231   5.232   6.114   0.785 -0.2310  0.4456 -0.1333
   32MOL   H25010232   4.879   6.186   1.012 -0.4884  0.6429 -0.2504
   32MOL   H25110233   5.048   6.209   1.007 -0.8792 -0.3679  0.9948
   32MOL   H25210234   4.889   6.123   0.767  1.1329  0.1662 -1.4054
   32MOL   H25310235   4.972   6.206   0.579 -0.5637 -1.9487 -1.4069
   32MOL   H25410236   5.164   6.275   0.442  1.1052 -0.6705 -0.2356
   32MOL   H25510237   5.399   6.219   0.513 -0.3830 -1.9918 -0.3171
   32MOL   H25610238   5.441   6.126   0.731 -0.1868 -1.3969 -0.5517
   32MOL   H25710239   5.254   6.075   0.884 -0.5313 -1.5536 -0.8256
   32MOL   C25810240   4.979   5.960   0.883  0.1075 -0.3115 -0.3231
   32MOL   C25910241   4.848   5.898   0.937  0.2489  0.3544 -0.3787
   32MOL   C26010242   4.725   5.940   0.854 -0.1747 -0.2853 -0.1474
   32MOL   C26110243   4.720   5.910   0.718  0.6086  0.2935 -0.0032
   32MOL   C26210244   4.609   5.963   0.645 -0.2261  0.1278  0.2571
   32MOL   C26310245   4.497   6.023   0.708 -0.2522  0.6331  0.1743
   32MOL   C26410246   4.504   6.057   0.845  1.0712  0.2567 -0.7285
   32MOL   C26510247   4.621   6.008   0.919  0.2354 -0.4293  0.4456
   32MOL   H26610248   5.047   5.934   0.965 -0.0099  1.8545  0.4968
   32MOL   H26710249   4.997   5.902   0.793 -1.8849  1.1878 -1.7209
   32MOL   H26810250   4.826   5.947   1.032 -2.8474 -2.0412  0.2054
   32MOL   H26910251   4.808   5.865   0.676  1.0973  0.9102  0.3545
   32MOL   H27010252   4.613   5.952   0.537 -0.1416  2.3550  0.0087
   32MOL   H27110253   4.412   6.052   0.649  0.0789  1.0891 -0.0862
   32MOL   H27210254   4.424   6.112   0.892  0.7322  0.9376 -2.0648
   32MOL   H27310255   4.633   6.032   1.023  0.3410 -0.6698  0.4872
   32MOL   C27410256   4.849   5.743   0.947  0.1817  0.0674 -0.2710
   32MOL   C27510257   4.892   5.687   1.082  0.4760  0.6358 -1.2694
   32MOL   C27610258   4.794   5.738   1.186  0.3719  0.6325  0.7035
   32MOL   C27710259   4.652   5.757   1.171 -0.0300  0.4234 -0.0017
   32MOL   C27810260   4.575   5.812   1.273 -0.1977 -0.4016 -0.0594
   32MOL   C27910261   4.626   5.840   1.404 -0.1750 -0.1501 -0.1912
   32MOL   C28010262   4.766   5.814   1.420  1.0235  0.0694  0.6280
   32MOL   C28110263   4.849   5.771   1.313  0.5751  0.9917 -0.0217
   32MOL   H28210264   4.919   5.703   0.873  1.8755  2.6031 -0.1027
   32MOL   H28310265   4.756   5.696   0.914  2.5403 -3.3360 -2.4289
   32MOL   H28410266   4.988   5.725   1.118  0.6113 -0.2676 -0.6531
   32MOL   H28510267   4.602   5.748   1.076  0.8574 -2.4571 -0.2407
   32MOL   H28610268   4.473   5.835   1.247  0.0529 -1.5541 -2.1015
   32MOL   H28710269   4.578   5.890   1.487 -1.3014  1.1095 -1.5841
   32MOL   H28810270   4.810   5.835   1.517 -1.9231  0.2186  1.9883
   32MOL   H28910271   4.956   5.769   1.329  0.3280  1.0030  1.7841
   32MOL   C29010272   4.896   5.530   1.083  0.2553  0.5125 -0.6733
   32MOL   C29110273   5.010   5.461   1.005  0.3239 -0.3493 -0.1708
   32MOL   C29210274   5.137   5.544   1.011 -0.2534 -0.1956  0.4050
   32MOL   C29310275   5.172   5.610   0.895 -0.4558 -0.2451 -0.4084
   32MOL   C29410276   5.277   5.708   0.895  0.1916 -0.3984 -0.3755
   32MOL   C29510277   5.347   5.730   1.014  0.2124 -0.1687  0.3706
   32MOL   C29610278   5.297   5.673   1.137 -0.6657 -0.0210  0.0255
   32MOL   C29710279   5.201   5.572   1.132 -0.1282  0.0880  0.2946
   32MOL   H29810280   4.805   5.487   1.042 -0.0786  0.1919  0.3870
   32MOL   H29910281   4.899   5.497   1.186  2.5200  1.3936 -0.4261
   32MOL   H30010282   4.984   5.470   0.899  1.4804  0.4135 -0.3981
   32MOL   H30110283   5.124   5.579   0.803 -2.3709 -0.2921  0.5688
   32MOL   H30210284   5.300   5.759   0.802 -1.6546  1.6020  0.2432
   32MOL   H30310285   5.423   5.805   1.031  0.9498  0.1660 -3.9158
   32MOL   H30410286   5.344   5.703   1.230  0.7927  2.6116 -1.5142
   32MOL   H30510287   5.165   5.521   1.219  2.2636 -0.9753  0.7003
   32MOL   C30610288   5.028   5.316   1.050 -0.2641 -0.0676  0.1786
   32MOL   C30710289   5.117   5.231   0.954 -0.1970  0.2241  0.0415
   32MOL   C30810290   5.116   5.084   0.989  0.3167  0.2967 -0.0109
   32MOL   C30910291   4.995   5.016   1.004  0.0732 -0.1404  0.0828
   32MOL   C31010292   5.000   4.874   1.022 -0.1687 -0.0081 -0.1910
   32MOL   C31110293   5.125   4.810   1.034  0.5132 -0.4246  0.0505
   32MOL   C31210294   5.243   4.882   1.017  0.9936  0.6990 -0.2616
   32MOL   C31310295   5.235   5.016   0.988 -0.3933 -0.2948 -0.3130
   32MOL   H31410296   4.928   5.274   1.059 -0.6179  0.8171  0.4592
   32MOL   H31510297   5.068   5.315   1.152  1.4688 -0.2259 -0.4945
   32MOL   H31610298   5.213   5.271   0.985 -0.2611 -1.5508  2.7060
   32MOL   H31710299   4.893   5.050   1.004  0.5521  1.3457 -0.0874
   32MOL   H31810300   4.904   4.831   1.047  0.2697 -0.9007 -0.0421
   32MOL   H31910301   5.136   4.704   1.053 -2.5050 -0.7916  0.0408
   32MOL   H32010302   5.339   4.832   1.016  0.8216  0.3724 -1.1377
   32MOL   H32110303   5.322   5.061   0.942  0.9396  1.9019  4.0968
   32MOL   H32210304   5.092   5.246   0.849 -2.7403  0.0004  0.5673
   33MOL     C110305   1.905   2.571   4.072 -0.5744  0.0135  0.4680
   33MOL     C210306   1.902   2.425   4.114  0.1168  0.1213 -0.7497
   33MOL     C310307   1.828   2.344   4.008 -0.4826  0.2981 -1.2675
   33MOL     C410308   1.710   2.278   4.047  0.6230 -0.8264 -0.5267
   33MOL     C510309   1.628   2.212   3.960  0.5821  0.3740  0.4874
   33MOL     C610310   1.669   2.210   3.823 -0.3670 -0.0660 -0.2973
   33MOL     C710311   1.782   2.289   3.782  0.2244  0.6462  0.5080
   33MOL     C810312   1.864   2.355   3.876  0.1435  0.3682  0.0856
   33MOL     H910313   1.806   2.616   4.066 -0.8524 -0.1484  3.0958
   33MOL    H1010314   1.957   2.633   4.146 -0.6560 -0.0431  0.5729
   33MOL    H1110315   1.844   2.424   4.206  2.8848 -1.2878  1.0300
   33MOL    H1210316   1.679   2.285   4.151  0.9427 -0.2249 -0.4674
   33MOL    H1310317   1.538   2.157   3.983 -0.7392  1.5933 -1.6587
   33MOL    H1410318   1.609   2.153   3.754 -0.8986 -0.6838  0.6620
   33MOL    H1510319   1.805   2.301   3.678  0.7938 -0.7551  0.4668
   33MOL    H1610320   1.952   2.415   3.854  1.7745 -2.0563 -0.1942
   33MOL    H1710321   1.954   2.581   3.975  0.0952 -2.2603  0.5365
   33MOL    C1810322   2.047   2.374   4.140  0.1551  0.8967 -0.1049
   33MOL    C1910323   2.071   2.232   4.192  0.1348  0.3039  0.4594
   33MOL    C2010324   2.216   2.188   4.204  0.1403 -0.5204  0.4287
   33MOL    C2110325   2.237   2.050   4.221 -0.5115 -0.0526 -0.1152
   33MOL    C2210326   2.364   1.994   4.220  0.1858 -0.4017 -0.1610
   33MOL    C2310327   2.481   2.077   4.203 -0.0436  0.4005 -0.0605
   33MOL    C2410328   2.458   2.217   4.184 -0.8059  0.1738 -0.0118
   33MOL    C2510329   2.329   2.268   4.174  0.1343  0.7677  0.1720
   33MOL    H2610330   2.080   2.446   4.216 -0.3806 -1.4031  2.3809
   33MOL    H2710331   2.106   2.390   4.050  0.2702  1.0027 -0.0114
   33MOL    H2810332   2.028   2.178   4.108 -1.5706  1.4643  0.5566
   33MOL    H2910333   2.152   1.987   4.240  0.2410 -0.7731  0.9336
   33MOL    H3010334   2.383   1.888   4.230  1.5586 -0.1119  0.5259
   33MOL    H3110335   2.578   2.031   4.215 -0.0821  0.3074 -0.1136
   33MOL    H3210336   2.535   2.284   4.150 -1.2424  0.6645 -0.0373
   33MOL    H3310337   2.312   2.369   4.140  0.1461  0.4267 -0.8519
   33MOL    C3410338   1.993   2.205   4.327 -0.6626  1.5001  0.0363
   33MOL    C3510339   2.033   2.290   4.449  0.3331  0.0481  0.0351
   33MOL    C3610340   1.913   2.290   4.547 -0.0214 -0.0360 -0.3928
   33MOL    C3710341   1.853   2.168   4.592 -0.2912 -0.3634  0.4879
   33MOL    C3810342   1.734   2.173   4.669 -0.3965  0.3034 -0.5288
   33MOL    C3910343   1.680   2.296   4.718  0.0215 -1.0273  0.1235
   33MOL    C4010344   1.745   2.417   4.684  0.2966  0.0334  0.7236
   33MOL    C4110345   1.856   2.413   4.594  0.3994 -0.2756  0.7285
   33MOL    H4210346   2.019   2.107   4.368  0.4321  0.2457 -3.4872
   33MOL    H4310347   1.886   2.205   4.312 -0.8161  1.0541  1.0934
   33MOL    H4410348   2.057   2.389   4.412 -0.4316 -0.4653 -1.8695
   33MOL    H4510349   1.898   2.075   4.560  0.9887  0.8444 -1.2846
   33MOL    H4610350   1.679   2.083   4.690 -2.3640  1.2998 -1.2527
   33MOL    H4710351   1.601   2.283   4.790  1.1196 -1.8561  1.2018
   33MOL    H4810352   1.708   2.510   4.724  1.3333  0.8498 -0.2012
   33MOL    H4910353   1.904   2.505   4.564 -0.1373 -0.4956 -0.8284
   33MOL    C5010354   2.167   2.245   4.507  0.5221 -0.6631  0.6621
   33MOL    C5110355   2.203   2.320   4.637  0.5936 -0.5186 -0.2175
   33MOL    C5210356   2.146   2.262   4.770 -0.7458 -0.5861 -0.6428
   33MOL    C5310357   2.206   2.144   4.820  0.0666  0.8945 -0.4596
   33MOL    C5410358   2.164   2.084   4.942  0.6587 -0.0452  0.2037
   33MOL    C5510359   2.076   2.155   5.030  0.5656  0.0479  0.7702
   33MOL    C5610360   2.021   2.278   4.982 -0.2813  0.5347  0.2525
   33MOL    C5710361   2.050   2.329   4.856  0.2775  0.1444  0.7598
   33MOL    H5810362   2.249   2.250   4.435 -0.3072  1.0752 -0.2090
   33MOL    H5910363   2.151   2.142   4.538  0.2765  0.2672  3.8026
   33MOL    H6010364   2.160   2.420   4.637  1.1190 -0.2914  0.1574
   33MOL    H6110365   2.284   2.092   4.766 -1.5397  1.1929 -3.1641
   33MOL    H6210366   2.213   1.990   4.964  1.5006  0.3622  0.1121
   33MOL    H6310367   2.051   2.130   5.132 -0.5494 -0.5529  0.3614
   33MOL    H6410368   1.950   2.339   5.038 -0.2642 -0.0957  0.9636
   33MOL    H6510369   1.987   2.408   4.820 -0.2726 -0.9068 -0.6644
   33MOL    C6610370   2.355   2.348   4.665  0.1010 -0.0320  0.7046
   33MOL    C6710371   2.425   2.440   4.561  0.2520 -0.2326 -0.4394
   33MOL    C6810372   2.341   2.572   4.540  0.3719  0.2683  0.6161
   33MOL    C6910373   2.265   2.603   4.421 -0.3896  0.0520  0.1550
   33MOL    C7010374   2.180   2.710   4.415  0.1086 -0.5961  0.0454
   33MOL    C7110375   2.161   2.794   4.529  1.2586  0.9615 -1.3496
   33MOL    C7210376   2.240   2.764   4.647 -0.2478  0.7023  0.7393
   33MOL    C7310377   2.327   2.655   4.653 -0.6335  0.4118  0.1525
   33MOL    H7410378   2.413   2.257   4.680 -2.2205 -1.6110  0.3029
   33MOL    H7510379   2.363   2.395   4.763  0.2347  1.1186  0.1528
   33MOL    H7610380   2.432   2.397   4.461 -0.0206  0.5409 -0.7974
   33MOL    H7710381   2.289   2.534   4.342  2.1887  2.6025 -1.4055
   33MOL    H7810382   2.111   2.726   4.334 -0.9232 -1.2543  0.7879
   33MOL    H7910383   2.088   2.873   4.526 -1.3161 -1.3339 -0.3630
   33MOL    H8010384   2.219   2.815   4.740  2.1409 -1.6654  2.6473
   33MOL    H8110385   2.371   2.609   4.740 -1.3039 -2.6442 -1.0508
   33MOL    C8210386   2.568   2.461   4.605  0.7161  0.1678 -0.1473
   33MOL    C8310387   2.644   2.552   4.520 -0.3034 -0.0909  0.2492
   33MOL    C8410388   2.746   2.625   4.609 -0.1149 -0.1512 -0.1266
   33MOL    C8510389   2.718   2.756   4.650  0.2310 -0.2032  0.7987
   33MOL    C8610390   2.800   2.809   4.750 -0.3939 -0.3545  0.2776
   33MOL    C8710391   2.903   2.736   4.807  0.2240  0.1370  0.9802
   33MOL    C8810392   2.937   2.607   4.755  0.6221  0.0332  0.1540
   33MOL    C8910393   2.852   2.554   4.659 -0.3054 -1.0734  0.2510
   33MOL    H9010394   2.618   2.363   4.609 -0.0089 -0.1755  0.5257
   33MOL    H9110395   2.562   2.501   4.706 -1.5916  1.2687 -0.7008
   33MOL    H9210396   2.577   2.634   4.492  1.5034  2.0705  2.0734
   33MOL    H9310397   2.631   2.811   4.617 -0.3895 -1.3180  0.5708
   33MOL    H9410398   2.771   2.910   4.779 -1.0167 -0.0461 -1.3483
   33MOL    H9510399   2.959   2.772   4.892 -1.1977  3.4862  0.5433
   33MOL    H9610400   3.023   2.554   4.792  0.8237 -1.1461 -1.9466
   33MOL    H9710401   2.880   2.456   4.623 -1.5399 -0.5633 -2.2175
   33MOL    C9810402   2.713   2.475   4.403 -0.0205  0.4488 -0.0994
   33MOL    C9910403   2.760   2.550   4.276  0.5548  0.3909  0.5121
   33MOL   C10010404   2.851   2.459   4.196 -0.3153 -0.1405  0.5773
   33MOL   C10110405   2.806   2.330   4.154 -0.2575 -0.0945  0.0427
   33MOL   C10210406   2.882   2.260   4.064  0.0170 -0.8386 -0.6000
   33MOL   C10310407   3.013   2.302   4.035 -0.2255  0.4894  0.6983
   33MOL   C10410408   3.060   2.426   4.069 -0.1332 -0.3120 -0.0700
   33MOL   C10510409   2.978   2.505   4.157 -0.4252  0.5383  0.5972
   33MOL   H10610410   2.638   2.400   4.380  0.6556 -0.5682  0.9664
   33MOL   H10710411   2.799   2.413   4.429 -1.7351 -2.0337 -0.2666
   33MOL   H10810412   2.809   2.641   4.311  0.8305  0.0703  0.9604
   33MOL   H10910413   2.724   2.278   4.202  0.6892 -1.8507 -0.2089
   33MOL   H11010414   2.846   2.162   4.038 -1.5210 -0.5053  0.2295
   33MOL   H11110415   3.069   2.236   3.971 -1.7589  1.2604 -1.4677
   33MOL   H11210416   3.152   2.471   4.035  1.1263 -1.0880  2.1889
   33MOL   H11310417   3.006   2.606   4.185  0.3548  0.4041  0.2985
   33MOL   C11410418   2.643   2.598   4.187  0.3526 -0.3190 -0.7563
   33MOL   C11510419   2.661   2.640   4.035  0.3189  0.0816 -0.6260
   33MOL   C11610420   2.540   2.623   3.954  0.0108 -0.0678  0.1841
   33MOL   C11710421   2.409   2.655   3.992  0.1418 -0.2965  0.1865
   33MOL   C11810422   2.299   2.642   3.905  0.0961 -0.5137  0.1448
   33MOL   C11910423   2.315   2.588   3.776  0.1635 -1.2638  0.2003
   33MOL   C12010424   2.439   2.539   3.739 -0.7692 -0.7348 -0.1173
   33MOL   C12110425   2.550   2.562   3.828  0.2432  0.3431  0.6594
   33MOL   H12210426   2.576   2.673   4.230 -1.9596 -1.1825 -2.7746
   33MOL   H12310427   2.571   2.517   4.184 -0.7552  0.4945  2.5189
   33MOL   H12410428   2.731   2.572   3.987  1.1695 -1.0986  2.1325
   33MOL   H12510429   2.387   2.709   4.083  2.6303  4.4754 -1.8774
   33MOL   H12610430   2.205   2.677   3.947 -0.6383 -2.2556 -0.0115
   33MOL   H12710431   2.237   2.581   3.702  0.3219 -0.9776  0.0066
   33MOL   H12810432   2.456   2.495   3.641 -0.5942 -1.2199  0.1295
   33MOL   H12910433   2.639   2.524   3.781 -1.3332  1.0755 -3.0972
   33MOL   C13010434   2.736   2.780   4.022 -0.0432 -0.2214  0.7034
   33MOL   C13110435   2.657   2.914   4.045  0.0183  0.0565  0.2122
   33MOL   C13210436   2.652   2.945   4.194  0.4264 -0.2374  0.3766
   33MOL   C13310437   2.524   2.953   4.255  0.3095 -0.9764  0.0243
   33MOL   C13410438   2.518   2.993   4.394  0.6007 -0.6351 -0.2312
   33MOL   C13510439   2.634   3.037   4.457 -0.0561  0.1708 -0.4279
   33MOL   C13610440   2.756   3.028   4.396  0.0589 -0.9384 -0.3944
   33MOL   C13710441   2.769   2.982   4.269  0.5136  0.1321  0.3644
   33MOL   H13810442   2.780   2.780   3.922 -0.7926 -1.4714  0.3631
   33MOL   H13910443   2.827   2.783   4.082 -0.5815  0.0724  1.5107
   33MOL   H14010444   2.555   2.896   4.010 -0.2603  1.2044  0.4303
   33MOL   H14110445   2.439   2.918   4.199 -0.3632  1.0595 -0.2451
   33MOL   H14210446   2.419   3.006   4.437  0.1669 -0.0302 -1.3789
   33MOL   H14310447   2.628   3.080   4.556 -0.1618  2.9402 -1.5862
   33MOL   H14410448   2.843   3.071   4.443  0.3079 -1.6070 -0.2315
   33MOL   H14510449   2.862   2.990   4.216  1.4192 -0.5811  1.8144
   33MOL   C14610450   2.706   3.033   3.965  0.4841  0.3289  0.5253
   33MOL   C14710451   2.691   3.031   3.815 -0.2866 -0.2093  0.6260
   33MOL   C14810452   2.546   3.027   3.767 -0.0431 -0.0331 -0.7522
   33MOL   C14910453   2.467   3.144   3.773 -0.1446  0.6014 -0.0606
   33MOL   C15010454   2.328   3.131   3.739  0.6904 -0.2274 -0.5580
   33MOL   C15110455   2.272   3.013   3.692 -0.2377 -0.1225 -0.1826
   33MOL   C15210456   2.354   2.902   3.678  0.4338  0.3253 -0.1630
   33MOL   C15310457   2.487   2.906   3.723  0.8619  0.0198  0.0555
   33MOL   H15410458   2.809   3.041   3.998  1.3942 -0.7872 -1.8790
   33MOL   H15510459   2.649   3.118   4.003 -0.6382 -1.1519  2.2307
   33MOL   H15610460   2.736   2.937   3.783 -0.7053  0.4611 -1.9751
   33MOL   H15710461   2.501   3.243   3.802 -2.3329  1.0658  1.0208
   33MOL   H15810462   2.260   3.213   3.753  0.7633 -0.2483 -0.0619
   33MOL   H15910463   2.169   3.012   3.661 -0.6265 -2.4582  1.1113
   33MOL   H16010464   2.329   2.812   3.624 -2.2872  1.3378 -0.6707
   33MOL   H16110465   2.554   2.823   3.707  1.2490  0.7577 -2.4453
   33MOL   C16210466   2.768   3.147   3.756  0.2486 -0.7311 -0.1736
   33MOL   C16310467   2.920   3.148   3.771  0.1523 -0.2830  0.1314
   33MOL   C16410468   2.990   3.006   3.751 -0.0325  0.1930  0.3047
   33MOL   C16510469   3.008   2.958   3.617 -0.3158 -0.0217 -0.0495
   33MOL   C16610470   3.060   2.831   3.601 -0.2153  0.5208  0.2900
   33MOL   C16710471   3.086   2.748   3.709 -1.5116  0.4385  0.4145
   33MOL   C16810472   3.080   2.800   3.839 -0.0551 -0.3606 -0.5633
   33MOL   C16910473   3.029   2.929   3.859  0.4958  0.5568 -0.1409
   33MOL   H17010474   2.731   3.232   3.814  1.6190  0.7759 -1.4609
   33MOL   H17110475   2.740   3.159   3.652  1.5575  2.4715 -0.1957
   33MOL   H17210476   2.942   3.171   3.875 -1.2935  0.8221  0.2025
   33MOL   H17310477   2.966   3.012   3.533 -0.3627  2.1121  1.3262
   33MOL   H17410478   3.091   2.798   3.503  1.2536 -1.4607  1.3874
   33MOL   H17510479   3.123   2.648   3.693 -0.0442  1.0202  0.0614
   33MOL   H17610480   3.097   2.740   3.927  0.4981  2.8429  1.6251
   33MOL   H17710481   3.018   2.959   3.962  2.6628 -2.0208  0.9313
   33MOL   C17810482   2.972   3.255   3.680 -0.2029 -0.0953  0.8303
   33MOL   C17910483   2.917   3.399   3.710  0.3108 -0.0546 -0.7854
   33MOL   C18010484   2.943   3.445   3.851 -0.4534  0.1089  0.1012
   33MOL   C18110485   2.846   3.442   3.953 -0.3515 -0.2710 -0.2577
   33MOL   C18210486   2.874   3.479   4.089 -0.5756  0.2494  0.3829
   33MOL   C18310487   3.008   3.522   4.118  0.3130 -0.4505  0.0132
   33MOL   C18410488   3.107   3.529   4.022 -0.7858 -0.0486  0.1784
   33MOL   C18510489   3.073   3.485   3.893  0.0361  0.0123 -0.5783
   33MOL   H18610490   2.940   3.248   3.576  1.7457 -0.8500  0.2616
   33MOL   H18710491   3.081   3.248   3.671 -0.2623  1.1462 -1.1286
   33MOL   H18810492   2.811   3.405   3.687  0.1011  0.7891  0.3799
   33MOL   H18910493   2.742   3.414   3.942 -0.7760  1.3207 -0.4388
   33MOL   H19010494   2.803   3.476   4.170 -1.9816 -0.1127 -0.8347
   33MOL   H19110495   3.030   3.544   4.221  1.1405 -0.0311 -0.2411
   33MOL   H19210496   3.204   3.569   4.046  0.5406 -1.7293 -2.1931
   33MOL   H19310497   3.153   3.484   3.821 -0.0529 -1.8022 -0.6878
   33MOL   C19410498   2.984   3.499   3.617  0.0268  0.0557 -0.4693
   33MOL   C19510499   2.944   3.514   3.470 -0.2240  0.1460  0.3766
   33MOL   C19610500   2.863   3.644   3.451 -0.1535 -0.7796  0.4216
   33MOL   C19710501   2.931   3.767   3.451 -0.1841  0.6957 -0.1059
   33MOL   C19810502   2.855   3.891   3.447  0.0584  0.1046  0.2308
   33MOL   C19910503   2.713   3.889   3.450  0.1679  0.3488  0.4230
   33MOL   C20010504   2.646   3.764   3.442  0.0552 -0.2933  0.6453
   33MOL   C20110505   2.722   3.646   3.437 -0.4985 -1.0291  0.4620
   33MOL   H20210506   3.092   3.487   3.630 -0.2960 -2.2377  0.3647
   33MOL   H20310507   2.966   3.599   3.657  0.8838 -0.4228  1.1862
   33MOL   H20410508   2.869   3.437   3.448 -1.6234  1.7614 -0.5642
   33MOL   H20510509   3.039   3.773   3.446 -0.1983  0.4469 -0.6877
   33MOL   H20610510   2.910   3.984   3.453  1.0180 -0.2643 -2.0815
   33MOL   H20710511   2.655   3.979   3.443 -0.6118  0.0342  2.4717
   33MOL   H20810512   2.539   3.770   3.437  0.0627  0.7077  1.3873
   33MOL   H20910513   2.679   3.548   3.426 -2.3244 -0.0887 -0.9474
   33MOL   C21010514   3.070   3.505   3.384  0.2939 -0.3151 -0.8756
   33MOL   C21110515   3.039   3.520   3.230  0.6165  0.3907 -0.3708
   33MOL   C21210516   3.105   3.650   3.180 -0.0002  1.3887 -0.4954
   33MOL   C21310517   3.018   3.758   3.149  0.2071 -0.5529  0.6464
   33MOL   C21410518   3.075   3.879   3.089  0.2634 -0.4745 -0.7470
   33MOL   C21510519   3.213   3.887   3.074  0.6622 -0.5053  0.6937
   33MOL   C21610520   3.295   3.785   3.121 -0.6141  0.8346 -0.7104
   33MOL   C21710521   3.242   3.663   3.168  0.5086 -0.3159  0.2059
   33MOL   H21810522   3.127   3.414   3.399 -0.0995 -0.4154  0.0639
   33MOL   H21910523   3.136   3.585   3.417  0.5171 -1.4223  1.4685
   33MOL   H22010524   2.932   3.539   3.215 -0.3194 -2.2983  2.5130
   33MOL   H22110525   2.911   3.755   3.162  0.0818  1.4257  0.1868
   33MOL   H22210526   3.005   3.958   3.063 -2.1603 -2.0782  0.7026
   33MOL   H22310527   3.247   3.986   3.045 -0.1141  0.8319  4.1453
   33MOL   H22410528   3.402   3.796   3.112 -0.6161  0.7753 -0.8171
   33MOL   H22510529   3.309   3.581   3.184  1.1489 -0.1269 -1.5103
   33MOL   C22610530   3.075   3.400   3.139  0.9082 -0.2364  0.1338
   33MOL   C22710531   2.999   3.271   3.174 -0.6753 -0.4379  0.0549
   33MOL   C22810532   2.849   3.296   3.168 -0.9148 -0.4042  0.6532
   33MOL   C22910533   2.768   3.253   3.283 -0.9156  0.3176  0.3724
   33MOL   C23010534   2.625   3.269   3.270  0.0101 -0.0333 -0.3565
   33MOL   C23110535   2.569   3.334   3.160  0.0563  0.1764  0.2721
   33MOL   C23210536   2.648   3.369   3.053  0.0592 -0.1740 -0.3712
   33MOL   C23310537   2.788   3.340   3.052 -0.1395 -0.5185 -0.2312
   33MOL   H23410538   3.182   3.380   3.139  1.1713  1.1131 -0.5616
   33MOL   H23510539   3.044   3.434   3.041  0.0148 -1.0692  0.1230
   33MOL   H23610540   3.028   3.248   3.277  1.9306 -0.6155 -0.6751
   33MOL   H23710541   2.817   3.207   3.367  2.7529 -1.7167 -2.7004
   33MOL   H23810542   2.558   3.233   3.347  0.0742 -0.6801 -0.6011
   33MOL   H23910543   2.463   3.353   3.157 -0.3869 -1.5420  2.9564
   33MOL   H24010544   2.606   3.421   2.968  0.3388 -0.4592 -0.6877
   33MOL   H24110545   2.844   3.353   2.961 -1.3757  3.5015 -0.5007
   33MOL   C24210546   3.037   3.157   3.073  0.1019  0.2614  0.0096
   33MOL   C24310547   3.078   3.022   3.127 -0.1126 -0.1950 -0.1672
   33MOL   C24410548   3.216   3.028   3.200  0.0228  0.4041 -0.7326
   33MOL   C24510549   3.326   2.986   3.131  0.4481 -0.7660  0.2455
   33MOL   C24610550   3.456   2.994   3.182 -0.5725 -0.2728 -0.3266
   33MOL   C24710551   3.471   3.042   3.310 -0.3647  0.4260 -0.0835
   33MOL   C24810552   3.359   3.087   3.385 -0.4858  0.5620 -0.0438
   33MOL   C24910553   3.233   3.075   3.326  0.3851 -0.5340 -0.1354
   33MOL   H25010554   3.118   3.189   3.008 -0.1395  2.6346  0.8189
   33MOL   H25110555   2.951   3.144   3.008 -1.6452  1.2846  2.0705
   33MOL   H25210556   3.087   2.953   3.043 -2.4800 -1.1906  0.3672
   33MOL   H25310557   3.315   2.946   3.031 -3.2107  0.9970 -0.1080
   33MOL   H25410558   3.543   2.955   3.132  1.0508 -0.1862  2.3486
   33MOL   H25510559   3.569   3.054   3.353 -0.0989  0.5309 -0.7172
   33MOL   H25610560   3.386   3.126   3.482  2.2483 -0.4569 -0.3622
   33MOL   H25710561   3.147   3.101   3.385  0.3769  4.1207 -1.9269
   33MOL   C25810562   2.976   2.961   3.219  0.1165  0.0506 -0.4389
   33MOL   C25910563   2.847   2.876   3.166 -0.5389 -0.4140  0.1405
   33MOL   C26010564   2.811   2.771   3.274 -0.0961 -0.0405 -0.2669
   33MOL   C26110565   2.824   2.633   3.244  0.1172 -0.1300 -0.3968
   33MOL   C26210566   2.795   2.535   3.338 -0.6948  0.4762 -0.0619
   33MOL   C26310567   2.755   2.571   3.468 -0.1763 -0.3128  0.2452
   33MOL   C26410568   2.731   2.709   3.498 -1.1878  0.1406 -0.4470
   33MOL   C26510569   2.767   2.806   3.401  0.3088  0.7377  0.0195
   33MOL   H26610570   2.929   3.038   3.280  1.2711  0.3674  0.0800
   33MOL   H26710571   3.029   2.893   3.285  0.9299 -1.9369 -3.0343
   33MOL   H26810572   2.891   2.819   3.084  0.0389  2.1076 -1.3529
   33MOL   H26910573   2.867   2.614   3.147 -2.1213 -1.9991 -1.0775
   33MOL   H27010574   2.810   2.435   3.300 -1.8724  0.2980 -0.0854
   33MOL   H27110575   2.733   2.494   3.541 -0.3602 -0.4561  0.0402
   33MOL   H27210576   2.707   2.735   3.600 -0.0966  0.9428 -0.3862
   33MOL   H27310577   2.758   2.907   3.438 -2.0571 -0.3175  2.4367
   33MOL   C27410578   2.724   2.957   3.127 -0.5165  0.4078  0.5771
   33MOL   C27510579   2.596   2.886   3.083 -0.8694 -0.3907 -0.5119
   33MOL   C27610580   2.471   2.962   3.116  0.7399  0.6501 -0.0024
   33MOL   C27710581   2.420   3.056   3.021 -0.3943  0.5449 -1.1127
   33MOL   C27810582   2.315   3.137   3.059 -0.6720  0.0639  0.5183
   33MOL   C27910583   2.254   3.128   3.183 -0.4265  0.5125 -0.0621
   33MOL   C28010584   2.300   3.031   3.273  0.4338 -0.0239  0.0305
   33MOL   C28110585   2.407   2.948   3.240 -1.0873 -0.9355 -0.7469
   33MOL   H28210586   2.749   3.038   3.059  0.8313 -0.9269 -0.5514
   33MOL   H28310587   2.692   3.008   3.218  1.1764 -1.0165  2.0119
   33MOL   H28410588   2.598   2.792   3.138 -0.8700 -0.3957 -0.5206
   33MOL   H28510589   2.444   3.053   2.915 -1.7763 -0.8627 -1.3993
   33MOL   H28610590   2.264   3.205   2.993  0.7459  2.0942  1.4591
   33MOL   H28710591   2.159   3.176   3.201 -0.9463 -0.5885  0.1841
   33MOL   H28810592   2.246   3.020   3.367 -0.0473 -0.1541 -0.2582
   33MOL   H28910593   2.438   2.884   3.322 -3.2395 -0.7068  0.2658
   33MOL   C29010594   2.602   2.836   2.937 -0.5621 -0.6032 -0.6555
   33MOL   C29110595   2.478   2.739   2.905  0.0519  0.2478  0.0286
   33MOL   C29210596   2.438   2.756   2.759 -0.0177 -0.1541  0.1388
   33MOL   C29310597   2.300   2.768   2.727 -0.2368 -0.5271 -0.0685
   33MOL   C29410598   2.262   2.781   2.595  0.4013  0.1276 -0.1205
   33MOL   C29510599   2.352   2.778   2.485 -1.3941 -0.0474  0.4476
   33MOL   C29610600   2.490   2.785   2.519 -0.1279 -0.6924 -0.1757
   33MOL   C29710601   2.532   2.763   2.653  0.6315  0.2596 -0.3522
   33MOL   H29810602   2.694   2.778   2.929  0.5188  0.8381  1.1116
   33MOL   H29910603   2.614   2.927   2.879 -0.0875  1.4231  2.4864
   33MOL   H30010604   2.387   2.767   2.958 -0.0168 -0.6871  0.4148
   33MOL   H30110605   2.218   2.751   2.795 -0.8965  1.8568 -0.1940
   33MOL   H30210606   2.158   2.777   2.564 -0.6961  3.0689  2.9478
   33MOL   H30310607   2.319   2.776   2.383 -1.7367  0.1839  0.5549
   33MOL   H30410608   2.568   2.790   2.445 -1.2212  0.4406 -1.2770
   33MOL   H30510609   2.636   2.771   2.678  0.1482  1.6151  1.3258
   33MOL   C30610610   2.504   2.593   2.946 -0.0098 -0.3925  0.4121
   33MOL   C30710611   2.563   2.485   2.851  0.6622 -0.4269 -0.6463
   33MOL   C30810612   2.712   2.486   2.841 -0.2842 -0.0050  0.5675
   33MOL   C30910613   2.781   2.444   2.958 -0.6366  0.0512  0.0743
   33MOL   C31010614   2.925   2.441   2.957 -0.5024 -0.0535 -0.0560
   33MOL   C31110615   2.995   2.488   2.839 -0.8300 -0.0729  0.5715
   33MOL   C31210616   2.926   2.535   2.728 -0.1028 -0.3228 -0.0880
   33MOL   C31310617   2.785   2.538   2.734 -0.1469  0.3694 -0.6280
   33MOL   H31410618   2.404   2.556   2.967 -0.7653  2.1539  1.5678
   33MOL   H31510619   2.551   2.585   3.044  1.5511  2.8564  0.0090
   33MOL   H31610620   2.514   2.463   2.756 -0.9900 -2.2311  0.5697
   33MOL   H31710621   2.725   2.414   3.046  0.1034 -0.1354  0.4890
   33MOL   H31810622   2.973   2.409   3.048  1.2581  0.8670 -0.6406
   33MOL   H31910623   3.101   2.507   2.841 -0.9969  0.9255  0.3766
   33MOL   H32010624   2.987   2.586   2.654 -1.3226 -1.9959 -2.3226
   33MOL   H32110625   2.733   2.569   2.645 -1.6091  0.1934  0.1460
   33MOL   H32210626   2.541   2.390   2.901 -1.5130 -0.3480 -1.4136
   34MOL     C110627   7.497   0.283   2.691  0.2328  0.6889 -0.4027
   34MOL     C210628   7.461   0.427   2.644 -0.1721  0.3465 -0.3278
   34MOL     C310629   7.381   0.502   2.755 -0.0778  0.0468 -0.0970
   34MOL     C410630   7.258   0.560   2.721 -0.3145  0.3817  0.1931
   34MOL     C510631   7.180   0.622   2.826 -0.4889  0.6319  0.2832
   34MOL     C610632   7.235   0.639   2.950 -0.7554 -0.5778 -0.0422
   34MOL     C710633   7.364   0.594   2.980  0.1598  0.4116  0.8970
   34MOL     C810634   7.436   0.524   2.880 -0.2876 -0.6911 -0.6930
   34MOL     H910635   7.550   0.227   2.614  1.0254 -0.2385  0.8003
   34MOL    H1010636   7.574   0.294   2.767 -0.7252 -0.4099  0.7554
   34MOL    H1110637   7.388   0.402   2.567 -0.9349 -0.7887  0.7443
   34MOL    H1210638   7.215   0.544   2.623  0.7917  1.4527 -0.4828
   34MOL    H1310639   7.080   0.659   2.806  0.0715  0.7088 -2.6479
   34MOL    H1410640   7.180   0.688   3.029  2.0477 -0.1463  1.6785
   34MOL    H1510641   7.413   0.601   3.076 -0.4983  0.4198  1.2343
   34MOL    H1610642   7.531   0.484   2.912  0.0742 -0.3558 -1.3551
   34MOL    H1710643   7.410   0.234   2.737  2.3129  0.1865  3.2165
   34MOL    C1810644   7.566   0.516   2.586  0.6797 -0.0726 -0.2204
   34MOL    C1910645   7.522   0.616   2.475  0.9774  1.0088 -0.5190
   34MOL    C2010646   7.620   0.727   2.437  0.4196  1.2687  0.5308
   34MOL    C2110647   7.737   0.693   2.363 -0.2236  0.3811 -0.2626
   34MOL    C2210648   7.827   0.796   2.323  0.1658 -0.0156 -0.2178
   34MOL    C2310649   7.809   0.926   2.367 -0.5477 -0.2041  0.0930
   34MOL    C2410650   7.703   0.954   2.454 -0.4582 -0.3289 -0.3002
   34MOL    C2510651   7.606   0.858   2.491 -0.2445 -0.1384 -0.2425
   34MOL    H2610652   7.644   0.451   2.546 -1.1191 -1.6085 -1.2500
   34MOL    H2710653   7.624   0.571   2.661  2.5284 -0.7893 -1.0793
   34MOL    H2810654   7.438   0.672   2.517 -0.8836 -3.8577  2.6938
   34MOL    H2910655   7.749   0.597   2.316  1.4960  0.6445 -0.4067
   34MOL    H3010656   7.908   0.759   2.262  0.9894  0.3074  0.6525
   34MOL    H3110657   7.894   0.992   2.355  0.0921 -1.1336 -0.6061
   34MOL    H3210658   7.695   1.050   2.504 -1.1161  0.4494 -1.8453
   34MOL    H3310659   7.529   0.884   2.562 -0.2001  2.6990 -1.1959
   34MOL    C3410660   7.458   0.540   2.353  0.0420  0.1867  0.0742
   34MOL    C3510661   7.414   0.629   2.236 -0.8914  0.6698 -0.0467
   34MOL    C3610662   7.381   0.550   2.112  0.2277 -0.1859 -0.9176
   34MOL    C3710663   7.267   0.465   2.111  0.3900  0.3671  0.0586
   34MOL    C3810664   7.237   0.394   1.996 -0.1550  0.4064  0.7367
   34MOL    C3910665   7.323   0.397   1.882 -0.3756  0.7137  0.2880
   34MOL    C4010666   7.433   0.488   1.889  0.0678  0.2462 -0.7033
   34MOL    C4110667   7.463   0.554   2.002 -0.2130  0.5454  0.4191
   34MOL    H4210668   7.368   0.482   2.373 -0.9826  2.2604  1.7113
   34MOL    H4310669   7.540   0.472   2.329 -0.6868 -0.4820 -0.5440
   34MOL    H4410670   7.497   0.695   2.209  0.0426 -0.2615  0.5346
   34MOL    H4510671   7.191   0.466   2.188 -1.6046  2.0367 -1.8623
   34MOL    H4610672   7.151   0.329   1.991 -0.0111  0.3000 -0.3476
   34MOL    H4710673   7.302   0.336   1.795  2.7313  0.5054 -0.3845
   34MOL    H4810674   7.505   0.494   1.810  1.8651  0.9444  0.9547
   34MOL    H4910675   7.556   0.610   2.008  0.6402 -0.8926  1.0065
   34MOL    C5010676   7.288   0.720   2.278 -0.0596 -0.7378 -0.1409
   34MOL    C5110677   7.250   0.826   2.174  0.2933 -0.1305 -0.0686
   34MOL    C5210678   7.158   0.754   2.080 -0.3136 -0.3057  0.4995
   34MOL    C5310679   7.189   0.744   1.940  0.2501 -0.5825  0.2963
   34MOL    C5410680   7.090   0.696   1.850 -0.1054 -0.2600  0.0098
   34MOL    C5510681   6.970   0.637   1.894  0.2824 -0.1754 -0.5768
   34MOL    C5610682   6.943   0.649   2.034  0.3683 -0.0179  0.5849
   34MOL    C5710683   7.034   0.703   2.124  0.3431  0.1201 -0.2688
   34MOL    H5810684   7.336   0.782   2.354  0.2152 -1.6908  0.4592
   34MOL    H5910685   7.216   0.654   2.324  0.5663 -0.6235  1.0191
   34MOL    H6010686   7.338   0.866   2.125 -0.0825  0.8371  0.0311
   34MOL    H6110687   7.286   0.779   1.908 -0.1576  1.0335  0.7507
   34MOL    H6210688   7.110   0.703   1.744  1.0215  2.7074  0.3640
   34MOL    H6310689   6.893   0.601   1.827  0.7261 -1.3974 -0.4384
   34MOL    H6410690   6.849   0.608   2.067 -0.2292  0.9427  0.1183
   34MOL    H6510691   7.012   0.703   2.229 -0.8343 -1.3491 -0.4963
   34MOL    C6610692   7.184   0.942   2.236 -0.3365  0.1110  0.2020
   34MOL    C6710693   7.263   1.052   2.312  1.0118 -0.0064 -0.1291
   34MOL    C6810694   7.343   1.145   2.224 -0.1380 -0.1334 -0.3251
   34MOL    C6910695   7.470   1.183   2.277 -0.4256  0.8922 -0.1095
   34MOL    C7010696   7.539   1.294   2.221 -0.3813 -0.3723 -0.7588
   34MOL    C7110697   7.487   1.357   2.106 -0.7109 -0.8444  0.2476
   34MOL    C7210698   7.361   1.317   2.050  0.5992 -0.2491 -0.1832
   34MOL    C7310699   7.286   1.221   2.117 -0.3924  0.5494  0.1574
   34MOL    H7410700   7.096   0.908   2.289 -0.6660  0.5923 -0.0292
   34MOL    H7510701   7.125   0.997   2.162 -1.8815 -1.1871  0.4483
   34MOL    H7610702   7.339   1.003   2.373  2.2678  0.5790 -1.2120
   34MOL    H7710703   7.522   1.131   2.356 -0.9564  0.5558  0.0174
   34MOL    H7810704   7.629   1.333   2.265 -0.0110 -1.2470 -0.7271
   34MOL    H7910705   7.534   1.445   2.064 -2.6329 -0.4741 -1.1937
   34MOL    H8010706   7.326   1.372   1.964 -0.9173  1.4926  1.5060
   34MOL    H8110707   7.190   1.199   2.072 -0.9023 -0.2811  1.6279
   34MOL    C8210708   7.158   1.122   2.406 -0.1311  0.2637 -0.2222
   34MOL    C8310709   7.153   1.051   2.541  0.4022 -0.6180  0.2526
   34MOL    C8410710   7.278   1.049   2.627 -0.0896  0.9840  0.3113
   34MOL    C8510711   7.385   1.137   2.609  0.2032 -0.1704 -0.2769
   34MOL    C8610712   7.495   1.137   2.689 -0.7946 -0.0569 -0.5297
   34MOL    C8710713   7.509   1.045   2.791 -0.2863  0.3678 -0.4680
   34MOL    C8810714   7.404   0.952   2.814  0.3575 -0.0004 -0.6417
   34MOL    C8910715   7.289   0.949   2.727  0.5362 -0.1563 -0.0306
   34MOL    H9010716   7.062   1.119   2.354 -0.9709  1.0982  1.2332
   34MOL    H9110717   7.179   1.227   2.425  0.8871  0.5364 -2.7686
   34MOL    H9210718   7.131   0.947   2.519  0.4675 -0.5362 -0.2009
   34MOL    H9310719   7.370   1.222   2.544  0.1249 -0.0825 -0.1459
   34MOL    H9410720   7.566   1.217   2.670  0.5094 -2.0174 -4.5800
   34MOL    H9510721   7.603   1.047   2.844  0.4533 -1.0364 -1.6908
   34MOL    H9610722   7.402   0.879   2.893 -0.5509 -1.9979 -2.4656
   34MOL    H9710723   7.208   0.879   2.742 -0.9896  2.1902  3.2898
   34MOL    C9810724   7.037   1.110   2.628  0.3613 -0.1933  0.1429
   34MOL    C9910725   6.892   1.111   2.572 -0.7482 -0.1887 -0.2625
   34MOL   C10010726   6.831   0.988   2.513 -0.4338 -0.3215 -0.3742
   34MOL   C10110727   6.788   0.993   2.380 -0.1980 -0.3730  0.3021
   34MOL   C10210728   6.751   0.869   2.321  0.0878  0.8170 -0.0081
   34MOL   C10310729   6.749   0.751   2.394  0.1810  0.8131 -0.2964
   34MOL   C10410730   6.782   0.751   2.533  0.4036 -0.0733  0.4421
   34MOL   C10510731   6.831   0.867   2.592 -0.1240 -0.0680  0.3849
   34MOL   H10610732   7.068   1.198   2.684 -1.8541  1.5011 -1.2355
   34MOL   H10710733   7.038   1.041   2.713  0.0603  0.1756  0.4436
   34MOL   H10810734   6.902   1.177   2.486  3.2732  0.8285  0.8856
   34MOL   H10910735   6.800   1.080   2.316 -1.2390  0.5550  1.3482
   34MOL   H11010736   6.743   0.874   2.213 -0.2622 -0.6849 -0.0511
   34MOL   H11110737   6.744   0.657   2.340  0.6627  0.9176 -0.5195
   34MOL   H11210738   6.793   0.653   2.577  0.6966 -1.0133 -1.6741
   34MOL   H11310739   6.888   0.858   2.684  1.1779 -2.1915 -0.5880
   34MOL   C11410740   6.797   1.187   2.670  0.6371  0.9628  0.1937
   34MOL   C11510741   6.749   1.123   2.803 -0.4854  0.2250  0.5813
   34MOL   C11610742   6.861   1.061   2.897  0.4003  0.1676 -0.2589
   34MOL   C11710743   6.861   0.926   2.927  0.7677 -0.1291  0.2197
   34MOL   C11810744   6.955   0.875   3.015  0.6370 -0.1669  0.0008
   34MOL   C11910745   7.051   0.957   3.073 -0.2398  0.5811  0.1680
   34MOL   C12010746   7.048   1.094   3.047  0.1214 -0.6089  0.3436
   34MOL   C12110747   6.952   1.144   2.960  0.5201 -0.5291 -0.1670
   34MOL   H12210748   6.705   1.208   2.615 -0.0081 -3.2895 -0.5931
   34MOL   H12310749   6.848   1.280   2.694  0.8011  0.6557  1.0385
   34MOL   H12410750   6.696   1.034   2.766 -1.3185  0.4806  1.1411
   34MOL   H12510751   6.775   0.870   2.892  0.5482  0.2390  0.1645
   34MOL   H12610752   6.957   0.771   3.045  0.3279 -0.1107  0.2120
   34MOL   H12710753   7.122   0.912   3.139 -1.4976 -0.8285  0.5844
   34MOL   H12810754   7.125   1.160   3.084 -1.5902  0.8341  1.4006
   34MOL   H12910755   6.948   1.250   2.940  0.7559 -0.7957 -1.6883
   34MOL   C13010756   6.650   1.217   2.873 -0.7244  0.0424 -0.4193
   34MOL   C13110757   6.588   1.173   3.002  0.0731  0.4217  0.0358
   34MOL   C13210758   6.535   1.302   3.070 -0.3322  0.0459 -0.4142
   34MOL   C13310759   6.617   1.378   3.164 -0.4477  0.2108 -0.1119
   34MOL   C13410760   6.571   1.503   3.215  0.3295 -0.0834  0.1662
   34MOL   C13510761   6.447   1.553   3.174 -0.2085  0.1882  0.5880
   34MOL   C13610762   6.370   1.483   3.078 -0.3175  0.6669 -0.2532
   34MOL   C13710763   6.415   1.363   3.032  0.4188 -0.7692  0.7177
   34MOL   H13810764   6.571   1.262   2.813 -1.1332 -1.7290 -1.2293
   34MOL   H13910765   6.713   1.304   2.894  1.6359 -1.3847 -1.3589
   34MOL   H14010766   6.674   1.128   3.051 -0.5439 -0.3644  0.4118
   34MOL   H14110767   6.708   1.343   3.209 -1.0852 -0.4695  0.6673
   34MOL   H14210768   6.631   1.543   3.296 -0.2197  1.6758 -0.2920
   34MOL   H14310769   6.404   1.645   3.210 -0.8184  0.2472 -0.2890
   34MOL   H14410770   6.274   1.518   3.042  0.1990  1.0159 -1.2827
   34MOL   H14510771   6.351   1.317   2.959  1.4082 -1.0537  0.0196
   34MOL   C14610772   6.485   1.069   2.965  0.6621 -0.1951  0.2777
   34MOL   C14710773   6.424   0.978   3.077 -0.6145  0.0315 -0.1539
   34MOL   C14810774   6.525   0.938   3.187  0.4605 -0.0882  0.2854
   34MOL   C14910775   6.519   0.997   3.316 -0.4994 -0.4838  0.8191
   34MOL   C15010776   6.609   0.950   3.416 -0.3012 -0.2178 -0.2973
   34MOL   C15110777   6.704   0.853   3.384 -0.0288 -0.4115  0.3250
   34MOL   C15210778   6.703   0.791   3.258 -0.2112 -0.0040 -0.3508
   34MOL   C15310779   6.605   0.826   3.157  0.2710  0.8028 -0.3437
   34MOL   H15410780   6.525   0.993   2.898  0.9549  1.2657 -1.2442
   34MOL   H15510781   6.404   1.110   2.904  1.0833  0.8514  0.4026
   34MOL   H15610782   6.392   0.883   3.034 -0.2056 -1.4196  2.6217
   34MOL   H15710783   6.453   1.078   3.344  0.7307  0.4820  0.9751
   34MOL   H15810784   6.605   0.991   3.516  0.9219 -0.3863 -0.1734
   34MOL   H15910785   6.771   0.820   3.462 -1.6713 -1.6261  1.2318
   34MOL   H16010786   6.776   0.713   3.238 -0.4356 -0.2488 -0.2211
   34MOL   H16110787   6.608   0.784   3.058  2.6563  0.9079 -0.3645
   34MOL   C16210788   6.285   1.025   3.120 -1.1462  0.4271 -0.3307
   34MOL   C16310789   6.196   0.923   3.204  0.2104 -0.5700  0.1454
   34MOL   C16410790   6.077   1.003   3.258  0.2800  0.5717  0.3305
   34MOL   C16510791   5.983   1.063   3.170  0.2454  0.5029 -0.8038
   34MOL   C16610792   5.882   1.149   3.222  0.3629  0.2721  0.2966
   34MOL   C16710793   5.862   1.154   3.360 -0.4921 -0.5056  0.3203
   34MOL   C16810794   5.948   1.090   3.447  0.5463 -0.0832 -0.4045
   34MOL   C16910795   6.051   1.011   3.400 -1.1309  0.3607 -0.0768
   34MOL   H17010796   6.229   1.057   3.032 -1.1117 -1.2129 -0.9602
   34MOL   H17110797   6.304   1.118   3.172  0.8486 -0.6311  0.8994
   34MOL   H17210798   6.255   0.884   3.288 -0.7823 -0.7056  0.7944
   34MOL   H17310799   5.996   1.067   3.063 -0.9391  0.0304 -0.9721
   34MOL   H17410800   5.796   1.190   3.170  2.2578  1.2763 -2.1738
   34MOL   H17510801   5.797   1.228   3.404  0.9679  0.9464  0.0919
   34MOL   H17610802   5.926   1.095   3.553  0.8834  1.6084 -0.3960
   34MOL   H17710803   6.110   0.955   3.470 -2.8327 -0.5573  0.6686
   34MOL   C17810804   6.151   0.803   3.128  0.0826 -0.1392 -0.3870
   34MOL   C17910805   6.052   0.702   3.189 -0.1508 -0.7818 -0.0358
   34MOL   C18010806   6.044   0.591   3.090  0.5025  0.3505 -0.4271
   34MOL   C18110807   6.153   0.499   3.067  0.0229 -0.0674 -0.0857
   34MOL   C18210808   6.144   0.402   2.969  0.0303 -0.4386 -0.6645
   34MOL   C18310809   6.026   0.395   2.895 -0.2539  0.2246  0.2879
   34MOL   C18410810   5.919   0.477   2.912  0.4819  1.1067  0.4058
   34MOL   C18510811   5.930   0.576   3.013 -0.4658 -0.6210  0.0469
   34MOL   H18610812   6.240   0.744   3.106  0.9824 -0.2514  3.1482
   34MOL   H18710813   6.104   0.831   3.034  0.0753 -0.6492 -0.5331
   34MOL   H18810814   5.951   0.744   3.190 -0.0809 -0.5783 -0.9785
   34MOL   H18910815   6.245   0.504   3.124  0.6287  0.5560 -1.0944
   34MOL   H19010816   6.232   0.339   2.970 -1.2619 -2.3944  3.2816
   34MOL   H19110817   6.010   0.317   2.823  1.3470  0.7400 -0.6539
   34MOL   H19210818   5.824   0.462   2.862  1.5629  1.2883 -1.7710
   34MOL   H19310819   5.837   0.624   3.042 -0.4370 -0.2464 -0.4675
   34MOL   C19410820   6.087   0.652   3.329  0.4008 -0.2678 -0.0982
   34MOL   C19510821   6.003   0.526   3.373  0.1860 -0.3391  0.1072
   34MOL   C19610822   6.057   0.449   3.496  0.3369 -0.0687  0.4767
   34MOL   C19710823   6.104   0.313   3.482 -0.0632  0.3675  0.6233
   34MOL   C19810824   6.151   0.240   3.593  0.5717  0.6550  0.1844
   34MOL   C19910825   6.149   0.295   3.716 -1.0990 -0.0365 -0.0640
   34MOL   C20010826   6.101   0.424   3.737  0.3590 -1.0640 -0.2749
   34MOL   C20110827   6.050   0.499   3.627  0.0333  0.8251  0.1681
   34MOL   H20210828   6.069   0.728   3.405  1.4616 -0.6990  0.6015
   34MOL   H20310829   6.194   0.635   3.326  1.0943  3.3057  1.0995
   34MOL   H20410830   6.017   0.452   3.294 -0.4702  1.9459 -2.1891
   34MOL   H20510831   6.098   0.256   3.391 -0.1146 -1.1041  1.5374
   34MOL   H20610832   6.191   0.141   3.580  2.4422  1.5354 -1.0175
   34MOL   H20710833   6.183   0.238   3.801  1.0229 -1.0827 -1.5569
   34MOL   H20810834   6.089   0.459   3.838  2.6688  0.8969 -0.6535
   34MOL   H20910835   6.005   0.596   3.643 -1.1473  0.2789  0.2528
   34MOL   C21010836   5.845   0.545   3.378 -0.4402 -0.2977 -0.0053
   34MOL   C21110837   5.759   0.427   3.388 -0.4447  0.1763 -0.0710
   34MOL   C21210838   5.623   0.464   3.442 -0.3288 -0.6651  0.5960
   34MOL   C21310839   5.542   0.552   3.379 -0.0572 -0.9005 -0.1101
   34MOL   C21410840   5.418   0.593   3.428 -0.1195 -0.5025 -0.4135
   34MOL   C21510841   5.371   0.521   3.536  0.6488  0.7682  0.2145
   34MOL   C21610842   5.446   0.420   3.595  0.4122  0.0241  0.5537
   34MOL   C21710843   5.572   0.397   3.549 -0.0747 -0.0357  0.7005
   34MOL   H21810844   5.808   0.612   3.300 -0.6886 -0.4413 -0.0095
   34MOL   H21910845   5.833   0.606   3.468  0.8043  2.1669 -1.4329
   34MOL   H22010846   5.812   0.366   3.461  0.7748  2.2081  0.7713
   34MOL   H22110847   5.578   0.610   3.296 -0.0258 -1.2887 -0.3684
   34MOL   H22210848   5.371   0.682   3.388 -1.3483 -1.2110 -0.5613
   34MOL   H22310849   5.271   0.544   3.571  0.5711  2.8849 -1.3175
   34MOL   H22410850   5.404   0.374   3.683  0.0859 -1.2172 -0.2496
   34MOL   H22510851   5.633   0.315   3.582  0.9189  1.1804  1.9689
   34MOL   C22610852   5.750   0.359   3.248 -0.0054 -0.0212 -0.5043
   34MOL   C22710853   5.665   0.227   3.248  0.0929  0.5431 -0.0089
   34MOL   C22810854   5.632   0.181   3.109  0.0423 -0.0555 -1.0738
   34MOL   C22910855   5.499   0.149   3.071 -0.7064  0.2716  0.5837
   34MOL   C23010856   5.469   0.097   2.946 -0.2921  0.1396 -0.5968
   34MOL   C23110857   5.565   0.083   2.844 -0.2311  0.3369 -0.4494
   34MOL   C23210858   5.697   0.117   2.874 -0.2888  0.1403 -0.2493
   34MOL   C23310859   5.730   0.159   3.012  0.0568 -0.2307  0.6511
   34MOL   H23410860   5.854   0.344   3.218 -0.0163 -1.2598  0.0625
   34MOL   H23510861   5.721   0.420   3.162 -0.7220 -0.1690 -0.3681
   34MOL   H23610862   5.574   0.247   3.305 -1.3028  1.8519 -2.6064
   34MOL   H23710863   5.418   0.164   3.141  0.7429  1.0580  2.1367
   34MOL   H23810864   5.364   0.079   2.930 -0.4193 -1.5069  1.7597
   34MOL   H23910865   5.541   0.043   2.747  0.3313  0.2016 -0.5341
   34MOL   H24010866   5.769   0.094   2.798  0.0611  0.5099 -0.0320
   34MOL   H24110867   5.831   0.192   3.035 -0.9619  0.9494  3.7440
   34MOL   C24210868   5.739   0.116   3.330 -0.0039  0.4321 -0.1227
   34MOL   C24310869   5.643   8.109   3.353 -0.1402  0.2343  0.1043
   34MOL   C24410870   5.732   7.986   3.382 -0.7821  0.4576  0.1977
   34MOL   C24510871   5.810   7.924   3.283 -0.2544 -0.3023 -0.0793
   34MOL   C24610872   5.891   7.809   3.310  0.9356  0.3479 -0.3280
   34MOL   C24710873   5.907   7.767   3.442  0.3253 -0.1094 -0.8119
   34MOL   C24810874   5.824   7.823   3.539  0.6398 -0.7799  0.2932
   34MOL   C24910875   5.741   7.931   3.515 -0.9475  0.4262  0.1531
   34MOL   H25010876   5.776   0.162   3.421  1.6863  3.2959 -2.1794
   34MOL   H25110877   5.831   0.083   3.280 -0.4568 -0.1896 -0.5621
   34MOL   H25210878   5.606   8.092   3.252 -3.0585  1.1487  0.9791
   34MOL   H25310879   5.779   7.962   3.187 -1.3928  3.8230  1.7739
   34MOL   H25410880   5.940   7.744   3.239  2.0085  1.1105 -0.3033
   34MOL   H25510881   5.973   7.686   3.471  0.4937  0.4487  0.4403
   34MOL   H25610882   5.811   7.776   3.635 -2.2438 -1.9228 -0.6118
   34MOL   H25710883   5.676   7.962   3.595 -0.7925  0.5978  0.2124
   34MOL   C25810884   5.521   0.021   3.442  0.1258  0.5383  0.2687
   34MOL   C25910885   5.422   8.028   3.442 -0.0715  0.1967 -0.2468
   34MOL   C26010886   5.332   8.041   3.568 -0.2749 -0.0733  0.0917
   34MOL   C26110887   5.264   0.053   3.588  0.1625  1.0487 -0.1510
   34MOL   C26210888   5.180   0.065   3.703 -0.8475  0.0788 -0.0329
   34MOL   C26310889   5.163   8.076   3.794  0.5116  0.3596 -0.0772
   34MOL   C26410890   5.239   7.959   3.775  0.3001  0.1725  0.6031
   34MOL   C26510891   5.328   7.936   3.669 -0.1236 -0.3548  0.4596
   34MOL   H26610892   5.474   0.118   3.420  0.4546  0.7975  0.6994
   34MOL   H26710893   5.560   0.042   3.542 -0.7450  0.8786  0.5430
   34MOL   H26810894   5.476   7.933   3.446 -0.1733 -0.1493 -4.9015
   34MOL   H26910895   5.264   0.131   3.513 -1.4416  2.5519  1.3443
   34MOL   H27010896   5.116   0.151   3.714  0.7193  0.9598  2.6394
   34MOL   H27110897   5.091   8.076   3.875 -0.2104 -1.7056 -0.6977
   34MOL   H27210898   5.233   7.891   3.859  0.2001 -1.2424 -0.5297
   34MOL   H27310899   5.383   7.843   3.659  0.4333  0.1292 -1.2185
   34MOL   C27410900   5.336   8.029   3.320 -0.3315  0.2156  1.4096
   34MOL   C27510901   5.210   7.937   3.310 -0.6190  0.6755  0.1286
   34MOL   C27610902   5.130   7.990   3.191  0.1899 -0.2799 -0.4105
   34MOL   C27710903   5.015   8.076   3.206 -0.4018  0.4017  0.0622
   34MOL   C27810904   4.945   0.019   3.104 -0.2047  0.5000  0.5629
   34MOL   C27910905   5.000   8.112   2.976  0.5744 -0.2632  0.2507
   34MOL   C28010906   5.102   8.017   2.951  0.7796  0.7195 -0.2770
   34MOL   C28110907   5.169   7.956   3.058 -0.0154 -0.6117  0.7323
   34MOL   H28210908   5.398   8.024   3.231 -0.3739  1.2838  1.3063
   34MOL   H28310909   5.291   0.014   3.312 -0.2242  0.2032  0.6411
   34MOL   H28410910   5.144   7.948   3.396  1.4234  1.0433  1.7067
   34MOL   H28510911   4.978   8.090   3.307  1.1320 -3.4355  1.2517
   34MOL   H28610912   4.860   0.083   3.125  1.1491  1.8935  1.8917
   34MOL   H28710913   4.955   0.041   2.888 -1.6479 -0.9308  1.0071
   34MOL   H28810914   5.120   7.997   2.846  1.5023  0.3270 -0.0825
   34MOL   H28910915   5.251   7.886   3.050 -0.3499 -0.9928  0.6366
   34MOL   C29010916   5.248   7.788   3.310 -0.5309 -0.0422  0.1978
   34MOL   C29110917   5.151   7.678   3.262 -0.4236  0.0073  0.2270
   34MOL   C29210918   5.218   7.549   3.287 -0.3972  0.6740 -0.5554
   34MOL   C29310919   5.315   7.503   3.196  0.0442  0.0945 -0.2705
   34MOL   C29410920   5.384   7.378   3.224 -0.5654  0.3744 -0.7281
   34MOL   C29510921   5.346   7.299   3.334 -0.4272 -0.3267  0.0967
   34MOL   C29610922   5.242   7.340   3.422 -0.3884 -0.2316 -0.5454
   34MOL   C29710923   5.187   7.469   3.395 -0.1087  0.0910  0.3198
   34MOL   H29810924   5.280   7.772   3.413 -0.9153  1.3758  0.5455
   34MOL   H29910925   5.334   7.794   3.243  0.0125  1.1274  0.9827
   34MOL   H30010926   5.143   7.693   3.155  0.2507 -1.5075 -0.0510
   34MOL   H30110927   5.342   7.560   3.108 -1.3133  0.0498 -0.7310
   34MOL   H30210928   5.464   7.345   3.160 -0.2053 -0.7074  0.2800
   34MOL   H30310929   5.384   7.199   3.349 -1.2104 -1.0321 -2.3417
   34MOL   H30410930   5.198   7.279   3.500  0.5424 -1.0557 -0.6537
   34MOL   H30510931   5.116   7.508   3.467 -1.4704  1.4110 -1.6877
   34MOL   C30610932   5.005   7.691   3.316  0.2404  1.0095 -0.7478
   34MOL   C30710933   4.896   7.621   3.241  0.0617  0.3627 -0.5517
   34MOL   C30810934   4.762   7.648   3.299 -0.6378 -0.1253 -0.0526
   34MOL   C30910935   4.694   7.539   3.357 -0.4202 -0.0831  0.3880
   34MOL   C31010936   4.567   7.562   3.408 -0.6885  0.0130 -0.2743
   34MOL   C31110937   4.510   7.696   3.408 -0.6355  0.2506  0.8490
   34MOL   C31210938   4.586   7.803   3.358 -0.2294  0.4016 -0.3276
   34MOL   C31310939   4.712   7.781   3.314 -0.0807  0.1399 -0.9254
   34MOL   H31410940   4.970   7.792   3.297 -0.7412  1.3236  2.4906
   34MOL   H31510941   5.003   7.681   3.424  0.3044  0.7866 -0.7667
   34MOL   H31610942   4.920   7.518   3.215 -0.8820  0.2454 -0.9874
   34MOL   H31710943   4.732   7.437   3.359 -0.0380  0.0660  1.0544
   34MOL   H31810944   4.509   7.487   3.460  1.2008 -0.3223  1.3917
   34MOL   H31910945   4.408   7.718   3.434 -1.3387  0.3758 -1.8337
   34MOL   H32010946   4.549   7.903   3.341 -1.5366  0.2664  1.5905
   34MOL   H32110947   4.765   7.856   3.257 -0.4927  0.8868 -0.3324
   34MOL   H32210948   4.891   7.670   3.144  1.2288  2.9201  0.6328
   35MOL     C110949   4.516   3.281   2.626 -0.6180  0.5031 -0.4297
   35MOL     C210950   4.501   3.430   2.600 -0.7343 -0.0027 -0.1285
   35MOL     C310951   4.556   3.517   2.716 -0.6498 -0.3663 -0.5281
   35MOL     C410952   4.480   3.614   2.785 -0.7945  0.7967 -0.4317
   35MOL     C510953   4.537   3.694   2.886 -0.6776 -0.2067 -0.9119
   35MOL     C610954   4.671   3.677   2.922  0.2899 -0.2246 -0.5266
   35MOL     C710955   4.749   3.573   2.858  0.7308 -0.5748 -0.0325
   35MOL     C810956   4.689   3.486   2.765 -0.0072  0.1960  0.2414
   35MOL     H910957   4.478   3.218   2.545  1.9337 -1.7325  0.0263
   35MOL    H1010958   4.619   3.248   2.633 -0.6350  0.1325 -1.6747
   35MOL    H1110959   4.394   3.447   2.604 -0.5600  0.9149  0.7711
   35MOL    H1210960   4.379   3.642   2.761 -0.7086  2.6688  1.2564
   35MOL    H1310961   4.486   3.785   2.914 -0.0910 -0.8090  2.2367
   35MOL    H1410962   4.716   3.742   2.995  0.6537 -0.5449 -0.4652
   35MOL    H1510963   4.853   3.555   2.881  0.7583  0.7729  0.9425
   35MOL    H1610964   4.745   3.429   2.693 -0.7155  1.9473 -1.7308
   35MOL    H1710965   4.463   3.264   2.720 -0.8658  0.2779 -0.6099
   35MOL    C1810966   4.548   3.468   2.460  0.7023 -0.5292  0.0517
   35MOL    C1910967   4.531   3.614   2.423  0.1928 -0.2625 -0.1184
   35MOL    C2010968   4.608   3.648   2.294 -0.5263 -0.4158  0.6131
   35MOL    C2110969   4.675   3.774   2.295  0.2392 -0.2863 -0.0384
   35MOL    C2210970   4.750   3.814   2.184  0.0331 -0.0580 -0.7760
   35MOL    C2310971   4.787   3.721   2.087 -0.7558 -0.1150  0.4398
   35MOL    C2410972   4.718   3.594   2.084 -0.1495  0.4434  0.5379
   35MOL    C2510973   4.630   3.559   2.184 -0.1358  0.1790 -0.6922
   35MOL    H2610974   4.507   3.421   2.370  2.2291 -0.0842 -0.8838
   35MOL    H2710975   4.654   3.444   2.458  0.8623  0.1927  0.0008
   35MOL    H2810976   4.577   3.679   2.497  3.1682 -1.6254 -0.6881
   35MOL    H2910977   4.643   3.844   2.371  1.8971  0.9709 -0.4544
   35MOL    H3010978   4.785   3.914   2.162  2.0551 -0.3019  1.1810
   35MOL    H3110979   4.853   3.755   2.009 -1.9976  1.3112 -0.0004
   35MOL    H3210980   4.725   3.524   2.002 -0.4332 -1.6910  2.2794
   35MOL    H3310981   4.581   3.463   2.182 -0.9372  0.5543  0.3735
   35MOL    C3410982   4.387   3.661   2.413 -0.1711 -0.8040 -0.0815
   35MOL    C3510983   4.311   3.615   2.289  0.0366 -0.1627 -0.4525
   35MOL    C3610984   4.260   3.472   2.302 -0.0427  0.5170  0.1000
   35MOL    C3710985   4.178   3.428   2.409 -0.1777 -0.1073  0.4800
   35MOL    C3810986   4.138   3.293   2.413 -0.8944  0.3235  0.2025
   35MOL    C3910987   4.175   3.209   2.308  0.0917  0.3592 -0.2831
   35MOL    C4010988   4.260   3.254   2.201  0.5891  1.1371 -0.1090
   35MOL    C4110989   4.296   3.386   2.198  0.4037 -0.6203 -0.2078
   35MOL    H4210990   4.394   3.768   2.393 -0.1310 -0.2674  2.6264
   35MOL    H4310991   4.325   3.648   2.502 -1.1293  0.7246 -0.5014
   35MOL    H4410992   4.376   3.620   2.201 -1.2758  0.4656 -1.4093
   35MOL    H4510993   4.139   3.501   2.478 -2.0068  1.2763 -1.9139
   35MOL    H4610994   4.070   3.263   2.491 -1.6315 -1.5642 -1.1386
   35MOL    H4710995   4.119   3.117   2.297  1.8009 -0.9196  1.4241
   35MOL    H4810996   4.267   3.196   2.110 -2.6059  1.1197 -0.3825
   35MOL    H4910997   4.346   3.426   2.111  1.2608 -1.5175 -0.1392
   35MOL    C5010998   4.202   3.713   2.246  0.0713  0.1404 -0.0503
   35MOL    C5110999   4.224   3.792   2.118  0.1642  0.5192  0.4574
   35MOL    C5211000   4.231   3.706   1.990  0.2025  0.3152  0.4737
   35MOL    C5311001   4.116   3.637   1.942  0.2840  0.4232  0.2597
   35MOL    C5411002   4.124   3.561   1.824 -1.0053 -0.0560 -0.3898
   35MOL    C5511003   4.248   3.555   1.753 -0.0399  0.3336  0.1202
   35MOL    C5611004   4.361   3.619   1.806 -0.4718  0.4364  0.6618
   35MOL    C5711005   4.347   3.699   1.919  0.1707  0.5595  0.2162
   35MOL    H5811006   4.189   3.791   2.321  1.6934  0.9401 -0.5772
   35MOL    H5911007   4.107   3.659   2.248 -0.4074  0.8950 -1.7033
   35MOL    H6011008   4.321   3.842   2.128  1.3234 -1.8623  1.4525
   35MOL    H6111009   4.020   3.640   1.990  0.9632 -1.2834  1.7606
   35MOL    H6211010   4.037   3.510   1.787 -2.4146  1.9571  0.0884
   35MOL    H6311011   4.254   3.490   1.668 -0.7190 -1.8381  1.6836
   35MOL    H6411012   4.451   3.614   1.745 -0.3655  0.2829  0.8318
   35MOL    H6511013   4.438   3.740   1.959  1.4009 -2.3539  0.5192
   35MOL    C6611014   4.112   3.905   2.099 -0.6232 -0.1014  0.3077
   35MOL    C6711015   4.112   4.030   2.194 -0.4347 -0.3835  0.0589
   35MOL    C6811016   4.242   4.094   2.196  0.4052  0.0391 -0.1098
   35MOL    C6911017   4.331   4.063   2.298  0.0003  0.1387 -0.1187
   35MOL    C7011018   4.465   4.096   2.298 -0.3468  0.7244 -0.4360
   35MOL    C7111019   4.508   4.176   2.189  0.0421 -0.4298  0.0573
   35MOL    C7211020   4.415   4.220   2.090 -0.0637  0.0134  0.3841
   35MOL    C7311021   4.282   4.186   2.098 -0.7469  0.2580  0.0173
   35MOL    H7411022   4.012   3.862   2.108 -0.8920  0.2483 -0.9661
   35MOL    H7511023   4.122   3.949   2.000 -1.0468 -1.0421 -0.1694
   35MOL    H7611024   4.097   3.989   2.294 -0.2708  0.4196  0.4243
   35MOL    H7711025   4.299   4.002   2.381 -1.4577 -0.0032 -0.7680
   35MOL    H7811026   4.533   4.076   2.379 -1.2524 -0.1480  0.1194
   35MOL    H7911027   4.611   4.191   2.162 -0.1254 -0.4743 -0.6257
   35MOL    H8011028   4.448   4.273   2.002 -0.2888 -0.2204  0.1580
   35MOL    H8111029   4.219   4.208   2.013  0.4212 -1.6682 -1.3947
   35MOL    C8211030   3.989   4.122   2.156  0.2193  0.0657 -0.0065
   35MOL    C8311031   3.971   4.243   2.258  0.0688 -0.1859 -0.5889
   35MOL    C8411032   3.956   4.377   2.183 -0.0801  0.4923  0.5895
   35MOL    C8511033   4.072   4.451   2.150  0.2734  0.2367 -0.1818
   35MOL    C8611034   4.071   4.573   2.086 -0.5451 -0.1266 -0.2902
   35MOL    C8711035   3.949   4.624   2.041  0.0998 -0.5808  0.1202
   35MOL    C8811036   3.837   4.551   2.068 -0.6469  0.5120  0.4053
   35MOL    C8911037   3.837   4.433   2.141  0.4869  0.7022 -0.0043
   35MOL    H9011038   3.899   4.063   2.150  0.1385  0.1653  0.1889
   35MOL    H9111039   3.993   4.167   2.057  0.4585 -0.6295 -0.3104
   35MOL    H9211040   4.064   4.253   2.314  1.4200 -0.0105 -2.7822
   35MOL    H9311041   4.172   4.418   2.174  1.2866  1.3159 -2.7970
   35MOL    H9411042   4.160   4.630   2.065 -1.5708  1.4543 -0.4765
   35MOL    H9511043   3.937   4.722   1.995 -0.4944  1.9221  5.2629
   35MOL    H9611044   3.747   4.605   2.045  0.0960  1.0680 -1.2886
   35MOL    H9711045   3.743   4.387   2.167 -0.6940  2.9876 -0.0564
   35MOL    C9811046   3.855   4.213   2.361  0.5669  0.8888 -0.8290
   35MOL    C9911047   3.859   4.078   2.436 -0.8548  0.6049  0.0471
   35MOL   C10011048   3.963   4.057   2.547  0.0403 -0.1727  0.6888
   35MOL   C10111049   3.974   4.153   2.653  1.1263  0.0836  1.2249
   35MOL   C10211050   4.048   4.133   2.772  0.2830 -0.5299  0.1438
   35MOL   C10311051   4.121   4.012   2.777 -1.1397 -0.6497  0.5445
   35MOL   C10411052   4.117   3.922   2.672 -0.4208  0.4516  1.4058
   35MOL   C10511053   4.045   3.946   2.553 -0.3308 -0.6045  0.2569
   35MOL   H10611054   3.761   4.213   2.306  1.8692 -1.1899 -3.1759
   35MOL   H10711055   3.839   4.293   2.433 -1.0169 -0.9645  0.9331
   35MOL   H10811056   3.885   4.008   2.357 -0.9830  0.2280  0.3360
   35MOL   H10911057   3.910   4.240   2.654 -0.8262 -1.2913 -0.5852
   35MOL   H11011058   4.048   4.193   2.862 -2.7666 -1.1678  0.6222
   35MOL   H11111059   4.172   3.989   2.869  0.7906  0.5558 -0.2003
   35MOL   H11211060   4.184   3.840   2.691 -2.0001 -0.7430  1.8699
   35MOL   H11311061   4.030   3.877   2.470  0.0946 -0.0586 -0.2779
   35MOL   C11411062   3.718   4.024   2.466  0.2597  0.0565 -0.0773
   35MOL   C11511063   3.703   3.881   2.534 -0.6933 -0.5321  0.5200
   35MOL   C11611064   3.565   3.872   2.593 -1.2458  0.0602  0.2551
   35MOL   C11711065   3.537   3.952   2.708  0.0893 -0.2193 -0.4029
   35MOL   C11811066   3.418   3.950   2.778 -0.1863 -0.7591  0.4505
   35MOL   C11911067   3.314   3.873   2.721 -0.1393 -0.0634  0.8776
   35MOL   C12011068   3.338   3.796   2.600 -0.5196 -0.3953 -0.0613
   35MOL   C12111069   3.463   3.796   2.538 -0.2112 -0.0220  1.1902
   35MOL   H12211070   3.664   4.034   2.372 -1.4066 -0.3773  0.8202
   35MOL   H12311071   3.683   4.098   2.537 -0.0471 -0.0250 -0.1433
   35MOL   H12411072   3.770   3.897   2.619 -0.4094  0.8785  0.0439
   35MOL   H12511073   3.614   4.008   2.759 -0.2403 -0.2498  0.1335
   35MOL   H12611074   3.406   4.015   2.863  0.1625 -1.0187  0.7031
   35MOL   H12711075   3.217   3.897   2.761 -0.9082  1.8857 -2.0247
   35MOL   H12811076   3.256   3.746   2.551  1.3915 -1.3791 -2.3435
   35MOL   H12911077   3.473   3.745   2.444  2.5645  2.1430  0.2740
   35MOL   C13011078   3.751   3.760   2.450 -0.5760  0.4464 -0.0742
   35MOL   C13111079   3.755   3.626   2.531 -0.1139  0.7802 -0.5523
   35MOL   C13211080   3.744   3.498   2.442 -0.1067 -0.4455 -1.1453
   35MOL   C13311081   3.826   3.488   2.329 -0.1933 -0.3674  0.1188
   35MOL   C13411082   3.829   3.377   2.247  0.2188 -0.3321 -0.0649
   35MOL   C13511083   3.754   3.264   2.276 -0.0281  0.0971 -0.1918
   35MOL   C13611084   3.666   3.268   2.387 -0.3621  0.0630 -0.3541
   35MOL   C13711085   3.665   3.385   2.479  0.6465 -0.4143  0.2695
   35MOL   H13811086   3.844   3.790   2.403 -0.0170 -1.9091 -0.5445
   35MOL   H13911087   3.693   3.744   2.359 -0.9916 -0.3613  0.3316
   35MOL   H14011088   3.662   3.620   2.588  0.1160 -2.6146 -0.4384
   35MOL   H14111089   3.898   3.565   2.308  3.1433 -2.8417  1.8368
   35MOL   H14211090   3.905   3.369   2.170 -2.3478 -1.0528 -2.6231
   35MOL   H14311091   3.775   3.175   2.217 -0.2131  0.7081 -1.1830
   35MOL   H14411092   3.619   3.175   2.416  0.3411 -0.2751 -0.2860
   35MOL   H14511093   3.599   3.377   2.563 -2.0943 -0.8695 -1.8658
   35MOL   C14611094   3.878   3.628   2.624  0.5284  0.4707  0.0570
   35MOL   C14711095   3.906   3.502   2.707  0.2294 -0.6188 -0.2596
   35MOL   C14811096   4.032   3.519   2.798 -0.7295 -0.1996 -0.0501
   35MOL   C14911097   4.140   3.428   2.794  0.7021  0.0331 -0.3394
   35MOL   C15011098   4.243   3.421   2.889 -0.2290 -0.5317 -0.2774
   35MOL   C15111099   4.250   3.518   2.988  0.6514  0.3180  0.0076
   35MOL   C15211100   4.152   3.621   2.990 -0.3675 -0.2916  0.5305
   35MOL   C15311101   4.039   3.619   2.898 -0.2676  1.1683 -0.0663
   35MOL   H15411102   3.873   3.712   2.694  0.0444  0.0545  0.5238
   35MOL   H15511103   3.965   3.663   2.568 -0.4809  0.3593 -1.5877
   35MOL   H15611104   3.934   3.421   2.640  0.5522 -0.4236 -0.3638
   35MOL   H15711105   4.144   3.357   2.713 -3.0143 -2.6330  1.6455
   35MOL   H15811106   4.329   3.357   2.885  1.3703  1.4710  0.8569
   35MOL   H15911107   4.335   3.524   3.054  0.4245  1.3969  0.2273
   35MOL   H16011108   4.159   3.689   3.074  0.0108  0.3922 -0.0517
   35MOL   H16111109   3.958   3.690   2.909  0.1190  1.3335  1.9742
   35MOL   C16211110   3.784   3.461   2.796  0.3651 -0.2361 -0.6574
   35MOL   C16311111   3.798   3.332   2.869  0.4468 -0.0167 -0.3549
   35MOL   C16411112   3.703   3.345   2.995  0.5821  0.3708 -0.2723
   35MOL   C16511113   3.753   3.335   3.127  0.1078  0.1878 -0.4263
   35MOL   C16611114   3.666   3.341   3.238 -0.2627  0.4508  0.0521
   35MOL   C16711115   3.526   3.372   3.220 -0.4262  0.9838 -0.4146
   35MOL   C16811116   3.481   3.395   3.088  0.4601 -0.1570 -0.4153
   35MOL   C16911117   3.567   3.380   2.977  0.3300 -0.2963 -0.1614
   35MOL   H17011118   3.685   3.477   2.753  0.5107  2.7761  0.0199
   35MOL   H17111119   3.783   3.535   2.876 -0.5610  0.0292 -0.9132
   35MOL   H17211120   3.897   3.325   2.914 -0.3256 -2.0940  1.1350
   35MOL   H17311121   3.858   3.313   3.137 -0.3171 -0.8539  1.9528
   35MOL   H17411122   3.708   3.308   3.332 -0.4156  0.2436  0.0484
   35MOL   H17511123   3.451   3.372   3.298 -0.2892  1.4118 -0.2798
   35MOL   H17611124   3.378   3.425   3.074  0.1459 -0.0456  1.8670
   35MOL   H17711125   3.525   3.403   2.881  0.5503  0.2290 -0.1316
   35MOL   C17811126   3.762   3.203   2.785 -0.3367 -0.2675 -0.7292
   35MOL   C17911127   3.814   3.068   2.837 -0.1164 -0.1952  0.2031
   35MOL   C18011128   3.732   2.957   2.773  0.7919 -0.2804  0.5582
   35MOL   C18111129   3.667   2.865   2.855  0.1472  0.1448 -0.7787
   35MOL   C18211130   3.588   2.763   2.806 -0.4148 -0.3065 -0.5206
   35MOL   C18311131   3.571   2.749   2.665 -0.0048  1.1418  0.7871
   35MOL   C18411132   3.633   2.844   2.580  0.1277 -1.0465 -0.1538
   35MOL   C18511133   3.722   2.939   2.636  0.2869 -0.1502 -0.1410
   35MOL   H18611134   3.791   3.211   2.680  0.8620 -1.3542 -0.4877
   35MOL   H18711135   3.654   3.199   2.770 -0.1549  0.8885 -2.5533
   35MOL   H18811136   3.786   3.070   2.942 -0.9895 -1.6957  0.0120
   35MOL   H18911137   3.693   2.878   2.959  2.9825 -1.3020 -1.2716
   35MOL   H19011138   3.545   2.691   2.874  0.4893  0.5519  0.9662
   35MOL   H19111139   3.509   2.665   2.636  2.2106  0.7624 -3.3491
   35MOL   H19211140   3.627   2.839   2.473 -1.7691  0.5012 -0.1391
   35MOL   H19311141   3.767   3.019   2.579 -0.9339 -0.7113 -1.9514
   35MOL   C19411142   3.969   3.038   2.821 -0.5402 -0.4283 -0.0170
   35MOL   C19511143   4.042   3.026   2.948  0.4281 -0.6749  0.1157
   35MOL   C19611144   3.975   2.922   3.041  0.2279  0.1686 -0.0803
   35MOL   C19711145   3.916   2.965   3.158 -0.4139 -0.3665  0.2613
   35MOL   C19811146   3.835   2.878   3.231 -0.1710 -0.5358 -1.0368
   35MOL   C19911147   3.839   2.741   3.202  0.8611 -0.6535 -0.1608
   35MOL   C20011148   3.912   2.695   3.091 -0.2513 -0.0686  0.5563
   35MOL   C20111149   3.971   2.784   3.005 -0.2429  0.2540  0.1712
   35MOL   H20211150   4.005   3.124   2.764  1.0153 -0.3892  0.9996
   35MOL   H20311151   3.983   2.958   2.748 -0.7218 -1.2744  0.8662
   35MOL   H20411152   4.038   3.114   3.012  2.8834 -1.0427  0.8181
   35MOL   H20511153   3.912   3.070   3.183 -0.0168  0.2785 -2.1659
   35MOL   H20611154   3.775   2.917   3.312  2.3413  0.1617  0.5613
   35MOL   H20711155   3.795   2.663   3.261  1.1627  0.0126  0.9515
   35MOL   H20811156   3.917   2.593   3.057 -0.2352 -0.3898  1.5151
   35MOL   H20911157   4.025   2.753   2.917 -1.0746  0.8315 -0.5415
   35MOL   C21011158   4.194   3.001   2.931 -0.5718  0.8301 -0.3937
   35MOL   C21111159   4.278   3.051   3.049  0.8894 -0.2097  0.4568
   35MOL   C21211160   4.257   2.964   3.176 -0.4813  0.1806 -0.4987
   35MOL   C21311161   4.247   3.023   3.307  0.2955  0.0402 -0.1682
   35MOL   C21411162   4.241   2.938   3.423 -0.4123 -0.0230  0.2123
   35MOL   C21511163   4.233   2.800   3.408 -0.0511 -0.3107  0.1420
   35MOL   C21611164   4.249   2.740   3.284  0.3149  0.2977 -0.7260
   35MOL   C21711165   4.264   2.826   3.176 -0.1405  0.5393  0.6727
   35MOL   H21811166   4.235   3.053   2.844  0.7912 -2.4685 -1.8280
   35MOL   H21911167   4.221   2.896   2.914  0.8933  1.0712  0.3803
   35MOL   H22011168   4.234   3.148   3.072 -1.2306 -0.5579 -2.0160
   35MOL   H22111169   4.249   3.130   3.320 -3.8474  0.5198 -2.4220
   35MOL   H22211170   4.238   2.986   3.520  0.2436  0.4852 -0.0130
   35MOL   H22311171   4.225   2.735   3.493  0.6267 -0.7063 -0.0927
   35MOL   H22411172   4.244   2.634   3.263  2.2155 -0.2047  1.1478
   35MOL   H22511173   4.273   2.773   3.083 -1.1239  0.2130  0.7596
   35MOL   C22611174   4.427   3.080   3.016  0.1422 -0.4712 -0.4604
   35MOL   C22711175   4.508   3.145   3.132 -0.3079 -0.2692  0.4899
   35MOL   C22811176   4.658   3.147   3.116 -0.7718  0.1226  0.7030
   35MOL   C22911177   4.736   3.072   3.210 -0.0250 -0.3339  0.5739
   35MOL   C23011178   4.873   3.076   3.201 -0.0840  0.5683 -0.2762
   35MOL   C23111179   4.936   3.154   3.108 -0.5881 -0.7763 -0.5992
   35MOL   C23211180   4.858   3.231   3.017 -0.4544 -0.0029 -0.4424
   35MOL   C23311181   4.717   3.229   3.020  0.2252  0.7195  0.0777
   35MOL   H23411182   4.443   3.143   2.928  0.0684 -1.4259 -1.1715
   35MOL   H23511183   4.489   2.991   3.002 -0.2381 -1.2973  2.7252
   35MOL   H23611184   4.485   3.074   3.211 -1.0802 -1.9191 -1.1734
   35MOL   H23711185   4.684   3.012   3.283 -3.7201  0.3880 -1.3328
   35MOL   H23811186   4.930   3.017   3.271 -1.1061 -2.6492 -2.0292
   35MOL   H23911187   5.044   3.157   3.107 -0.5512 -0.3661  1.7583
   35MOL   H24011188   4.904   3.303   2.952  0.1271 -0.7295 -0.8388
   35MOL   H24111189   4.658   3.288   2.951 -1.7867  0.6997  1.7383
   35MOL   C24211190   4.462   3.291   3.163 -0.4312 -0.3366 -0.7801
   35MOL   C24311191   4.540   3.362   3.274 -0.3811  0.5597  0.7337
   35MOL   C24411192   4.500   3.511   3.290  0.7644 -0.2723 -0.5189
   35MOL   C24511193   4.374   3.548   3.333  0.6198 -0.6733 -0.0184
   35MOL   C24611194   4.337   3.685   3.329  0.1583  0.2529  0.3688
   35MOL   C24711195   4.423   3.776   3.283 -0.5606  0.1889  0.3923
   35MOL   C24811196   4.549   3.738   3.234  0.4835  0.4765  0.9394
   35MOL   C24911197   4.593   3.607   3.249  0.0042 -0.2760  0.1857
   35MOL   H25011198   4.360   3.306   3.198  0.8705  0.6634  2.7363
   35MOL   H25111199   4.462   3.355   3.074 -1.8375 -0.2739 -0.7571
   35MOL   H25211200   4.644   3.350   3.243 -0.5090 -0.9604  0.8752
   35MOL   H25311201   4.308   3.471   3.367 -1.6601  0.9246 -0.7127
   35MOL   H25411202   4.239   3.714   3.362  0.2313 -1.1906  1.9718
   35MOL   H25511203   4.393   3.880   3.283 -0.0239  0.3674 -1.5044
   35MOL   H25611204   4.619   3.808   3.191 -1.4234  0.8290 -1.7928
   35MOL   H25711205   4.691   3.576   3.214 -1.2708 -1.6323 -2.2394
   35MOL   C25811206   4.545   3.282   3.409  0.4641  0.5816  0.2104
   35MOL   C25911207   4.626   3.359   3.515 -0.2356 -0.1697  0.1753
   35MOL   C26011208   4.607   3.289   3.654 -0.5163  0.6483 -0.8025
   35MOL   C26111209   4.669   3.160   3.672  0.6928 -0.2237 -0.5179
   35MOL   C26211210   4.662   3.093   3.796  0.3378 -0.1860 -0.1661
   35MOL   C26311211   4.583   3.146   3.899 -0.2469  0.1731  0.0503
   35MOL   C26411212   4.513   3.266   3.876  0.3695 -0.6428 -0.2284
   35MOL   C26511213   4.522   3.339   3.754 -0.1462 -0.5362  0.3631
   35MOL   H26611214   4.580   3.180   3.397 -2.1770 -0.4073  0.7158
   35MOL   H26711215   4.444   3.278   3.450  0.0190  0.5705 -0.8687
   35MOL   H26811216   4.586   3.459   3.532  0.2453 -0.0440  0.5959
   35MOL   H26911217   4.728   3.115   3.593  1.3501 -4.0029  1.9830
   35MOL   H27011218   4.710   2.998   3.816 -1.5387 -1.4588 -1.6253
   35MOL   H27111219   4.574   3.082   3.985 -0.4945 -1.6598 -1.3093
   35MOL   H27211220   4.450   3.305   3.954 -0.5456 -3.2709  0.3797
   35MOL   H27311221   4.473   3.435   3.755  2.4345  0.8413 -0.1323
   35MOL   C27411222   4.783   3.372   3.475  0.6798 -0.1411  0.4594
   35MOL   C27511223   4.875   3.444   3.572  0.8430  0.2685  0.1508
   35MOL   C27611224   5.025   3.431   3.549  0.5794  0.6405 -0.4565
   35MOL   C27711225   5.085   3.367   3.441  0.6041  0.3157  0.4029
   35MOL   C27811226   5.222   3.361   3.423 -0.0961 -0.5196 -0.2756
   35MOL   C27911227   5.305   3.417   3.519  0.7097 -0.4585 -0.5388
   35MOL   C28011228   5.247   3.475   3.633  0.3161 -0.6456 -0.6337
   35MOL   C28111229   5.109   3.484   3.649 -0.0615  0.1464 -0.4524
   35MOL   H28211230   4.781   3.425   3.380  0.3491 -1.4287 -0.2542
   35MOL   H28311231   4.814   3.270   3.457  0.3931 -0.3585  1.1785
   35MOL   H28411232   4.849   3.390   3.663  0.1660 -0.5317 -0.5131
   35MOL   H28511233   5.018   3.328   3.365 -0.8075  3.4785 -0.0499
   35MOL   H28611234   5.273   3.308   3.344  2.2498  0.2099  0.6956
   35MOL   H28711235   5.413   3.412   3.509  0.7619  0.2054 -0.3096
   35MOL   H28811236   5.314   3.525   3.702  0.5108 -0.6680 -0.8054
   35MOL   H28911237   5.062   3.535   3.732  0.2868  1.4371 -1.0372
   35MOL   C29011238   4.829   3.595   3.581  0.2058 -0.1126 -0.1479
   35MOL   C29111239   4.750   3.641   3.712 -0.2768  0.4398  0.5236
   35MOL   C29211240   4.837   3.653   3.836 -0.3753 -0.4542  0.4142
   35MOL   C29311241   4.813   3.579   3.951 -0.0134 -0.4510  0.5069
   35MOL   C29411242   4.879   3.598   4.072  1.1341 -0.6794  0.3457
   35MOL   C29511243   4.984   3.691   4.071  0.5437  0.6051 -0.6441
   35MOL   C29611244   5.000   3.767   3.957  0.1839  0.2152 -0.7417
   35MOL   C29711245   4.935   3.750   3.837  0.0232 -0.2601  0.4290
   35MOL   H29811246   4.765   3.602   3.493 -2.3528  1.5201  1.7553
   35MOL   H29911247   4.908   3.665   3.556 -1.6066  0.8569 -3.4686
   35MOL   H30011248   4.680   3.561   3.734  2.5472 -1.9035  1.3407
   35MOL   H30111249   4.735   3.504   3.960 -2.6808  1.9486 -1.6045
   35MOL   H30211250   4.854   3.528   4.150 -0.6146  0.9659  1.3284
   35MOL   H30311251   5.045   3.721   4.156  0.5073  0.6937 -0.6487
   35MOL   H30411252   5.078   3.840   3.966  0.3398  0.1613 -1.6230
   35MOL   H30511253   4.968   3.817   3.758  3.0982 -0.8048  1.2266
   35MOL   C30611254   4.660   3.769   3.698 -0.4732  0.2608 -0.0453
   35MOL   C30711255   4.560   3.775   3.581  0.4060 -0.0180  0.0696
   35MOL   C30811256   4.460   3.895   3.585 -1.3482  0.5562  0.1825
   35MOL   C30911257   4.482   4.008   3.504  0.0397  0.6145  0.2064
   35MOL   C31011258   4.388   4.111   3.518  0.7402  0.5160  0.0124
   35MOL   C31111259   4.289   4.109   3.619  0.2316 -0.2498  0.3300
   35MOL   C31211260   4.273   4.002   3.701 -0.4904 -0.3154 -0.1698
   35MOL   C31311261   4.354   3.889   3.675 -0.3950 -0.1509 -0.3327
   35MOL   H31411262   4.723   3.858   3.695  0.1132 -0.1878 -1.8746
   35MOL   H31511263   4.606   3.784   3.792 -1.4191  0.4422 -0.6118
   35MOL   H31611264   4.509   3.680   3.569  0.2006 -0.0460  1.0757
   35MOL   H31711265   4.554   4.018   3.424 -0.9596 -1.3036 -0.9604
   35MOL   H31811266   4.398   4.202   3.460 -0.0293  0.2938 -0.4715
   35MOL   H31911267   4.231   4.198   3.633 -0.5165 -0.5751 -0.5934
   35MOL   H32011268   4.201   4.016   3.780  0.6425 -0.0741  0.8275
   35MOL   H32111269   4.343   3.804   3.740  2.5546  0.6447  1.2694
   35MOL   H32211270   4.619   3.784   3.490  0.1481  1.2688  0.0210
   36MOL     C111271   2.413   7.186   1.534  0.0310 -0.1481 -0.3437
   36MOL     C211272   2.349   7.315   1.481 -0.3953 -0.3707 -0.3805
   36MOL     C311273   2.286   7.295   1.339 -0.2959  0.6862 -0.5239
   36MOL     C411274   2.192   7.192   1.326  0.1357  0.2437  0.0846
   36MOL     C511275   2.146   7.147   1.202 -0.0580 -0.8911 -0.2346
   36MOL     C611276   2.179   7.220   1.087 -0.2282  0.4904 -0.8218
   36MOL     C711277   2.284   7.320   1.096  0.2926  0.3338  1.2343
   36MOL     C811278   2.331   7.359   1.223 -0.1036  0.6655 -0.1984
   36MOL     H911279   2.348   7.103   1.560  1.8310 -1.2212  0.8877
   36MOL    H1011280   2.468   7.144   1.450  1.1537  0.7952 -0.0912
   36MOL    H1111281   2.433   7.381   1.458 -0.6170 -0.5895 -1.8751
   36MOL    H1211282   2.171   7.139   1.418  0.6313 -0.9002 -0.4419
   36MOL    H1311283   2.095   7.053   1.190 -0.7458 -0.5363 -0.0889
   36MOL    H1411284   2.145   7.186   0.991  2.1650  0.9413 -1.8478
   36MOL    H1511285   2.320   7.369   1.007 -0.4782 -2.6539 -0.8085
   36MOL    H1611286   2.402   7.438   1.241  0.5364 -0.3044  1.7138
   36MOL    H1711287   2.480   7.205   1.618  0.7966 -0.6260 -0.8346
   36MOL    C1811288   2.262   7.377   1.590  0.5380 -0.2023  0.4590
   36MOL    C1911289   2.325   7.416   1.728 -0.4082 -0.3437  0.3985
   36MOL    C2011290   2.422   7.534   1.699  0.1296 -0.0578  0.4454
   36MOL    C2111291   2.564   7.518   1.710 -0.2918 -0.4595  1.0803
   36MOL    C2211292   2.644   7.626   1.677  0.2301  0.2670 -0.0290
   36MOL    C2311293   2.591   7.754   1.654 -0.3847 -0.4268  0.4141
   36MOL    C2411294   2.453   7.771   1.651  0.2232 -0.5641 -0.2595
   36MOL    C2511295   2.363   7.662   1.676 -0.0734  0.1408  0.0945
   36MOL    H2611296   2.186   7.302   1.612 -0.5516  1.1183  1.2622
   36MOL    H2711297   2.212   7.461   1.540  2.1764 -1.9203 -4.4059
   36MOL    H2811298   2.380   7.330   1.766 -0.9446  0.1231  2.2866
   36MOL    H2911299   2.607   7.423   1.736 -2.0110 -1.6735 -0.3468
   36MOL    H3011300   2.749   7.610   1.659  0.4269 -0.2022  1.4717
   36MOL    H3111301   2.673   7.823   1.644  1.3841 -2.8415 -2.8688
   36MOL    H3211302   2.414   7.870   1.633 -0.6558 -0.8278  0.1574
   36MOL    H3311303   2.255   7.670   1.672 -0.0713  1.0174  1.6838
   36MOL    C3411304   2.215   7.438   1.837  0.0862  0.5830  0.1819
   36MOL    C3511305   2.264   7.505   1.962  0.3841 -0.0097  0.1024
   36MOL    C3611306   2.148   7.533   2.053 -0.5433 -0.5902  0.5800
   36MOL    C3711307   2.087   7.430   2.131 -0.5309 -0.3277 -0.4206
   36MOL    C3811308   1.979   7.458   2.215  0.7620 -0.2709  0.1206
   36MOL    C3911309   1.926   7.588   2.233 -0.3152 -0.1055  1.0624
   36MOL    C4011310   1.979   7.691   2.146 -0.2439  0.3702  0.2670
   36MOL    C4111311   2.090   7.662   2.057 -0.3017 -0.4421  0.0486
   36MOL    H4211312   2.147   7.355   1.853 -0.5444  0.6580 -1.8889
   36MOL    H4311313   2.142   7.503   1.789 -4.0765 -3.4693  0.6425
   36MOL    H4411314   2.303   7.603   1.936 -1.0636  0.3549 -0.7075
   36MOL    H4511315   2.128   7.330   2.130  1.7942  0.5898 -0.6028
   36MOL    H4611316   1.934   7.370   2.260 -1.1392  1.0064  0.7774
   36MOL    H4711317   1.854   7.601   2.313 -0.2597 -0.1912  1.1252
   36MOL    H4811318   1.955   7.796   2.135 -0.3170 -0.0100 -4.5528
   36MOL    H4911319   2.139   7.738   1.998 -1.7604  1.1614  0.8487
   36MOL    C5011320   2.378   7.427   2.034  0.4305 -0.3787 -0.5278
   36MOL    C5111321   2.433   7.500   2.157 -0.0334  0.0249  0.3065
   36MOL    C5211322   2.506   7.401   2.241 -0.4224  0.4060 -0.1586
   36MOL    C5311323   2.630   7.345   2.202 -0.5000  0.2511  0.2845
   36MOL    C5411324   2.689   7.249   2.294 -0.4113 -0.2226  0.3293
   36MOL    C5511325   2.629   7.206   2.414 -0.2516 -0.8060 -0.4934
   36MOL    C5611326   2.499   7.253   2.440 -0.2184 -0.0181  0.0802
   36MOL    C5711327   2.440   7.349   2.352 -0.1980  0.1463 -0.1298
   36MOL    H5811328   2.461   7.398   1.970  0.3909 -1.8193  0.0487
   36MOL    H5911329   2.335   7.336   2.075  1.8794 -0.8197  0.0575
   36MOL    H6011330   2.348   7.539   2.213 -0.8157  0.7154 -1.3271
   36MOL    H6111331   2.683   7.387   2.117 -3.5631  0.0870 -1.7886
   36MOL    H6211332   2.783   7.203   2.270  0.4457  0.2016  2.7283
   36MOL    H6311333   2.694   7.146   2.475  2.1167  2.1728  0.0049
   36MOL    H6411334   2.447   7.233   2.533 -0.3620 -1.0690 -0.2196
   36MOL    H6511335   2.341   7.385   2.377 -0.4264 -1.0598  0.7561
   36MOL    C6611336   2.520   7.621   2.113 -0.0953 -0.5001 -0.2608
   36MOL    C6711337   2.614   7.684   2.217 -0.2924 -0.2923 -0.1127
   36MOL    C6811338   2.720   7.779   2.156 -0.4643  0.0573  0.5197
   36MOL    C6911339   2.704   7.837   2.028  0.0148 -0.3394 -0.1730
   36MOL    C7011340   2.804   7.910   1.960 -0.4294 -0.1289  0.5986
   36MOL    C7111341   2.927   7.920   2.019 -0.6048  0.5679 -0.1015
   36MOL    C7211342   2.946   7.877   2.155 -0.0190 -0.2827 -0.9351
   36MOL    C7311343   2.841   7.804   2.223 -0.1725 -0.5152 -0.3096
   36MOL    H7411344   2.452   7.700   2.079 -0.8747 -1.1312 -0.1886
   36MOL    H7511345   2.592   7.587   2.039 -0.5620 -0.0711 -0.9135
   36MOL    H7611346   2.673   7.598   2.248  1.7997  0.4517 -1.8552
   36MOL    H7711347   2.603   7.823   1.992  0.5749 -2.0322 -1.1343
   36MOL    H7811348   2.793   7.947   1.859 -0.3023 -4.5729 -1.1664
   36MOL    H7911349   3.013   7.957   1.966  2.9425 -1.6510  3.8246
   36MOL    H8011350   3.043   7.886   2.202 -0.5622 -2.2330  0.6297
   36MOL    H8111351   2.856   7.773   2.325 -0.6386  0.7725  0.1596
   36MOL    C8211352   2.541   7.763   2.331 -0.2327  0.1633 -0.3574
   36MOL    C8311353   2.455   7.881   2.288 -0.4712 -0.6115  0.1684
   36MOL    C8411354   2.329   7.903   2.380  0.1642  0.1499 -0.0318
   36MOL    C8511355   2.202   7.930   2.322  0.4438  0.3347  0.4404
   36MOL    C8611356   2.091   7.968   2.402 -0.1052  0.2300 -0.4629
   36MOL    C8711357   2.107   7.965   2.541 -0.4077 -0.2578 -0.2455
   36MOL    C8811358   2.230   7.943   2.598  0.4483 -0.5559 -0.7772
   36MOL    C8911359   2.344   7.907   2.521  0.7885 -0.4514 -0.2312
   36MOL    H9011360   2.623   7.801   2.392 -0.5661  1.4986 -0.7139
   36MOL    H9111361   2.487   7.691   2.392 -0.4944 -1.4086 -2.3769
   36MOL    H9211362   2.418   7.864   2.187 -0.9583 -2.5522  0.6572
   36MOL    H9311363   2.192   7.923   2.215 -0.0179  0.0458  0.5033
   36MOL    H9411364   1.994   7.998   2.366 -0.8181 -0.8928  0.5132
   36MOL    H9511365   2.018   7.971   2.600 -0.6618  1.3767 -0.7737
   36MOL    H9611366   2.238   7.935   2.705 -1.6887  2.6827 -0.3228
   36MOL    H9711367   2.436   7.879   2.571  0.1623 -2.1957 -0.0454
   36MOL    C9811368   2.532   8.017   2.277 -0.1372  0.0106  0.3241
   36MOL    C9911369   2.459   0.029   2.221  0.1981  0.9493  0.5114
   36MOL   C10011370   2.522   0.159   2.259 -0.2342 -0.5493  1.0821
   36MOL   C10111371   2.650   0.196   2.212  0.8224 -0.1117 -0.1165
   36MOL   C10211372   2.710   0.315   2.248  0.1317  0.6841  0.2267
   36MOL   C10311373   2.640   0.407   2.331 -0.2132 -0.3694 -0.2343
   36MOL   C10411374   2.509   0.377   2.380 -0.4056 -1.0329  0.9838
   36MOL   C10511375   2.459   0.252   2.346 -0.2162  0.2678  0.0754
   36MOL   H10611376   2.629   8.007   2.229 -0.4542 -2.1706  0.0904
   36MOL   H10711377   2.561   8.049   2.377 -2.2175  3.8628 -0.1917
   36MOL   H10811378   2.361   0.034   2.268  0.7197 -0.8275  1.8368
   36MOL   H10911379   2.702   0.147   2.131  1.7663  2.5376 -1.1668
   36MOL   H11011380   2.808   0.338   2.211  0.7336 -0.5718  0.9988
   36MOL   H11111381   2.682   0.502   2.362 -1.2604  0.1854 -0.4715
   36MOL   H11211382   2.459   0.439   2.454 -0.6251  0.2795 -0.2534
   36MOL   H11311383   2.367   0.222   2.394  0.5088 -1.0729  0.6537
   36MOL   C11411384   2.442   0.020   2.070 -0.9385  0.1345  0.6846
   36MOL   C11511385   2.364   0.134   2.003  0.4880 -0.1743  0.9446
   36MOL   C11611386   2.409   0.139   1.856  0.0617  0.1074  0.2928
   36MOL   C11711387   2.415   0.025   1.777 -0.2152 -0.3316  0.8866
   36MOL   C11811388   2.461   0.040   1.639  0.2180 -0.3450 -0.2842
   36MOL   C11911389   2.491   0.160   1.579  0.0266 -0.5796  0.6102
   36MOL   C12011390   2.491   0.276   1.660 -0.0296 -0.0324 -0.7915
   36MOL   C12111391   2.453   0.267   1.799 -0.5278  0.3574  0.4944
   36MOL   H12211392   2.416   8.038   2.030 -1.0148  0.7706 -0.8296
   36MOL   H12311393   2.544   0.030   2.031 -1.0040 -0.0664  0.4695
   36MOL   H12411394   2.393   0.229   2.046  1.2026  1.1319 -2.2938
   36MOL   H12511395   2.383   8.040   1.804 -0.6606 -0.4601 -0.1165
   36MOL   H12611396   2.473   8.067   1.577 -0.1712 -0.4604 -0.1975
   36MOL   H12711397   2.525   0.163   1.476 -1.8781  2.4673  0.0141
   36MOL   H12811398   2.510   0.369   1.608 -0.6078  0.3715 -0.2916
   36MOL   H12911399   2.428   0.357   1.852 -1.8258 -0.8560  1.9752
   36MOL   C13011400   2.214   0.124   2.032 -0.1020 -0.0084  0.5693
   36MOL   C13111401   2.117   0.211   1.952 -1.0653 -0.0874 -0.1240
   36MOL   C13211402   2.104   0.165   1.807  0.6874  0.1564  0.1356
   36MOL   C13311403   2.113   0.257   1.700  0.3700 -0.3423 -0.1146
   36MOL   C13411404   2.079   0.224   1.565 -0.2840  0.5196 -1.6911
   36MOL   C13511405   2.029   0.090   1.538 -0.0581  0.1265 -0.0859
   36MOL   C13611406   2.032   8.109   1.641  0.3363 -0.0616  0.6097
   36MOL   C13711407   2.059   0.033   1.779 -0.4861  0.1884 -0.4841
   36MOL   H13811408   2.192   0.151   2.135 -0.2449 -0.1736  0.5821
   36MOL   H13911409   2.183   0.020   2.025 -2.8353  0.8332 -0.3582
   36MOL   H14011410   2.174   0.301   1.934 -0.1660 -0.8462 -1.1044
   36MOL   H14111411   2.145   0.359   1.718 -0.3791 -0.0209 -0.5501
   36MOL   H14211412   2.090   0.292   1.482 -3.2706 -0.8015 -3.2645
   36MOL   H14311413   2.007   0.069   1.434 -0.6062  0.5454 -0.0614
   36MOL   H14411414   2.003   8.008   1.619 -0.0125  0.0109  0.7383
   36MOL   H14511415   2.060   8.073   1.856  2.7162  0.2472 -0.3952
   36MOL   C14611416   1.982   0.241   2.018  0.4374  0.2904  0.8211
   36MOL   C14711417   1.985   0.366   2.110  0.0321  0.7780  0.6026
   36MOL   C14811418   2.022   0.493   2.031 -0.5115  0.5003 -0.6232
   36MOL   C14911419   1.965   0.525   1.911  0.1818 -0.0898  0.4118
   36MOL   C15011420   2.014   0.629   1.833 -0.3642  0.2876  0.7157
   36MOL   C15111421   2.127   0.701   1.875 -0.2487  0.2700  1.0386
   36MOL   C15211422   2.177   0.684   2.003 -0.6803  0.6798  0.0393
   36MOL   C15311423   2.124   0.578   2.082  0.1860 -0.2940  0.3038
   36MOL   H15411424   1.956   0.145   2.063 -2.0127 -1.0340 -3.1495
   36MOL   H15511425   1.907   0.252   1.939  2.0605 -0.5863 -0.8646
   36MOL   H15611426   2.065   0.344   2.181 -1.5361 -0.1373  2.1370
   36MOL   H15711427   1.881   0.467   1.878 -0.3043  0.1987  1.1298
   36MOL   H15811428   1.978   0.645   1.732  2.2871 -0.7288 -0.4389
   36MOL   H15911429   2.169   0.778   1.812 -3.0501  1.2109  0.2274
   36MOL   H16011430   2.264   0.733   2.042  0.3079 -1.4568  0.5954
   36MOL   H16111431   2.168   0.566   2.180  1.4296  1.0552 -0.0723
   36MOL   C16211432   1.859   0.390   2.200 -1.0254  0.1220 -0.2782
   36MOL   C16311433   1.853   0.312   2.334  0.1488  0.4308 -0.1121
   36MOL   C16411434   1.969   0.340   2.434 -0.1358 -0.0056  0.5287
   36MOL   C16511435   2.000   0.468   2.480  0.4072 -0.5356  0.0270
   36MOL   C16611436   2.109   0.485   2.571 -0.4577  0.4822  0.3547
   36MOL   C16711437   2.180   0.376   2.616 -0.4820 -0.2404 -0.2455
   36MOL   C16811438   2.155   0.248   2.561 -0.3078  1.0580 -0.1461
   36MOL   C16911439   2.043   0.228   2.473 -0.5660 -0.3292 -0.1121
   36MOL   H17011440   1.765   0.372   2.148 -0.3303 -0.0303 -1.4921
   36MOL   H17111441   1.862   0.494   2.233 -1.0753 -0.6297  2.1829
   36MOL   H17211442   1.868   0.206   2.312 -0.5135  0.0532  1.2276
   36MOL   H17311443   1.936   0.548   2.445 -0.0054 -0.4157  1.0168
   36MOL   H17411444   2.135   0.587   2.595  2.8154 -0.0323 -0.8069
   36MOL   H17511445   2.263   0.392   2.683 -2.8040  2.5565  2.1488
   36MOL   H17611446   2.212   0.163   2.595 -0.4446  0.6628 -0.8975
   36MOL   H17711447   2.021   0.127   2.441 -0.3611 -0.2657 -0.4567
   36MOL   C17811448   1.726   0.335   2.409 -0.1789 -1.3078  0.0250
   36MOL   C17911449   1.604   0.251   2.372  0.1844 -0.3452 -0.4459
   36MOL   C18011450   1.638   0.102   2.377 -0.1601 -0.6294 -1.0998
   36MOL   C18111451   1.669   0.049   2.505  0.2056 -0.7598  0.0618
   36MOL   C18211452   1.687   8.021   2.523 -0.1980 -0.9612 -0.8891
   36MOL   C18311453   1.687   7.938   2.407  0.4736  0.3852  0.6270
   36MOL   C18411454   1.661   7.988   2.280  0.8148 -0.3526 -0.0546
   36MOL   C18511455   1.632   0.010   2.267  0.5764 -0.1337 -0.1904
   36MOL   H18611456   1.690   0.438   2.417 -1.1138 -1.6269  0.0137
   36MOL   H18711457   1.752   0.313   2.513 -0.1228  0.0471  0.3153
   36MOL   H18811458   1.567   0.270   2.271 -1.9341 -0.3675  0.3029
   36MOL   H18911459   1.685   0.112   2.591  3.7253  2.0931 -2.5197
   36MOL   H19011460   1.709   7.982   2.621  1.0617  0.6515 -0.5055
   36MOL   H19111461   1.728   7.838   2.411  0.0665  0.2598  1.8391
   36MOL   H19211462   1.646   7.921   2.197  0.4000 -0.9993  0.5329
   36MOL   H19311463   1.593   0.045   2.173  1.5636 -1.5250 -1.1206
   36MOL   C19411464   1.490   0.299   2.468  0.2927  0.7864  0.5995
   36MOL   C19511465   1.370   0.202   2.483  0.0255 -0.6127  0.1393
   36MOL   C19611466   1.276   0.245   2.596  0.0997  0.4262  0.5256
   36MOL   C19711467   1.242   0.384   2.622  0.2037 -0.3299  0.0846
   36MOL   C19811468   1.148   0.415   2.716  0.3645 -0.8702  0.5110
   36MOL   C19911469   1.093   0.316   2.804 -0.4933 -0.4208  0.5994
   36MOL   C20011470   1.130   0.182   2.783  0.0670 -0.0811 -1.1102
   36MOL   C20111471   1.210   0.146   2.673 -0.3626  0.0925 -0.0576
   36MOL   H20211472   1.466   0.397   2.428  0.5716  0.5560 -0.1478
   36MOL   H20311473   1.531   0.316   2.567 -0.8746  0.9750  1.0521
   36MOL   H20411474   1.407   0.101   2.501 -0.3390 -1.0219 -1.3109
   36MOL   H20511475   1.272   0.456   2.548 -1.2209 -1.6939 -1.8758
   36MOL   H20611476   1.114   0.517   2.727  1.8278 -0.0341 -2.2708
   36MOL   H20711477   1.025   0.350   2.881 -0.4397  0.0117  0.4600
   36MOL   H20811478   1.087   0.106   2.846  2.4227  0.5243  1.2998
   36MOL   H20911479   1.232   0.043   2.646  1.4291  0.2647  0.7192
   36MOL   C21011480   1.290   0.208   2.349 -0.9858  0.1623  0.3436
   36MOL   C21111481   1.185   0.094   2.329 -0.1835  0.6954 -0.1356
   36MOL   C21211482   1.068   0.132   2.247 -0.3488  0.1303  0.0554
   36MOL   C21311483   0.967   0.200   2.317  0.9349  0.7574  0.0099
   36MOL   C21411484   0.851   0.245   2.240  0.1276 -0.1120 -0.1195
   36MOL   C21511485   0.844   0.228   2.101  0.3925 -0.6763 -0.4121
   36MOL   C21611486   0.946   0.163   2.030  0.0716 -0.0655  0.3396
   36MOL   C21711487   1.055   0.119   2.107  0.0593 -0.1051  0.2198
   36MOL   H21811488   1.358   0.199   2.264  0.6717 -0.5812  1.7195
   36MOL   H21911489   1.251   0.309   2.341 -2.1739 -0.3301 -0.2907
   36MOL   H22011490   1.142   0.062   2.424 -0.3730  0.9337 -0.1432
   36MOL   H22111491   0.980   0.214   2.423 -0.5843 -0.3427  0.3761
   36MOL   H22211492   0.762   0.289   2.283  0.8451  0.8469  0.4306
   36MOL   H22311493   0.751   0.254   2.052  0.6061 -1.5322 -1.2906
   36MOL   H22411494   0.949   0.146   1.924 -0.1526  2.7779 -0.1628
   36MOL   H22511495   1.127   0.074   2.041 -0.7985 -1.4274  0.1694
   36MOL   C22611496   1.262   8.083   2.269 -0.7335  0.6970  0.7232
   36MOL   C22711497   1.176   7.962   2.225  0.4073  0.0114  0.1509
   36MOL   C22811498   1.261   7.845   2.170 -0.1735  0.4301 -0.6953
   36MOL   C22911499   1.322   7.757   2.264 -0.5850 -0.8555 -0.0139
   36MOL   C23011500   1.418   7.664   2.219  0.3651  0.3874  0.2919
   36MOL   C23111501   1.453   7.656   2.078 -0.4758 -0.5038  0.7609
   36MOL   C23211502   1.403   7.755   1.992  0.0035 -0.2065  0.4125
   36MOL   C23311503   1.302   7.843   2.034  0.1147  0.4053  0.0734
   36MOL   H23411504   1.351   8.071   2.332 -2.0722 -0.0798  2.5085
   36MOL   H23511505   1.314   8.108   2.176 -0.6736  1.5306  0.9839
   36MOL   H23611506   1.115   7.987   2.138  0.4525 -0.0255  0.1081
   36MOL   H23711507   1.303   7.770   2.370  1.2031  0.5358  0.1535
   36MOL   H23811508   1.464   7.591   2.285  2.0457  0.9601 -0.2086
   36MOL   H23911509   1.507   7.573   2.036  0.6554  0.0356  1.0934
   36MOL   H24011510   1.433   7.760   1.889 -0.1926  0.3795  0.3842
   36MOL   H24111511   1.272   7.918   1.962  0.8605  1.3910  0.7773
   36MOL   C24211512   1.063   7.914   2.316  0.3806  0.1394 -0.2248
   36MOL   C24311513   0.954   7.817   2.269 -0.0844 -0.1271  0.4867
   36MOL   C24411514   0.888   7.857   2.131  0.1063  0.4405  0.0430
   36MOL   C24511515   0.802   7.969   2.136 -0.3484 -0.1305 -0.3581
   36MOL   C24611516   0.740   8.025   2.026 -0.3127 -0.2161  0.7079
   36MOL   C24711517   0.765   7.960   1.905  0.5494  0.9379 -0.2796
   36MOL   C24811518   0.851   7.844   1.885  0.8909 -0.0245  0.3919
   36MOL   C24911519   0.918   7.802   2.002 -0.7753 -0.5822  0.0701
   36MOL   H25011520   1.006   8.002   2.345 -0.0773  0.3595 -1.7234
   36MOL   H25111521   1.101   7.871   2.409  0.7062 -0.4366 -0.6209
   36MOL   H25211522   0.871   7.835   2.337  2.1770  1.0235  3.0362
   36MOL   H25311523   0.794   8.018   2.232  1.8129 -1.5977  0.6229
   36MOL   H25411524   0.671   8.107   2.035 -0.1966  0.0108 -0.3611
   36MOL   H25511525   0.725   8.007   1.816 -2.9242 -1.4860 -0.0987
   36MOL   H25611526   0.864   7.803   1.786  1.3491  0.6613  0.1640
   36MOL   H25711527   1.001   7.734   1.994  0.7255  1.2207 -0.1644
   36MOL   C25811528   1.007   7.672   2.269 -0.3976  0.5979  0.2066
   36MOL   C25911529   0.899   7.558   2.264 -0.1438  0.0998 -0.2472
   36MOL   C26011530   0.969   7.420   2.273  0.1357 -0.5144 -0.4894
   36MOL   C26111531   0.957   7.329   2.166  0.7606 -0.9448  0.2061
   36MOL   C26211532   1.017   7.202   2.182  0.7071 -0.4012 -0.3032
   36MOL   C26311533   1.093   7.165   2.292 -0.2708 -0.6340  0.3043
   36MOL   C26411534   1.111   7.262   2.392  0.9586  0.2632  0.9057
   36MOL   C26511535   1.052   7.389   2.382 -0.3360 -0.0710  0.6972
   36MOL   H26611536   1.074   7.664   2.355  0.5149 -1.3271 -0.6591
   36MOL   H26711537   1.079   7.659   2.188 -1.1620  0.4000 -0.4525
   36MOL   H26811538   0.859   7.558   2.163  0.5430  0.2167 -0.5193
   36MOL   H26911539   0.895   7.362   2.084  1.0636 -1.0095 -0.0508
   36MOL   H27011540   1.009   7.126   2.106  0.2921 -0.4743 -0.1857
   36MOL   H27111541   1.145   7.071   2.284  1.4112  0.3342 -0.3086
   36MOL   H27211542   1.170   7.259   2.482  0.3271  1.3113  1.3632
   36MOL   H27311543   1.081   7.458   2.459 -0.6611  1.8218 -0.8318
   36MOL   C27411544   0.787   7.572   2.369  0.0334  0.3675  0.0941
   36MOL   C27511545   0.693   7.457   2.379  0.7010  0.0481  0.1200
   36MOL   C27611546   0.612   7.477   2.511  0.1335  0.0940  0.0684
   36MOL   C27711547   0.638   7.409   2.630  0.0847 -0.0770 -0.2290
   36MOL   C27811548   0.569   7.439   2.751  0.0645 -0.3210 -0.5757
   36MOL   C27911549   0.450   7.516   2.743  0.4323  0.1093 -0.8822
   36MOL   C28011550   0.427   7.587   2.621  0.5320 -0.7386 -0.0760
   36MOL   C28111551   0.504   7.571   2.510  0.1456 -0.2401  0.8440
   36MOL   H28211552   0.726   7.661   2.349  1.6955  1.5024 -0.0119
   36MOL   H28311553   0.831   7.592   2.466 -1.7029  1.1859  0.7500
   36MOL   H28411554   0.748   7.363   2.376  0.5165 -0.1112  1.4832
   36MOL   H28511555   0.723   7.343   2.630  1.1240  1.1004 -4.6662
   36MOL   H28611556   0.596   7.378   2.835  2.3832 -0.0585 -1.1154
   36MOL   H28711557   0.380   7.524   2.825  0.4635 -1.0507 -0.7393
   36MOL   H28811558   0.347   7.659   2.623 -0.2569 -1.4448 -2.7538
   36MOL   H28911559   0.485   7.626   2.419 -0.9684 -1.5027  0.3141
   36MOL   C29011560   0.611   7.439   2.247  0.1073  0.3570  0.4231
   36MOL   C29111561   0.501   7.330   2.267 -0.1441  0.4647  0.2627
   36MOL   C29211562   0.391   7.341   2.162  0.3131 -0.4782  0.6926
   36MOL   C29311563   0.260   7.293   2.193  0.0270 -0.4858 -0.2585
   36MOL   C29411564   0.162   7.292   2.093 -0.3887  0.4671 -0.4932
   36MOL   C29511565   0.186   7.346   1.964  0.3188  1.4842 -0.0726
   36MOL   C29611566   0.312   7.399   1.937 -0.3508 -0.4207  0.1650
   36MOL   C29711567   0.417   7.388   2.029  0.4891 -0.7283 -0.8661
   36MOL   H29811568   0.670   7.401   2.164  2.3343 -0.2084  2.2002
   36MOL   H29911569   0.568   7.533   2.213 -0.8473 -0.2186  0.0059
   36MOL   H30011570   0.450   7.342   2.362  0.9253  0.3964  0.8627
   36MOL   H30111571   0.235   7.259   2.292  2.2966  2.1778  1.2944
   36MOL   H30211572   0.063   7.260   2.121 -0.1202  0.3615  0.3435
   36MOL   H30311573   0.106   7.351   1.892 -1.2677 -2.7319  1.2619
   36MOL   H30411574   0.334   7.445   1.841 -0.6857 -0.6577 -0.0275
   36MOL   H30511575   0.515   7.425   2.003  1.3500 -2.4203 -0.1110
   36MOL   C30611576   0.540   7.186   2.278 -0.1620 -0.3153 -0.0939
   36MOL   C30711577   0.598   7.115   2.150  0.2824  0.1336 -0.8071
   36MOL   C30811578   0.651   6.975   2.194  0.9833  0.4403  0.0229
   36MOL   C30911579   0.575   6.860   2.160 -0.7247  0.2658  0.2029
   36MOL   C31011580   0.623   6.733   2.209  0.4967 -0.6087 -0.1083
   36MOL   C31111581   0.740   6.719   2.291  0.1375 -0.8008  0.1764
   36MOL   C31211582   0.805   6.840   2.329  0.6388 -0.6626 -0.3999
   36MOL   C31311583   0.763   6.966   2.277 -0.4730  0.0785  0.3472
   36MOL   H31411584   0.461   7.129   2.327  0.8710 -1.1722  0.5885
   36MOL   H31511585   0.624   7.182   2.346 -1.4142 -0.6590  1.4615
   36MOL   H31611586   0.672   7.184   2.110  0.6735 -0.2723 -0.7963
   36MOL   H31711587   0.480   6.854   2.108 -0.8617 -0.8493  0.5652
   36MOL   H31811588   0.561   6.650   2.179  0.9574 -1.2001  0.5489
   36MOL   H31911589   0.780   6.624   2.321 -0.8032 -1.4968 -0.7560
   36MOL   H32011590   0.892   6.840   2.394  0.1671  1.3510  0.2441
   36MOL   H32111591   0.819   7.050   2.316 -0.3054  0.3062 -0.3933
   36MOL   H32211592   0.528   7.093   2.069  0.8133  0.8324 -1.4633
   37MOL     C111593   0.346   3.237   6.977 -0.0082  1.2550 -0.0051
   37MOL     C211594   0.392   3.126   6.874  0.1548  0.5192  0.7740
   37MOL     C311595   0.529   3.077   6.923  0.6341  0.0608 -0.0481
   37MOL     C411596   0.538   3.023   7.051  0.1043  0.0044  0.7811
   37MOL     C511597   0.657   2.970   7.096  0.3527 -0.0571 -0.5500
   37MOL     C611598   0.771   2.980   7.016 -0.6014  0.3691 -0.5813
   37MOL     C711599   0.769   3.038   6.889 -0.5380 -0.2245 -0.8278
   37MOL     C811600   0.641   3.082   6.836 -0.8491  0.4454  0.6464
   37MOL     H911601   0.265   3.295   6.932 -0.1285  0.3552 -0.9720
   37MOL    H1011602   0.295   3.201   7.066 -0.0926  0.9982 -0.1545
   37MOL    H1111603   0.404   3.161   6.771  2.6661  1.2624  1.2854
   37MOL    H1211604   0.454   3.009   7.118  1.3507 -1.0907  2.1605
   37MOL    H1311605   0.652   2.923   7.193  1.7751 -0.9184 -0.8654
   37MOL    H1411606   0.854   2.924   7.057 -2.8550 -1.7412  1.2431
   37MOL    H1511607   0.862   3.044   6.834 -0.0583 -0.3772 -0.0349
   37MOL    H1611608   0.623   3.126   6.739 -0.0181  1.5602  0.9863
   37MOL    H1711609   0.415   3.321   6.987  2.0728 -0.2997 -0.9727
   37MOL    C1811610   0.299   2.993   6.858 -0.1834  0.5560  0.3563
   37MOL    C1911611   0.169   3.019   6.770  0.0668  0.0286  0.5005
   37MOL    C2011612   0.194   3.061   6.626  0.3751 -0.5069 -0.4809
   37MOL    C2111613   0.147   3.183   6.584 -0.0371 -0.0220  0.2832
   37MOL    C2211614   0.172   3.227   6.453 -0.2838  0.2645  0.0453
   37MOL    C2311615   0.249   3.143   6.371  1.0375 -0.2264 -0.4799
   37MOL    C2411616   0.291   3.018   6.406  0.1603 -0.0742  0.2875
   37MOL    C2511617   0.265   2.978   6.538 -0.4183 -0.2177 -0.7284
   37MOL    H2611618   0.278   2.945   6.953  1.6230  2.6351  1.8541
   37MOL    H2711619   0.364   2.917   6.814 -1.6975 -0.7273  0.3339
   37MOL    H2811620   0.111   3.099   6.817  0.7504 -0.6753  2.5956
   37MOL    H2911621   0.102   3.259   6.646 -0.1132 -0.4314  0.7308
   37MOL    H3011622   0.125   3.321   6.430 -2.9206 -1.4791 -1.9722
   37MOL    H3111623   0.276   3.169   6.270  2.0707 -1.7660 -0.6156
   37MOL    H3211624   0.352   2.954   6.344  1.5968  2.8622 -1.4047
   37MOL    H3311625   0.290   2.877   6.565 -0.9735 -0.3097 -0.5578
   37MOL    C3411626   0.081   2.896   6.790 -0.1336  0.2656  0.5704
   37MOL    C3511627   8.074   2.902   6.701 -0.5401  0.5276 -0.4768
   37MOL    C3611628   8.034   2.766   6.642  0.4412 -0.8408  0.1943
   37MOL    C3711629   8.075   2.651   6.710  0.0636  0.8647 -0.0801
   37MOL    C3811630   8.042   2.526   6.655 -0.1369  0.4674 -0.1038
   37MOL    C3911631   7.982   2.516   6.531  0.1608 -0.7534  0.7864
   37MOL    C4011632   7.947   2.635   6.460  0.6651 -0.0754  0.8990
   37MOL    C4111633   7.970   2.761   6.518 -0.6498  0.1284 -0.0775
   37MOL    H4211634   0.053   2.874   6.893 -2.1184 -1.8737 -0.3996
   37MOL    H4311635   0.157   2.825   6.757 -0.9417 -1.2628  1.8856
   37MOL    H4411636   8.091   2.958   6.609 -1.2592  1.6917  0.0849
   37MOL    H4511637   0.011   2.656   6.806  3.0949 -1.4626 -1.4767
   37MOL    H4611638   8.068   2.434   6.706 -0.5675  1.0030  1.1017
   37MOL    H4711639   7.970   2.417   6.488 -1.0174  0.0274 -0.7469
   37MOL    H4811640   7.897   2.621   6.366  0.2904  1.6235  0.8285
   37MOL    H4911641   7.951   2.849   6.459 -1.5211  0.7087  1.0318
   37MOL    C5011642   7.946   2.971   6.767  0.3829 -0.6308 -0.1711
   37MOL    C5111643   7.897   2.929   6.905 -0.1084 -1.0038  0.5849
   37MOL    C5211644   7.984   3.001   7.013 -0.0731  0.0410  0.8036
   37MOL    C5311645   8.044   2.937   7.123  0.0597  0.2003 -0.2808
   37MOL    C5411646   0.000   3.014   7.216  0.2527 -0.3280  0.2525
   37MOL    C5511647   0.023   3.153   7.193 -0.0413  0.0225  0.2153
   37MOL    C5611648   8.078   3.219   7.088  0.7168  0.5974 -0.1483
   37MOL    C5711649   7.997   3.143   6.997 -0.0366 -0.1906  0.5589
   37MOL    H5811650   7.868   2.949   6.694  0.6410  0.7255 -0.8900
   37MOL    H5911651   7.957   3.078   6.745 -1.4365 -0.9826 -3.0302
   37MOL    H6011652   7.928   2.828   6.932 -0.8709 -1.7016 -1.1535
   37MOL    H6111653   8.031   2.831   7.140 -0.3276  0.6274  2.2940
   37MOL    H6211654   0.033   2.963   7.305 -1.4904 -0.0871  1.0555
   37MOL    H6311655   0.097   3.193   7.260  0.1490 -0.5774  0.3714
   37MOL    H6411656   8.091   3.326   7.078  0.6810  0.6197  0.0397
   37MOL    H6511657   7.947   3.200   6.919  1.7492  2.9465  1.6184
   37MOL    C6611658   7.752   2.959   6.929 -0.0717 -0.3813 -0.9738
   37MOL    C6711659   7.664   2.848   6.872  0.1553  0.4934 -0.6405
   37MOL    C6811660   7.697   2.714   6.933  0.3127 -0.4983  0.3191
   37MOL    C6911661   7.693   2.682   7.077  0.1049 -0.4737  0.3202
   37MOL    C7011662   7.732   2.552   7.116  0.2578 -0.2562  0.2327
   37MOL    C7111663   7.770   2.455   7.025  0.2892 -0.0253 -0.0249
   37MOL    C7211664   7.768   2.483   6.888  0.2669 -0.7881 -0.3711
   37MOL    C7311665   7.740   2.614   6.845 -0.7276  0.5975 -0.2883
   37MOL    H7411666   7.723   3.055   6.888  0.0741  0.5213  0.9984
   37MOL    H7511667   7.738   2.969   7.036  3.6449 -0.2081 -0.4389
   37MOL    H7611668   7.683   2.832   6.766 -0.9912  0.9424 -0.9212
   37MOL    H7711669   7.673   2.750   7.159 -0.3011 -1.8564  1.3873
   37MOL    H7811670   7.740   2.525   7.220  0.6680  0.6610  0.4464
   37MOL    H7911671   7.803   2.358   7.059 -2.5332 -0.6685  0.9700
   37MOL    H8011672   7.819   2.407   6.830  0.0493 -1.2922  0.0968
   37MOL    H8111673   7.762   2.636   6.741  0.3437 -1.5324 -0.5441
   37MOL    C8211674   7.517   2.893   6.889 -0.1627  0.8879 -0.1466
   37MOL    C8311675   7.450   2.960   6.757  0.2751  0.0882  0.4463
   37MOL    C8411676   7.530   3.076   6.703 -0.1643 -0.1037  0.4997
   37MOL    C8511677   7.503   3.213   6.743  0.3754  0.4531  0.6129
   37MOL    C8611678   7.583   3.316   6.688  0.5267  0.1347 -0.8604
   37MOL    C8711679   7.683   3.294   6.590 -0.1747 -1.1365 -0.2021
   37MOL    C8811680   7.698   3.161   6.550 -0.1571 -0.4772 -0.3894
   37MOL    C8911681   7.637   3.049   6.610  0.1468 -0.5199 -0.0225
   37MOL    H9011682   7.521   2.962   6.973  0.0978 -0.8051  1.2695
   37MOL    H9111683   7.454   2.811   6.924  1.4247  0.2597  1.3262
   37MOL    H9211684   7.358   3.005   6.794 -0.5418 -2.1618  1.2437
   37MOL    H9311685   7.418   3.242   6.802  0.0114 -0.6753  0.6554
   37MOL    H9411686   7.553   3.417   6.709 -1.4739 -0.2958 -1.5151
   37MOL    H9511687   7.736   3.372   6.538  1.3330 -2.4814 -0.7186
   37MOL    H9611688   7.777   3.146   6.478 -0.3446 -0.7402 -0.5391
   37MOL    H9711689   7.668   2.952   6.574 -2.2058 -1.6272  0.8700
   37MOL    C9811690   7.406   2.861   6.645 -0.6952  0.0103 -0.0841
   37MOL    C9911691   7.273   2.792   6.687 -0.0226  0.6561  0.0207
   37MOL   C10011692   7.153   2.856   6.629 -0.4184 -0.5143  0.1610
   37MOL   C10111693   7.158   2.864   6.487  0.8536 -0.8261 -0.6743
   37MOL   C10211694   7.042   2.911   6.423  0.4213  0.3252 -0.0672
   37MOL   C10311695   6.936   2.961   6.500  0.1800 -0.0929 -0.3755
   37MOL   C10411696   6.941   2.960   6.637 -0.2228  0.6945 -0.1756
   37MOL   C10511697   7.045   2.906   6.708 -0.0883 -0.2879  0.2858
   37MOL   H10611698   7.486   2.787   6.638 -0.8664 -0.0736 -1.2763
   37MOL   H10711699   7.402   2.908   6.547  0.6161  0.3510  0.0105
   37MOL   H10811700   7.261   2.802   6.795  1.7482 -0.3883  0.3287
   37MOL   H10911701   7.230   2.841   6.410  0.6553 -0.9829 -0.8133
   37MOL   H11011702   7.041   2.923   6.316 -2.2756  0.2218 -0.0883
   37MOL   H11111703   6.848   3.003   6.453  1.2785  2.8927  0.1371
   37MOL   H11211704   6.861   3.009   6.690 -1.5826 -1.3382 -0.3170
   37MOL   H11311705   7.039   2.895   6.815 -0.1301 -1.7489  0.1481
   37MOL   C11411706   7.282   2.640   6.673 -0.2264  0.1192  0.5166
   37MOL   C11511707   7.156   2.560   6.720 -0.0918  0.7353  0.8758
   37MOL   C11611708   7.161   2.418   6.664  0.1483 -0.5948 -0.6192
   37MOL   C11711709   7.197   2.307   6.745  0.7643  0.1156  0.3964
   37MOL   C11811710   7.208   2.180   6.695 -0.7606  0.1986 -0.8859
   37MOL   C11911711   7.177   2.157   6.557  0.7165  0.4450 -0.1547
   37MOL   C12011712   7.131   2.267   6.483 -0.1907  0.4652 -0.4787
   37MOL   C12111713   7.126   2.395   6.531  0.1241  0.2942  0.0842
   37MOL   H12211714   7.371   2.608   6.728  0.3872 -1.0019 -1.1073
   37MOL   H12311715   7.304   2.616   6.569 -0.9343 -0.6613  0.5377
   37MOL   H12411716   7.067   2.598   6.671 -0.0277  1.4758  1.3222
   37MOL   H12511717   7.214   2.329   6.850 -1.1087 -0.5367  0.8663
   37MOL   H12611718   7.237   2.094   6.754  0.7160  0.6136 -0.9977
   37MOL   H12711719   7.199   2.062   6.510 -0.2660  0.3052 -0.3348
   37MOL   H12811720   7.100   2.252   6.381  0.0426  1.3050 -0.6730
   37MOL   H12911721   7.113   2.472   6.457 -0.5995 -0.7212 -0.8685
   37MOL   C13011722   7.130   2.576   6.874 -0.1320 -0.1600  0.4205
   37MOL   C13111723   6.988   2.530   6.917 -0.0044 -0.4882 -0.4760
   37MOL   C13211724   6.985   2.522   7.072 -0.5426  0.2422  0.8987
   37MOL   C13311725   6.976   2.640   7.154  0.1565  0.3761 -0.3542
   37MOL   C13411726   6.988   2.627   7.288 -0.1404  0.4461 -0.2803
   37MOL   C13511727   7.010   2.501   7.347  0.3166  0.1532 -0.0710
   37MOL   C13611728   7.033   2.393   7.267 -0.3932 -0.5099 -0.1770
   37MOL   C13711729   7.021   2.395   7.127  0.4254  0.5450  0.6339
   37MOL   H13811730   7.133   2.677   6.914  1.0111 -0.0629  0.1152
   37MOL   H13911731   7.209   2.525   6.931 -0.8475  0.5002  2.0224
   37MOL   H14011732   6.975   2.427   6.883  1.2357 -1.4768  1.9828
   37MOL   H14111733   6.970   2.738   7.108  0.9106 -0.0611 -1.3958
   37MOL   H14211734   6.987   2.715   7.350  0.2157 -0.8535  1.6214
   37MOL   H14311735   7.049   2.491   7.447 -2.1891 -1.1451  0.8203
   37MOL   H14411736   7.069   2.299   7.305 -0.8037 -0.6059 -0.0187
   37MOL   H14511737   7.051   2.306   7.073 -0.3021  0.7472 -0.1034
   37MOL   C14611738   6.869   2.608   6.864 -0.4804  0.2654  0.1750
   37MOL   C14711739   6.751   2.521   6.834  0.4110 -0.3342  0.2093
   37MOL   C14811740   6.630   2.612   6.812 -0.4617 -0.1151  0.0761
   37MOL   C14911741   6.522   2.598   6.904 -0.0842  0.0590  0.0773
   37MOL   C15011742   6.410   2.679   6.888  0.1985 -0.3191  0.6078
   37MOL   C15111743   6.405   2.773   6.787  0.1206 -0.8542  0.0780
   37MOL   C15211744   6.506   2.780   6.685 -0.8833  0.1625 -0.0205
   37MOL   C15311745   6.618   2.700   6.698  0.6732 -0.4164 -0.1818
   37MOL   H15411746   6.900   2.658   6.772 -0.8572 -0.0184 -0.1084
   37MOL   H15511747   6.845   2.692   6.929  0.3683  0.3910  0.3377
   37MOL   H15611748   6.730   2.450   6.914  1.0647 -1.9286 -1.0075
   37MOL   H15711749   6.543   2.538   6.990 -0.7013 -0.8822 -0.4219
   37MOL   H15811750   6.332   2.685   6.963  0.2548  1.8034  0.5474
   37MOL   H15911751   6.317   2.836   6.785 -0.6997 -1.9622  0.6031
   37MOL   H16011752   6.498   2.849   6.601 -0.4003 -0.5599 -0.6634
   37MOL   H16111753   6.698   2.698   6.625 -0.3084 -1.3155 -1.2563
   37MOL   C16211754   6.773   2.434   6.716  0.0935 -0.0809  0.0132
   37MOL   C16311755   6.653   2.354   6.666  0.4647  0.5471  0.3712
   37MOL   C16411756   6.679   2.297   6.524  0.0772  0.7926 -0.0963
   37MOL   C16511757   6.575   2.319   6.427  0.4614  0.1429  0.3410
   37MOL   C16611758   6.592   2.276   6.294  0.0038 -0.3539  0.1142
   37MOL   C16711759   6.703   2.199   6.261 -0.7463  0.0456  0.3655
   37MOL   C16811760   6.794   2.168   6.364 -0.4045  0.1826 -0.2038
   37MOL   C16911761   6.787   2.216   6.497  0.2130  0.2264 -0.3287
   37MOL   H17011762   6.847   2.360   6.745  0.6376 -0.2001 -1.5953
   37MOL   H17111763   6.816   2.488   6.631  0.5143 -0.7618 -0.2158
   37MOL   H17211764   6.572   2.425   6.654  1.7491  1.4226 -3.9032
   37MOL   H17311765   6.482   2.363   6.460 -0.0088 -0.9529  0.5163
   37MOL   H17411766   6.532   2.298   6.207  0.6481 -2.0077 -0.7629
   37MOL   H17511767   6.712   2.177   6.156 -0.1630  1.3739  0.1238
   37MOL   H17611768   6.885   2.115   6.340  0.5154  1.5851  0.0969
   37MOL   H17711769   6.873   2.206   6.561 -0.2194 -0.9248  0.0926
   37MOL   C17811770   6.614   2.240   6.763 -0.0836 -0.5440 -0.5870
   37MOL   C17911771   6.470   2.187   6.757 -0.0202  0.0429 -0.1470
   37MOL   C18011772   6.459   2.052   6.831  1.2007 -0.6938  0.4996
   37MOL   C18111773   6.453   2.045   6.974  0.2748 -0.2902  0.1828
   37MOL   C18211774   6.426   1.923   7.046  0.2184 -0.6896  0.0674
   37MOL   C18311775   6.420   1.804   6.974  0.1185 -0.0013 -0.8703
   37MOL   C18411776   6.431   1.803   6.830 -0.6857 -0.6678 -0.0583
   37MOL   C18511777   6.445   1.927   6.762  0.5801 -0.0554  0.1222
   37MOL   H18611778   6.634   2.275   6.864  0.0097  0.1566 -0.8435
   37MOL   H18711779   6.687   2.160   6.760 -0.0214 -0.5586  1.0376
   37MOL   H18811780   6.448   2.162   6.653 -1.0261 -1.5736  0.4364
   37MOL   H18911781   6.469   2.134   7.033 -0.1299 -0.4310  0.5060
   37MOL   H19011782   6.420   1.938   7.153  0.6276  1.3852 -0.1781
   37MOL   H19111783   6.419   1.709   7.025 -2.8914 -0.1441 -1.0887
   37MOL   H19211784   6.435   1.709   6.776  0.8868  0.7921 -2.5932
   37MOL   H19311785   6.449   1.939   6.655  0.1232 -2.2621 -0.1767
   37MOL   C19411786   6.359   2.292   6.814 -0.0624  0.8836  0.4917
   37MOL   C19511787   6.215   2.243   6.834 -0.4914  0.3498 -0.0851
   37MOL   C19611788   6.132   2.342   6.911 -0.1081  0.4250  0.2463
   37MOL   C19711789   6.075   2.307   7.036  0.4061 -0.6084 -0.2877
   37MOL   C19811790   6.001   2.403   7.106 -0.1277 -0.7612  0.5762
   37MOL   C19911791   5.971   2.529   7.055 -0.7444 -0.4381  0.0318
   37MOL   C20011792   6.036   2.568   6.937 -0.3282  0.3284  0.7671
   37MOL   C20111793   6.099   2.468   6.853  0.6210  0.9430 -0.0771
   37MOL   H20211794   6.355   2.379   6.747  1.7590 -1.1487 -2.3639
   37MOL   H20311795   6.383   2.336   6.910  0.6755  2.7830 -0.5363
   37MOL   H20411796   6.230   2.151   6.890  1.2062  0.8100  0.2638
   37MOL   H20511797   6.087   2.210   7.083  3.2622  0.2690  0.8578
   37MOL   H20611798   5.958   2.389   7.204  0.5318  0.8189  1.1114
   37MOL   H20711799   5.909   2.587   7.123 -2.1477 -2.2214  0.3003
   37MOL   H20811800   6.022   2.669   6.900 -0.0318  0.1948  0.2850
   37MOL   H20911801   6.125   2.498   6.753  1.2488  1.3106  0.1967
   37MOL   C21011802   6.138   2.194   6.713 -0.1667  1.0493 -0.2480
   37MOL   C21111803   6.002   2.111   6.731  0.3380  0.2276  0.3686
   37MOL   C21211804   5.917   2.118   6.596 -0.1412  0.5404 -0.3675
   37MOL   C21311805   5.985   2.073   6.485  0.0557  0.4194  0.3912
   37MOL   C21411806   5.917   2.077   6.362 -0.2428  1.0039 -0.3668
   37MOL   C21511807   5.784   2.133   6.353  0.1719 -0.5545 -0.2931
   37MOL   C21611808   5.717   2.176   6.470  0.2105  0.1425 -0.8978
   37MOL   C21711809   5.787   2.173   6.592  0.1254 -0.5299  0.4973
   37MOL   H21811810   6.193   2.131   6.642 -1.7488  0.8448 -1.3231
   37MOL   H21911811   6.114   2.281   6.652 -1.2939  0.0718 -1.2204
   37MOL   H22011812   5.933   2.150   6.806 -0.9670 -0.8246 -0.2687
   37MOL   H22111813   6.091   2.050   6.483  0.3305  1.5521  1.2840
   37MOL   H22211814   5.969   2.035   6.277 -1.3945  0.8111 -0.9847
   37MOL   H22311815   5.739   2.133   6.255  0.2713  0.3754 -0.3413
   37MOL   H22411816   5.622   2.228   6.475  0.8354  1.4072 -1.8455
   37MOL   H22511817   5.738   2.194   6.686  0.4600 -1.7161  0.9507
   37MOL   C22611818   6.028   1.967   6.772  0.0812 -0.1608 -0.7042
   37MOL   C22711819   5.898   1.882   6.763  0.6448  0.6226  0.2405
   37MOL   C22811820   5.910   1.775   6.644  0.1213  0.1700 -0.4218
   37MOL   C22911821   5.992   1.660   6.655 -0.4456 -0.2512 -0.3024
   37MOL   C23011822   6.002   1.569   6.548  0.3320  0.2125  0.5959
   37MOL   C23111823   5.923   1.582   6.435 -0.8023 -0.2949 -0.5540
   37MOL   C23211824   5.835   1.692   6.421 -0.2349  0.0196  0.0732
   37MOL   C23311825   5.831   1.782   6.527 -0.0720 -0.5952  0.2232
   37MOL   H23411826   6.066   1.971   6.874 -1.3001  2.0639 -0.2524
   37MOL   H23511827   6.104   1.920   6.710 -0.8128 -0.6075 -1.4806
   37MOL   H23611828   5.816   1.950   6.743  1.8969  1.5524 -1.9250
   37MOL   H23711829   6.052   1.648   6.744 -2.2689  1.6568  1.2432
   37MOL   H23811830   6.076   1.495   6.573 -1.3642 -1.7958 -0.1765
   37MOL   H23911831   5.926   1.522   6.345 -0.5049  0.1392 -0.8325
   37MOL   H24011832   5.763   1.694   6.341 -0.1413 -2.2831 -0.0856
   37MOL   H24111833   5.758   1.862   6.522 -1.3768 -1.8115 -0.7276
   37MOL   C24211834   5.864   1.812   6.895 -0.4650 -0.3971 -0.0591
   37MOL   C24311835   5.824   1.902   7.014  0.0483  0.5539 -0.4205
   37MOL   C24411836   5.695   1.983   6.989 -0.3451  0.0006 -0.0442
   37MOL   C24511837   5.581   1.932   6.928  0.0656 -0.0311  0.1818
   37MOL   C24611838   5.466   2.010   6.896 -0.0059  0.5408 -0.0609
   37MOL   C24711839   5.466   2.145   6.927 -0.0722  0.2388 -0.4862
   37MOL   C24811840   5.585   2.203   6.983 -0.0217  0.0996  0.1967
   37MOL   C24911841   5.694   2.122   7.017 -0.0355 -0.1380  0.4843
   37MOL   H25011842   5.944   1.744   6.925 -1.0928 -1.0151  0.2328
   37MOL   H25111843   5.783   1.740   6.900 -0.2904 -0.5811  0.1325
   37MOL   H25211844   5.910   1.969   7.025  0.1107  0.3135  0.6511
   37MOL   H25311845   5.572   1.827   6.901 -1.7363 -0.5665  2.6542
   37MOL   H25411846   5.382   1.960   6.850  1.3926 -2.1016  0.1712
   37MOL   H25511847   5.371   2.197   6.920 -1.6636 -2.0733  2.4737
   37MOL   H25611848   5.579   2.304   7.022 -1.8405  0.0651  0.0301
   37MOL   H25711849   5.774   2.169   7.073  0.4377  1.1570 -1.2115
   37MOL   C25811850   5.800   1.817   7.143 -0.7080 -0.5693  0.1710
   37MOL   C25911851   5.934   1.776   7.214 -0.3507  0.0468 -0.5639
   37MOL   C26011852   5.992   1.893   7.290  0.3894  0.7187  0.4018
   37MOL   C26111853   5.935   1.959   7.397 -0.1193  0.1063 -0.6846
   37MOL   C26211854   5.998   2.066   7.467  0.2875 -0.2254  0.6004
   37MOL   C26311855   6.123   2.105   7.420 -0.7666 -0.0267  0.4598
   37MOL   C26411856   6.185   2.044   7.304  0.2505 -0.9094 -0.4395
   37MOL   C26511857   6.118   1.938   7.243  0.4452 -0.1251  0.0867
   37MOL   H26611858   5.732   1.734   7.125 -0.9156 -0.2316 -0.6249
   37MOL   H26711859   5.752   1.878   7.218 -1.1607 -0.3568 -0.2923
   37MOL   H26811860   6.010   1.740   7.145  1.6332 -5.5439  4.1410
   37MOL   H26911861   5.838   1.921   7.427  0.0567 -0.0073 -0.2576
   37MOL   H27011862   5.954   2.117   7.551 -0.6193 -1.7061  1.0597
   37MOL   H27111863   6.175   2.185   7.471  0.5105 -0.7522  0.3332
   37MOL   H27211864   6.283   2.071   7.268  1.4387 -0.4652  3.0045
   37MOL   H27311865   6.173   1.889   7.164 -0.6210 -1.1727 -0.0286
   37MOL   C27411866   5.906   1.656   7.308  0.3234 -0.0387 -0.5836
   37MOL   C27511867   5.875   1.521   7.233  0.0340  0.8297  0.0152
   37MOL   C27611868   5.983   1.488   7.129 -0.4767 -0.1341 -0.8743
   37MOL   C27711869   6.116   1.459   7.164  0.8906  0.6847  1.0156
   37MOL   C27811870   6.204   1.424   7.060  0.2992 -0.3583  0.1824
   37MOL   C27911871   6.160   1.409   6.930 -0.1698  0.6552  0.9265
   37MOL   C28011872   6.026   1.438   6.900 -0.3326  0.5544 -0.3369
   37MOL   C28111873   5.937   1.480   6.995  0.1280 -0.6379  0.4195
   37MOL   H28211874   5.824   1.678   7.376  0.1610  3.8331 -1.9286
   37MOL   H28311875   5.987   1.636   7.377 -0.7762  0.6163  0.9062
   37MOL   H28411876   5.786   1.515   7.171  0.0049 -2.2083  0.2805
   37MOL   H28511877   6.148   1.460   7.267 -0.4163 -0.7415  1.4538
   37MOL   H28611878   6.305   1.389   7.076  0.2898 -0.0531  0.9340
   37MOL   H28711879   6.226   1.359   6.860  0.1253 -0.8534  2.2676
   37MOL   H28811880   5.974   1.414   6.809  2.5554 -1.4711 -1.5224
   37MOL   H28911881   5.835   1.502   6.965 -0.2927 -3.0336  0.0092
   37MOL   C29011882   5.862   1.398   7.330  0.3407 -0.4866 -0.1898
   37MOL   C29111883   5.729   1.381   7.404  0.5010 -0.0301 -0.4312
   37MOL   C29211884   5.613   1.353   7.307  0.1984 -0.4658  0.4362
   37MOL   C29311885   5.589   1.238   7.232  0.2305  0.4562  0.0548
   37MOL   C29411886   5.466   1.217   7.161  0.0642  0.5267  0.9166
   37MOL   C29511887   5.376   1.325   7.144 -0.2358 -0.4855  0.4629
   37MOL   C29611888   5.404   1.443   7.214 -0.6332  0.5684 -0.8303
   37MOL   C29711889   5.517   1.453   7.299 -0.3417 -0.3782 -0.1531
   37MOL   H29811890   5.944   1.407   7.402  0.1060  1.1980 -0.0908
   37MOL   H29911891   5.863   1.315   7.260 -0.0253  0.9696 -1.9454
   37MOL   H30011892   5.714   1.472   7.463 -3.0081 -0.5736 -0.3900
   37MOL   H30111893   5.668   1.166   7.243 -0.8963 -1.2380 -2.5301
   37MOL   H30211894   5.445   1.134   7.095  0.7476  2.2979 -1.6043
   37MOL   H30311895   5.284   1.314   7.088 -0.0190 -0.5696  0.1240
   37MOL   H30411896   5.322   1.513   7.217 -0.6512  0.6984 -3.3310
   37MOL   H30511897   5.523   1.537   7.367 -3.2842  0.1259 -0.4598
   37MOL   C30611898   5.735   1.272   7.516  1.0224 -0.7374  0.2933
   37MOL   C30711899   5.600   1.236   7.583  0.1423 -0.4512  0.6266
   37MOL   C30811900   5.545   1.341   7.673 -0.1165  0.1942  0.2746
   37MOL   C30911901   5.600   1.367   7.799  0.3448 -0.1275  0.3479
   37MOL   C31011902   5.535   1.455   7.892 -0.0080 -0.4603 -0.2291
   37MOL   C31111903   5.417   1.523   7.852  0.0730 -1.3168  0.6258
   37MOL   C31211904   5.367   1.509   7.713  0.1066 -0.8977 -0.4592
   37MOL   C31311905   5.429   1.415   7.633  0.8102  0.4339 -0.6144
   37MOL   H31411906   5.809   1.296   7.593 -0.2298  1.5878  0.8204
   37MOL   H31511907   5.762   1.179   7.466 -0.0008 -0.8430 -0.0755
   37MOL   H31611908   5.628   1.135   7.612  2.1225 -0.2511 -0.5021
   37MOL   H31711909   5.690   1.314   7.827  0.8741 -0.0159 -1.0880
   37MOL   H31811910   5.578   1.486   7.986 -0.4543  0.5002 -0.3427
   37MOL   H31911911   5.378   1.614   7.896 -0.7915 -1.4674  0.1871
   37MOL   H32011912   5.281   1.557   7.670  1.0290 -0.2582 -1.6284
   37MOL   H32111913   5.381   1.392   7.539 -1.7373  1.2999  0.4329
   37MOL   H32211914   5.532   1.203   7.504  0.4323 -0.1485  0.2489
   38MOL     C111915   0.025   5.136   1.872 -0.5544  0.4356 -0.3834
   38MOL     C211916   0.022   5.281   1.925  0.1338  0.0844  0.3549
   38MOL     C311917   7.995   5.332   1.920 -0.3230  0.9031 -0.5098
   38MOL     C411918   7.894   5.304   2.016  0.3115  0.0125  0.1384
   38MOL     C511919   7.765   5.349   2.004  0.5173  0.2098 -0.4276
   38MOL     C611920   7.735   5.446   1.906 -0.1360  0.1041  0.8748
   38MOL     C711921   7.831   5.464   1.798  0.4374  0.3638 -0.1714
   38MOL     C811922   7.954   5.403   1.807  0.2381 -0.5946  0.0081
   38MOL     H911923   8.070   5.071   1.926 -2.2990  1.5748 -1.2126
   38MOL    H1011924   8.097   5.137   1.772 -1.1017 -0.6171 -0.1750
   38MOL    H1111925   0.088   5.344   1.867  0.1170 -2.0234 -2.0312
   38MOL    H1211926   7.922   5.221   2.079 -1.8880 -1.9442 -1.4220
   38MOL    H1311927   7.683   5.309   2.062  0.0235 -1.7882 -2.4130
   38MOL    H1411928   7.640   5.496   1.905  0.1931  0.7450 -2.1118
   38MOL    H1511929   7.816   5.533   1.716 -1.3283 -1.0060 -1.0190
   38MOL    H1611930   8.023   5.416   1.725  0.5862 -2.8239 -0.0758
   38MOL    H1711931   0.120   5.085   1.858  0.4270  1.7431  1.3238
   38MOL    C1811932   0.088   5.295   2.062  0.1887 -0.5121  0.0121
   38MOL    C1911933   0.238   5.246   2.072  0.0077  1.0655 -0.8864
   38MOL    C2011934   0.313   5.286   1.945  0.1782 -0.0661  0.5935
   38MOL    C2111935   0.371   5.184   1.869 -0.3722 -0.3039 -0.6291
   38MOL    C2211936   0.440   5.216   1.752  0.0404 -0.2549  0.0468
   38MOL    C2311937   0.473   5.352   1.720 -0.5261 -0.3627 -0.3445
   38MOL    C2411938   0.423   5.458   1.802 -0.6044  0.7959  0.7081
   38MOL    C2511939   0.335   5.420   1.913 -0.3265  0.2456 -0.2245
   38MOL    H2611940   0.032   5.251   2.145  0.6334 -1.0011  0.0592
   38MOL    H2711941   0.084   5.402   2.080  2.1446 -0.4650  0.3030
   38MOL    H2811942   0.235   5.137   2.076  1.1058  1.0186 -1.0449
   38MOL    H2911943   0.363   5.080   1.898 -0.9875  0.1249  0.7775
   38MOL    H3011944   0.481   5.136   1.691 -0.1659 -0.2458 -0.1055
   38MOL    H3111945   0.545   5.375   1.642 -2.3784  0.3410 -1.8981
   38MOL    H3211946   0.439   5.564   1.787  2.1237  0.4157  0.7025
   38MOL    H3311947   0.302   5.504   1.972  0.3350 -0.1347  0.7037
   38MOL    C3411948   0.303   5.293   2.205  0.5930 -0.1063 -0.3462
   38MOL    C3511949   0.254   5.229   2.340  0.2214  0.2672  0.3371
   38MOL    C3611950   0.257   5.078   2.330  0.1241  0.1896  0.2319
   38MOL    C3711951   0.367   5.009   2.280 -0.0890  0.5903  0.5136
   38MOL    C3811952   0.369   4.863   2.274 -0.8695 -0.0538  0.0292
   38MOL    C3911953   0.249   4.793   2.310 -0.5241 -0.0387  0.3880
   38MOL    C4011954   0.136   4.867   2.346 -0.2086  0.3454 -0.2197
   38MOL    C4111955   0.143   5.001   2.350  0.4776  0.6211 -0.0247
   38MOL    H4211956   0.292   5.401   2.208  2.6155  0.1155 -0.0832
   38MOL    H4311957   0.411   5.284   2.193  0.7803  0.8210  0.6551
   38MOL    H4411958   0.149   5.259   2.346 -0.5008 -1.7918 -1.0213
   38MOL    H4511959   0.458   5.057   2.249  0.2489  0.7488  1.7042
   38MOL    H4611960   0.460   4.809   2.253 -0.9860 -0.1935 -0.1130
   38MOL    H4711961   0.240   4.688   2.287 -1.3527  0.6082 -2.3558
   38MOL    H4811962   0.044   4.816   2.369  0.8988 -2.4603 -1.7516
   38MOL    H4911963   0.057   5.050   2.393  0.8817  2.9316 -1.7786
   38MOL    C5011964   0.337   5.277   2.453  0.2095 -0.1127  0.0745
   38MOL    C5111965   0.329   5.432   2.476  0.8338  0.4578  0.1453
   38MOL    C5211966   0.193   5.487   2.470 -0.2029 -0.2880  0.0890
   38MOL    C5311967   0.153   5.580   2.367 -0.2283  0.3105  0.2059
   38MOL    C5411968   0.019   5.635   2.362  0.0231 -0.3270  0.1734
   38MOL    C5511969   8.050   5.592   2.466 -0.8794  0.0281  0.0879
   38MOL    C5611970   8.094   5.512   2.567 -0.9220 -0.1883 -0.5111
   38MOL    C5711971   0.103   5.451   2.572 -0.3655 -0.1254  0.6069
   38MOL    H5811972   0.438   5.237   2.450 -0.4551 -1.6894 -2.2397
   38MOL    H5911973   0.297   5.242   2.548 -0.0679 -1.1888 -0.4313
   38MOL    H6011974   0.383   5.482   2.395 -1.4731  0.5196 -1.3818
   38MOL    H6111975   0.219   5.607   2.286 -1.2265 -0.4279 -0.8748
   38MOL    H6211976   8.099   5.697   2.280  1.9302  2.2346  1.2503
   38MOL    H6311977   7.945   5.618   2.463 -0.5757  1.3127  0.2359
   38MOL    H6411978   8.023   5.481   2.643 -0.0187  0.6098  0.6825
   38MOL    H6511979   0.131   5.395   2.660 -1.5359  1.8907  2.3183
   38MOL    C6611980   0.404   5.462   2.606  0.1526 -0.1874  0.1998
   38MOL    C6711981   0.430   5.607   2.655  0.0557  0.0439  0.0230
   38MOL    C6811982   0.311   5.674   2.732 -0.0366 -0.2823 -0.0338
   38MOL    C6911983   0.212   5.752   2.666 -0.2188  0.0870 -0.3028
   38MOL    C7011984   0.111   5.804   2.751 -0.1509  0.1384 -0.7769
   38MOL    C7111985   0.111   5.785   2.888 -0.3704  0.0192 -0.5617
   38MOL    C7211986   0.200   5.700   2.949 -0.4616  0.4837 -0.2176
   38MOL    C7311987   0.294   5.643   2.866 -0.2300  0.2843 -0.1153
   38MOL    H7411988   0.497   5.407   2.591  0.1714 -0.1698  0.2522
   38MOL    H7511989   0.357   5.416   2.692 -0.0973  1.3960  0.9273
   38MOL    H7611990   0.437   5.660   2.560 -0.8706 -1.5008 -0.9359
   38MOL    H7711991   0.231   5.761   2.560  2.6289  2.5375  0.3441
   38MOL    H7811992   0.041   5.881   2.722  1.0760  2.0850  1.2264
   38MOL    H7911993   0.034   5.829   2.951 -0.2064  0.6329 -0.7844
   38MOL    H8011994   0.209   5.669   3.052  1.0921  1.5854 -0.0072
   38MOL    H8111995   0.355   5.564   2.905 -0.2073  0.6117  0.5221
   38MOL    C8211996   0.574   5.620   2.713 -0.2100  0.3699  0.7487
   38MOL    C8311997   0.641   5.766   2.740 -0.3533 -0.3007  0.1400
   38MOL    C8411998   0.616   5.808   2.888 -0.4387  0.4989  0.4591
   38MOL    C8511999   0.691   5.746   2.994  0.6487  0.5231  0.4661
   38MOL    C8612000   0.671   5.781   3.128 -0.0207  0.4410 -0.7566
   38MOL    C8712001   0.568   5.872   3.151  0.2037  0.4026 -0.7015
   38MOL    C8812002   0.489   5.932   3.053  0.0757 -0.9990 -0.2546
   38MOL    C8912003   0.516   5.901   2.919  0.5437  0.1241  0.4590
   38MOL    H9012004   0.643   5.576   2.640 -1.4697 -1.7209  0.7765
   38MOL    H9112005   0.601   5.549   2.791 -0.5467  0.1200  0.6388
   38MOL    H9212006   0.605   5.836   2.664  0.8222 -2.5024 -2.5187
   38MOL    H9312007   0.769   5.679   2.962  0.3172  0.5407 -0.4131
   38MOL    H9412008   0.727   5.735   3.208  1.1350  0.5376 -1.5036
   38MOL    H9512009   0.557   5.892   3.256  0.9807 -2.0003 -0.1493
   38MOL    H9612010   0.424   6.015   3.074  0.9855 -0.4994  0.6573
   38MOL    H9712011   0.463   5.950   2.838  1.0434  2.0858  1.2782
   38MOL    C9812012   0.801   5.764   2.709 -0.6950 -0.0870  0.5889
   38MOL    C9912013   0.829   5.790   2.563  0.1590  0.1686  0.0361
   38MOL   C10012014   0.811   5.933   2.518 -0.0702 -0.3792 -0.8710
   38MOL   C10112015   0.872   6.039   2.589  0.3728 -0.2056 -0.2674
   38MOL   C10212016   0.854   6.173   2.544  0.0311  0.5873  0.5137
   38MOL   C10312017   0.758   6.199   2.446 -0.0900 -0.5628 -0.0956
   38MOL   C10412018   0.679   6.098   2.386  0.2303 -0.0498  0.0472
   38MOL   C10512019   0.717   5.964   2.414  0.3950  0.3076  0.2066
   38MOL   H10612020   0.845   5.671   2.744  0.1991  0.3752  0.6895
   38MOL   H10712021   0.836   5.846   2.772  1.1925 -1.4335  1.3331
   38MOL   H10812022   0.765   5.725   2.503 -0.1770  1.2120 -0.7491
   38MOL   H10912023   0.948   6.016   2.663 -0.0392  0.9755  0.5374
   38MOL   H11012024   0.920   6.249   2.586  1.8481  0.2452 -1.6281
   38MOL   H11112025   0.754   6.302   2.416  2.3967 -0.2752  0.4025
   38MOL   H11212026   0.619   6.117   2.299  1.4354 -1.9854 -1.2296
   38MOL   H11312027   0.663   5.887   2.360 -0.4463 -0.4410  2.0667
   38MOL   C11412028   0.970   5.733   2.516 -0.2362  0.3373  0.1558
   38MOL   C11512029   0.995   5.584   2.528 -0.5370 -0.2210 -0.2588
   38MOL   C11612030   0.898   5.511   2.441 -0.5913  0.2076  0.0100
   38MOL   C11712031   0.891   5.541   2.303  0.3999  0.1552  0.4903
   38MOL   C11812032   0.799   5.466   2.220  0.2068 -0.0032  0.6183
   38MOL   C11912033   0.724   5.354   2.276 -0.4986 -0.1580  0.4425
   38MOL   C12012034   0.732   5.327   2.415 -0.2217  1.3071 -0.4013
   38MOL   C12112035   0.819   5.409   2.493  0.3215  0.0581 -0.2663
   38MOL   H12212036   1.031   5.799   2.578 -2.1297  3.0427 -0.7816
   38MOL   H12312037   0.982   5.766   2.413 -0.4356 -3.0093 -0.9938
   38MOL   H12412038   0.984   5.547   2.630 -1.5922  1.3253  0.2007
   38MOL   H12512039   0.958   5.618   2.270  0.4998  0.4228  1.3149
   38MOL   H12612040   0.785   5.487   2.115 -0.5441 -1.0666  0.4983
   38MOL   H12712041   0.667   5.300   2.202 -0.1007  1.3412 -0.9793
   38MOL   H12812042   0.682   5.245   2.465  0.7052  1.5364  0.9251
   38MOL   H12912043   0.822   5.386   2.598 -0.5450 -1.7787 -0.6166
   38MOL   C13012044   1.140   5.545   2.481 -0.4714  0.2767  0.1006
   38MOL   C13112045   1.247   5.553   2.590 -0.2328 -0.1030  0.0628
   38MOL   C13212046   1.234   5.446   2.687 -0.8849  0.7632 -0.3667
   38MOL   C13312047   1.246   5.309   2.655  0.6008  0.2180  0.3737
   38MOL   C13412048   1.252   5.206   2.753 -0.0939 -0.2966  0.0637
   38MOL   C13512049   1.254   5.247   2.886  0.2124 -0.1514 -0.3046
   38MOL   C13612050   1.246   5.386   2.920  0.2627  0.3296 -0.3423
   38MOL   C13712051   1.235   5.487   2.826  0.2350 -0.3816 -0.0888
   38MOL   H13812052   1.174   5.611   2.401  1.6579 -1.3795 -0.4169
   38MOL   H13912053   1.133   5.446   2.436  0.2749  0.0665  0.4317
   38MOL   H14012054   1.220   5.647   2.637 -2.3613 -0.0292 -1.2484
   38MOL   H14112055   1.255   5.281   2.551  0.9197 -1.3782  0.8255
   38MOL   H14212056   1.258   5.103   2.722  0.4675 -0.3134  0.2246
   38MOL   H14312057   1.278   5.171   2.959  2.9136 -0.1287 -1.1366
   38MOL   H14412058   1.244   5.417   3.023  0.1380 -1.4806  0.2214
   38MOL   H14512059   1.218   5.589   2.857 -0.5605 -0.5256 -0.0520
   38MOL   C14612060   1.399   5.569   2.544 -0.6605 -0.1464 -0.3381
   38MOL   C14712061   1.438   5.714   2.505 -0.2591 -0.1752  0.2634
   38MOL   C14812062   1.377   5.830   2.590  0.5042  0.7188  0.0835
   38MOL   C14912063   1.295   5.920   2.525  0.2832 -0.5115 -0.1630
   38MOL   C15012064   1.239   6.025   2.601 -0.4392  0.4060 -0.0127
   38MOL   C15112065   1.259   6.029   2.744 -0.4997 -0.0845 -0.5781
   38MOL   C15212066   1.338   5.929   2.804 -0.0794  0.3092 -0.5890
   38MOL   C15312067   1.398   5.827   2.730  0.0402  0.1134 -0.6883
   38MOL   H15412068   1.423   5.506   2.458 -4.4341 -0.8626 -0.9802
   38MOL   H15512069   1.464   5.533   2.623 -1.2659 -1.0936 -0.2561
   38MOL   H15612070   1.378   5.734   2.416 -1.3173 -0.0677  0.9878
   38MOL   H15712071   1.272   5.926   2.419 -0.1179 -1.6318 -0.1438
   38MOL   H15812072   1.162   6.091   2.563 -1.1367 -0.2352  0.2629
   38MOL   H15912073   1.209   6.104   2.805 -0.6649 -1.4739  1.0396
   38MOL   H16012074   1.351   5.936   2.911  2.4239  2.8398 -0.9991
   38MOL   H16112075   1.458   5.749   2.775 -1.4734 -0.3061  0.6597
   38MOL   C16212076   1.592   5.719   2.476 -0.0353  0.5613  0.0080
   38MOL   C16312077   1.655   5.858   2.450  0.5508  0.4729 -0.6826
   38MOL   C16412078   1.808   5.842   2.455 -0.1538 -0.2956  0.7574
   38MOL   C16512079   1.878   5.783   2.343 -0.2521 -0.6616  0.6747
   38MOL   C16612080   2.017   5.757   2.356 -0.5998 -0.2695  0.3145
   38MOL   C16712081   2.088   5.807   2.468 -0.0374  0.2391  0.3607
   38MOL   C16812082   2.017   5.862   2.572 -0.1972  0.2195  0.0600
   38MOL   C16912083   1.879   5.877   2.568 -0.2698  0.7782  0.1658
   38MOL   H17012084   1.628   5.657   2.393 -0.6400 -1.1733  1.0146
   38MOL   H17112085   1.646   5.683   2.564  0.7424  3.5085  0.8102
   38MOL   H17212086   1.620   5.918   2.534 -0.5991  1.5034 -1.8688
   38MOL   H17312087   1.832   5.766   2.246 -1.5789  3.1671  0.5129
   38MOL   H17412088   2.077   5.718   2.275  0.5902  5.1834 -1.6112
   38MOL   H17512089   2.195   5.803   2.483  0.0460  1.6589  0.1948
   38MOL   H17612090   2.064   5.898   2.662 -1.0231 -0.0586  0.6039
   38MOL   H17712091   1.824   5.930   2.644 -2.2342  0.3884 -0.9605
   38MOL   C17812092   1.602   5.925   2.319  0.1020  0.0647 -0.0093
   38MOL   C17912093   1.552   6.066   2.326 -0.6425 -0.3493  0.0970
   38MOL   C18012094   1.640   6.157   2.418 -0.3968  0.5039 -0.7640
   38MOL   C18112095   1.586   6.218   2.533  0.2441  0.4796  0.6352
   38MOL   C18212096   1.660   6.298   2.620 -0.3923  0.6767  0.8909
   38MOL   C18312097   1.795   6.316   2.594  0.0005  0.2786 -0.6584
   38MOL   C18412098   1.856   6.257   2.481  0.5130 -1.2203  0.1464
   38MOL   C18512099   1.782   6.174   2.397  0.5085 -0.1986  0.2441
   38MOL   H18612100   1.545   5.865   2.248  0.4986 -0.2984 -0.0217
   38MOL   H18712101   1.695   5.936   2.262  1.7905 -1.4240  2.3770
   38MOL   H18812102   1.456   6.054   2.376 -0.3659  2.3155  1.3631
   38MOL   H18912103   1.482   6.213   2.560  0.5725  1.4227  2.1518
   38MOL   H19012104   1.614   6.335   2.710 -0.8836 -1.7190  1.6640
   38MOL   H19112105   1.852   6.379   2.660 -0.0456  1.3033 -1.5856
   38MOL   H19212106   1.963   6.263   2.477  0.4730 -0.4690  0.2256
   38MOL   H19312107   1.831   6.123   2.316 -1.1523 -0.9580 -0.3133
   38MOL   C19412108   1.541   6.132   2.183  0.6280  0.6640  0.2784
   38MOL   C19512109   1.437   6.073   2.085  0.0444 -0.3918 -0.4258
   38MOL   C19612110   1.305   6.045   2.155 -0.2978  0.3971  0.1469
   38MOL   C19712111   1.240   5.919   2.136  0.3648  0.3334 -0.2738
   38MOL   C19812112   1.115   5.888   2.199 -0.1251 -0.5981  0.5433
   38MOL   C19912113   1.051   5.988   2.268 -0.1336 -0.6076  0.2147
   38MOL   C20012114   1.113   6.112   2.287 -0.4326  0.5484  0.5765
   38MOL   C20112115   1.238   6.146   2.228 -1.0635 -0.1154 -0.5523
   38MOL   H20212116   1.639   6.157   2.141 -1.1426  2.4229 -2.9960
   38MOL   H20312117   1.495   6.231   2.190 -0.1764  0.1919  1.9768
   38MOL   H20412118   1.485   5.980   2.054  0.3002 -0.4565  0.1651
   38MOL   H20512119   1.276   5.841   2.070  0.3266  0.1629 -0.0939
   38MOL   H20612120   1.074   5.789   2.189 -3.1532  0.7639 -1.2623
   38MOL   H20712121   0.957   5.965   2.315 -0.7374 -0.2251 -0.7888
   38MOL   H20812122   1.063   6.185   2.349 -0.6497  0.2231  0.7827
   38MOL   H20912123   1.284   6.244   2.224  1.5367 -1.1013  2.7127
   38MOL   C21012124   1.416   6.145   1.946  0.7002 -0.4587 -0.6354
   38MOL   C21112125   1.544   6.186   1.870  0.1774  0.5678 -0.3624
   38MOL   C21212126   1.632   6.060   1.830  0.4796  0.4843  0.1523
   38MOL   C21312127   1.580   5.959   1.749 -0.2817  1.0013  0.2824
   38MOL   C21412128   1.663   5.844   1.713  0.6205 -0.3011 -0.4037
   38MOL   C21512129   1.797   5.839   1.751  0.4862 -0.9684  0.7595
   38MOL   C21612130   1.851   5.951   1.827 -0.3203 -0.0648 -0.0785
   38MOL   C21712131   1.769   6.055   1.867  0.0049  0.3743  0.7142
   38MOL   H21812132   1.350   6.231   1.955 -0.3875 -1.0282 -2.8060
   38MOL   H21912133   1.347   6.080   1.892 -1.0127 -0.7285  1.7450
   38MOL   H22012134   1.612   6.234   1.940  0.6224 -1.2205  0.4675
   38MOL   H22112135   1.475   5.959   1.727 -0.3740 -1.8216  0.5691
   38MOL   H22212136   1.623   5.762   1.655  0.9230 -0.0870 -0.9185
   38MOL   H22312137   1.870   5.762   1.728  1.2456  0.3027 -1.1639
   38MOL   H22412138   1.955   5.965   1.854  0.4822 -2.1243 -1.9013
   38MOL   H22512139   1.813   6.132   1.930 -0.0173  0.1970  0.9475
   38MOL   C22612140   1.514   6.276   1.748  0.2782  0.0282 -1.0143
   38MOL   C22712141   1.569   6.417   1.762 -0.1812  0.4083 -0.2099
   38MOL   C22812142   1.719   6.433   1.762 -0.3240 -0.4533 -0.2118
   38MOL   C22912143   1.800   6.329   1.704  0.4655 -0.6134  0.0380
   38MOL   C23012144   1.940   6.331   1.711  0.1697  0.4323  0.0851
   38MOL   C23112145   2.005   6.443   1.763 -0.2237 -0.3811  0.2539
   38MOL   C23212146   1.925   6.552   1.821  0.0648 -0.5584 -0.3348
   38MOL   C23312147   1.782   6.544   1.817  0.2452 -0.1163 -0.4607
   38MOL   H23412148   1.407   6.276   1.730  0.0004 -5.0227 -0.1204
   38MOL   H23512149   1.544   6.240   1.650  1.9502 -3.0689  0.5599
   38MOL   H23612150   1.531   6.452   1.858 -1.0664 -0.2362 -0.3128
   38MOL   H23712151   1.748   6.238   1.677 -2.1545  0.9237 -0.3277
   38MOL   H23812152   1.998   6.251   1.667  0.3444  0.3395  0.4833
   38MOL   H23912153   2.112   6.448   1.776 -0.3509  1.1039  0.7844
   38MOL   H24012154   1.969   6.635   1.873  0.2676 -1.4450  0.9632
   38MOL   H24112155   1.720   6.620   1.862  0.6760 -0.6371  1.0361
   38MOL   C24212156   1.498   6.510   1.649  0.1952 -0.1387 -0.5734
   38MOL   C24312157   1.344   6.539   1.649  0.1941  0.6280  0.1573
   38MOL   C24412158   1.277   6.531   1.786  0.6293  0.4381 -0.3596
   38MOL   C24512159   1.203   6.415   1.825 -0.0418 -0.2894 -0.2841
   38MOL   C24612160   1.145   6.413   1.953  0.5709  0.3543 -0.4352
   38MOL   C24712161   1.147   6.521   2.040  1.1617 -0.4660  0.2782
   38MOL   C24812162   1.208   6.636   1.995 -0.0379  0.3917  0.0239
   38MOL   C24912163   1.273   6.645   1.867 -0.3840 -0.7963  0.0121
   38MOL   H25012164   1.526   6.482   1.547  0.9555  0.4309 -0.5324
   38MOL   H25112165   1.550   6.603   1.673  3.0615 -1.9196  0.4504
   38MOL   H25212166   1.297   6.460   1.589  0.1249  0.5233  0.3494
   38MOL   H25312167   1.195   6.330   1.758  0.4874  0.0330 -0.7647
   38MOL   H25412168   1.085   6.329   1.983 -0.4864  0.1888 -2.9218
   38MOL   H25512169   1.109   6.511   2.140  2.2627 -2.8538  0.5067
   38MOL   H25612170   1.216   6.718   2.064  0.8691  1.3234 -1.1730
   38MOL   H25712171   1.322   6.733   1.828  1.9304 -0.2244  3.9875
   38MOL   C25812172   1.311   6.664   1.561 -0.6752  0.3067 -0.3782
   38MOL   C25912173   1.162   6.710   1.553  0.0843 -0.3251 -0.3507
   38MOL   C26012174   1.147   6.839   1.478 -0.2504 -0.0613  0.0972
   38MOL   C26112175   1.128   6.847   1.337  0.4985 -0.8041  1.2214
   38MOL   C26212176   1.127   6.969   1.273  0.0717  0.1964 -0.1519
   38MOL   C26312177   1.145   7.085   1.352 -0.2412  0.1664 -0.2852
   38MOL   C26412178   1.145   7.078   1.492 -0.1176  0.2596 -0.6882
   38MOL   C26512179   1.140   6.955   1.555  0.0228 -0.1143 -0.0476
   38MOL   H26612180   1.352   6.644   1.462 -2.0392 -1.8077 -0.5502
   38MOL   H26712181   1.364   6.746   1.610 -0.2868  0.3476 -0.8666
   38MOL   H26812182   1.131   6.738   1.654  1.1138 -1.3801  0.2640
   38MOL   H26912183   1.119   6.759   1.275 -0.3618  0.7585 -0.9392
   38MOL   H27012184   1.141   6.959   1.167  0.1258  1.4388 -0.2717
   38MOL   H27112185   1.146   7.179   1.299  2.9719 -0.4630 -1.4844
   38MOL   H27212186   1.146   7.172   1.545  1.0973  0.1781 -0.5567
   38MOL   H27312187   1.150   6.950   1.662 -2.2245 -0.7646  0.1670
   38MOL   C27412188   1.063   6.598   1.508 -0.3087 -0.0439 -0.2098
   38MOL   C27512189   0.917   6.625   1.545  0.1537  0.5161 -0.0483
   38MOL   C27612190   0.831   6.546   1.445  0.1682 -0.5918  0.0002
   38MOL   C27712191   0.862   6.409   1.414  0.5395  0.5450 -0.6233
   38MOL   C27812192   0.795   6.346   1.303 -0.3332  0.3037 -0.2292
   38MOL   C27912193   0.684   6.410   1.242  0.0434 -0.1755  0.9339
   38MOL   C28012194   0.647   6.542   1.284 -0.2485  0.0281  0.4344
   38MOL   C28112195   0.728   6.609   1.375 -0.4703  0.7585  0.4778
   38MOL   H28212196   1.078   6.502   1.557 -2.7430  0.5928  1.8512
   38MOL   H28312197   1.074   6.571   1.403 -0.8013 -1.1419  0.0089
   38MOL   H28412198   0.903   6.733   1.540  0.3434  0.5301 -0.3095
   38MOL   H28512199   0.950   6.360   1.453  1.3863  2.0268 -0.6440
   38MOL   H28612200   0.823   6.247   1.272 -1.9531 -0.8373  1.7832
   38MOL   H28712201   0.622   6.360   1.169  1.5961  1.3205 -1.4873
   38MOL   H28812202   0.570   6.595   1.230 -1.8935  0.1107  2.7777
   38MOL   H28912203   0.717   6.716   1.388  1.4754  0.9998  0.2909
   38MOL   C29012204   0.884   6.586   1.689  0.0879 -0.3316 -0.4104
   38MOL   C29112205   0.746   6.621   1.753  0.0478 -0.8422 -0.4620
   38MOL   C29212206   0.696   6.546   1.872 -0.3557  0.1686  0.6971
   38MOL   C29312207   0.792   6.518   1.970 -0.1194 -0.2952 -0.7351
   38MOL   C29412208   0.764   6.438   2.080 -0.4355  0.2250 -0.5167
   38MOL   C29512209   0.634   6.385   2.099 -0.7176 -0.1262 -0.7548
   38MOL   C29612210   0.530   6.415   2.001  0.1467 -0.4816 -0.4764
   38MOL   C29712211   0.564   6.492   1.885  0.3550  1.3967 -0.3629
   38MOL   H29812212   0.963   6.619   1.756 -0.7327  0.2262  0.2929
   38MOL   H29912213   0.895   6.478   1.686 -1.0886 -0.4519 -0.8610
   38MOL   H30012214   0.678   6.585   1.676  0.4640  1.4448 -1.9665
   38MOL   H30112215   0.892   6.554   1.955 -0.5037  0.5578 -1.2779
   38MOL   H30212216   0.836   6.417   2.158 -0.2608 -2.4951 -1.3570
   38MOL   H30312217   0.614   6.321   2.183  1.0997  0.6421  0.2860
   38MOL   H30412218   0.436   6.362   2.007  0.3055 -0.8572 -1.3319
   38MOL   H30512219   0.487   6.499   1.809 -1.0887  0.2631  0.9484
   38MOL   C30612220   0.725   6.776   1.764 -0.1971  0.5806  0.4305
   38MOL   C30712221   0.826   6.852   1.857  0.0174 -0.3307  0.0873
   38MOL   C30812222   0.823   7.000   1.836 -0.6132 -0.3659 -0.1016
   38MOL   C30912223   0.943   7.076   1.866 -1.2057 -0.2187  0.6772
   38MOL   C31012224   0.943   7.213   1.841  0.2470 -0.4024  0.0255
   38MOL   C31112225   0.831   7.283   1.791 -0.5022 -0.3280  0.9261
   38MOL   C31212226   0.714   7.206   1.767  0.5197  0.6584  0.3626
   38MOL   C31312227   0.711   7.066   1.784  0.2615 -0.1397 -0.5420
   38MOL   H31412228   0.628   6.795   1.808  0.3852  0.6164  1.7141
   38MOL   H31512229   0.724   6.815   1.662 -1.7418 -1.5694 -0.4135
   38MOL   H31612230   0.928   6.818   1.845 -0.1965 -1.0730  0.3171
   38MOL   H31712231   1.021   7.027   1.922 -1.4150 -2.8246 -1.2323
   38MOL   H31812232   1.031   7.274   1.851 -0.1698  0.4173 -1.2714
   38MOL   H31912233   0.827   7.389   1.773  1.0628 -0.1665  1.4816
   38MOL   H32012234   0.625   7.251   1.727  1.5930  2.1137 -0.4095
   38MOL   H32112235   0.623   7.009   1.760  1.3045 -2.3050  0.5545
   38MOL   H32212236   0.813   6.839   1.965  3.4168  3.2988  1.0586
   39MOL     C112237   4.826   0.781   5.135 -0.3042 -0.0645  0.0641
   39MOL     C212238   4.715   0.886   5.111  0.4637 -0.0996 -0.0686
   39MOL     C312239   4.773   1.005   5.035 -0.2057 -0.2767  0.3537
   39MOL     C412240   4.787   1.000   4.894 -0.0520 -1.0528  1.0539
   39MOL     C512241   4.804   1.124   4.824 -0.5609 -0.4252  0.4389
   39MOL     C612242   4.828   1.241   4.899 -0.5258 -0.1042  0.2667
   39MOL     C712243   4.838   1.241   5.036 -0.4669  0.1594 -0.0764
   39MOL     C812244   4.802   1.125   5.105  0.0892  0.0405 -1.2921
   39MOL     H912245   4.871   0.733   5.048  1.4226 -1.8752  1.9004
   39MOL    H1012246   4.906   0.827   5.193 -0.4706 -0.6476  0.7706
   39MOL    H1112247   4.708   0.920   5.214  1.8910 -2.1553  0.7204
   39MOL    H1212248   4.759   0.905   4.850 -2.7648  0.6647 -1.0200
   39MOL    H1312249   4.797   1.140   4.717 -0.6127  2.2749  0.7960
   39MOL    H1412250   4.844   1.333   4.844  0.5980  0.2947  1.2469
   39MOL    H1512251   4.866   1.334   5.084  0.4161  0.5971 -1.3987
   39MOL    H1612252   4.794   1.138   5.212 -0.0291 -2.9011 -0.9080
   39MOL    H1712253   4.796   0.698   5.200  0.1059  0.7875  1.3635
   39MOL    C1812254   4.582   0.830   5.051  0.0804  0.6287  0.2540
   39MOL    C1912255   4.529   0.702   5.124  0.4467 -0.6145  0.2636
   39MOL    C2012256   4.492   0.745   5.271  0.1240  0.2050  0.2616
   39MOL    C2112257   4.374   0.815   5.301 -0.4343 -0.3233  0.4567
   39MOL    C2212258   4.343   0.855   5.432  0.0742 -0.1705 -0.2363
   39MOL    C2312259   4.430   0.818   5.532 -1.2608 -0.3174  0.4554
   39MOL    C2412260   4.546   0.742   5.506  0.1014  0.0904 -0.0375
   39MOL    C2512261   4.578   0.709   5.373  0.2080  0.3443  0.4073
   39MOL    H2612262   4.595   0.816   4.944  1.8216  2.4375  0.1753
   39MOL    H2712263   4.500   0.901   5.057 -0.0445  0.5671 -0.7157
   39MOL    H2812264   4.604   0.625   5.136  0.6583 -0.2770  1.1839
   39MOL    H2912265   4.303   0.852   5.228 -0.1892  1.2053  0.9697
   39MOL    H3012266   4.257   0.918   5.446 -0.4072 -1.0728  0.9395
   39MOL    H3112267   4.414   0.860   5.631 -1.6806  1.5214 -0.3709
   39MOL    H3212268   4.600   0.704   5.591  0.4238  0.7411  0.0525
   39MOL    H3312269   4.655   0.638   5.346  0.8686  0.9925  0.5453
   39MOL    C3412270   4.415   0.632   5.057 -0.3912 -0.0883  0.3644
   39MOL    C3512271   4.453   0.548   4.938 -0.2567  0.3303 -0.2236
   39MOL    C3612272   4.522   0.415   4.959 -0.0223  0.2446 -0.8089
   39MOL    C3712273   4.466   0.317   5.044 -0.2671  0.0605 -0.2052
   39MOL    C3812274   4.530   0.192   5.061  0.8143 -0.5174 -0.2947
   39MOL    C3912275   4.652   0.160   4.998 -0.4058  0.2708 -0.2714
   39MOL    C4012276   4.701   0.257   4.909 -0.5033  0.7373  0.2409
   39MOL    C4112277   4.639   0.381   4.894 -1.1144  0.7288  0.2714
   39MOL    H4212278   4.336   0.699   5.024  1.1979  1.7095  0.1052
   39MOL    H4312279   4.369   0.561   5.125 -1.1138 -1.4726 -1.4965
   39MOL    H4412280   4.522   0.610   4.881 -2.8925  2.6881 -0.9491
   39MOL    H4512281   4.365   0.322   5.081 -0.5408  0.9732 -1.0519
   39MOL    H4612282   4.483   0.114   5.118  0.7545  1.5147  2.5537
   39MOL    H4712283   4.694   0.061   5.002 -1.3369 -0.1666 -1.0706
   39MOL    H4812284   4.780   0.220   4.845 -0.1896  0.6887  0.6581
   39MOL    H4912285   4.686   0.457   4.832  0.0363  1.7098  2.2953
   39MOL    C5012286   4.322   0.522   4.851  0.1242  0.0623 -0.0949
   39MOL    C5112287   4.283   0.636   4.746  0.1409  0.1017  0.6256
   39MOL    C5212288   4.385   0.647   4.627  0.0778  0.7220 -0.0368
   39MOL    C5312289   4.474   0.756   4.629 -0.6621 -0.7500  0.0381
   39MOL    C5412290   4.568   0.781   4.524 -0.2671  0.3123  0.2488
   39MOL    C5512291   4.576   0.693   4.418 -0.0580  0.2225  0.1739
   39MOL    C5612292   4.479   0.586   4.411 -0.4366  0.0366  0.6330
   39MOL    C5712293   4.387   0.561   4.515  0.2285  0.2650 -0.5763
   39MOL    H5812294   4.242   0.492   4.918 -1.3974 -0.2874 -1.9968
   39MOL    H5912295   4.345   0.431   4.795 -0.4698  0.3456 -0.8171
   39MOL    H6012296   4.290   0.734   4.792 -0.0552  0.1817  0.4845
   39MOL    H6112297   4.462   0.819   4.715 -3.3722  0.1555 -0.9561
   39MOL    H6212298   4.626   0.872   4.530 -0.8699  0.7820 -0.8603
   39MOL    H6312299   4.637   0.714   4.331  1.2598  1.2335  1.3280
   39MOL    H6412300   4.473   0.533   4.317 -1.3703  0.0785  0.6673
   39MOL    H6512301   4.310   0.486   4.504  1.8954 -1.4968 -0.6722
   39MOL    C6612302   4.139   0.610   4.698  0.4011 -0.3161  0.2932
   39MOL    C6712303   4.018   0.666   4.778  0.1501  0.8892 -0.0080
   39MOL    C6812304   4.047   0.808   4.824 -0.6883  0.7409 -0.2292
   39MOL    C6912305   4.070   0.833   4.960  0.3685  0.0405  0.2059
   39MOL    C7012306   4.083   0.967   5.002  0.2383 -0.1478  0.0444
   39MOL    C7112307   4.079   1.070   4.909  0.5120  0.5150 -0.2294
   39MOL    C7212308   4.057   1.042   4.767 -0.7474  0.5857 -0.4447
   39MOL    C7312309   4.043   0.912   4.727  0.1319  0.8249 -0.1569
   39MOL    H7412310   4.131   0.505   4.671  0.7076 -0.2417 -0.0970
   39MOL    H7512311   4.130   0.660   4.601 -0.1262 -1.8638 -0.4640
   39MOL    H7612312   4.006   0.601   4.864 -1.4991  1.3232  0.1015
   39MOL    H7712313   4.059   0.747   5.024 -0.1605  0.4414  0.6505
   39MOL    H7812314   4.098   1.001   5.103 -0.3310 -1.0613  0.4430
   39MOL    H7912315   4.089   1.169   4.952  0.5773 -0.5536  2.3517
   39MOL    H8012316   4.046   1.120   4.692 -1.1344  1.8709  0.9158
   39MOL    H8112317   4.015   0.887   4.625 -0.4679 -3.4651  0.9850
   39MOL    C8212318   3.887   0.654   4.698  0.3780 -0.6470 -0.3876
   39MOL    C8312319   3.834   0.511   4.671  0.4399 -0.8087  0.0321
   39MOL    C8412320   3.795   0.439   4.799  0.1652  0.1972  0.4640
   39MOL    C8512321   3.892   0.354   4.847 -0.3653 -0.0579  0.1196
   39MOL    C8612322   3.860   0.269   4.955  0.6745 -0.5788  0.2148
   39MOL    C8712323   3.730   0.272   5.014  0.2837  0.0766 -0.0184
   39MOL    C8812324   3.633   0.358   4.963 -0.4038 -0.3627 -0.0813
   39MOL    C8912325   3.668   0.448   4.855  0.6145 -0.4555 -0.5883
   39MOL    H9012326   3.900   0.700   4.600 -0.7581  0.3185 -0.0971
   39MOL    H9112327   3.805   0.708   4.746  0.6679 -0.9392  0.4570
   39MOL    H9212328   3.923   0.463   4.631  0.9074  0.4990 -0.5377
   39MOL    H9312329   3.993   0.362   4.811 -0.6467  0.5945 -0.5513
   39MOL    H9412330   3.933   0.194   4.981  3.2742  0.7274 -2.9087
   39MOL    H9512331   3.704   0.196   5.085 -1.7860  0.9747  0.2247
   39MOL    H9612332   3.530   0.348   4.994 -0.1000 -0.0632  1.0615
   39MOL    H9712333   3.605   0.527   4.819  1.9072  0.5932 -0.6030
   39MOL    C9812334   3.728   0.492   4.559  0.5889  0.2785  0.7450
   39MOL    C9912335   3.741   0.553   4.412 -0.4061  0.7871  0.1675
   39MOL   C10012336   3.882   0.550   4.364 -0.4160  0.0254  1.0248
   39MOL   C10112337   3.957   0.429   4.353 -0.2626  0.0415 -0.4412
   39MOL   C10212338   4.090   0.434   4.301 -0.0836 -0.1128 -0.2193
   39MOL   C10312339   4.146   0.553   4.257  0.1244 -0.4395 -0.3048
   39MOL   C10412340   4.070   0.672   4.265 -0.5852 -0.0185 -0.0334
   39MOL   C10512341   3.940   0.675   4.326 -0.9429  0.6214 -0.9274
   39MOL   H10612342   3.632   0.530   4.594 -0.5607 -3.0708  1.4221
   39MOL   H10712343   3.706   0.385   4.561  1.2870  0.0494 -1.6841
   39MOL   H10812344   3.723   0.660   4.419  0.4477  0.8876  0.8746
   39MOL   H10912345   3.931   0.334   4.398  2.6900 -0.3028  0.6423
   39MOL   H11012346   4.148   0.342   4.302 -1.3386 -0.9394 -1.5452
   39MOL   H11112347   4.247   0.549   4.220  0.0733 -0.8401 -0.3983
   39MOL   H11212348   4.118   0.759   4.222 -1.5562  0.6035  0.1138
   39MOL   H11312349   3.897   0.773   4.342 -0.5412  0.4856  1.2156
   39MOL   C11412350   3.631   0.504   4.316  0.1869 -0.6854 -0.4920
   39MOL   C11512351   3.511   0.599   4.274  0.3822 -0.2656 -0.1575
   39MOL   C11612352   3.438   0.548   4.148 -0.1880 -0.3239  0.6761
   39MOL   C11712353   3.387   0.417   4.146 -0.2936  0.1648  0.4736
   39MOL   C11812354   3.331   0.365   4.028 -0.2497  0.7585  0.8294
   39MOL   C11912355   3.321   0.445   3.909  0.0859  0.0415 -0.4276
   39MOL   C12012356   3.373   0.580   3.920 -0.2377  0.1445  0.4601
   39MOL   C12112357   3.430   0.633   4.034  0.3772  0.6018  0.1736
   39MOL   H12212358   3.596   0.405   4.344 -1.2086  0.5932  2.4673
   39MOL   H12312359   3.682   0.485   4.222  1.3877  1.0858 -0.2252
   39MOL   H12412360   3.555   0.697   4.257 -0.2749 -0.1220 -1.0836
   39MOL   H12512361   3.386   0.366   4.241  0.9648  0.4680  0.6601
   39MOL   H12612362   3.300   0.262   4.031 -0.3751  0.8070  1.2094
   39MOL   H12712363   3.268   0.403   3.825 -2.8427  1.3410  0.7292
   39MOL   H12812364   3.369   0.639   3.830  1.2435  0.6020  0.6854
   39MOL   H12912365   3.482   0.727   4.045  1.3209 -0.0320  1.2587
   39MOL   C13012366   3.404   0.639   4.382  0.1186  0.2119  0.4340
   39MOL   C13112367   3.412   0.776   4.443 -0.1247 -0.1984 -0.1153
   39MOL   C13212368   3.391   0.889   4.338  0.5796  0.1276  0.4194
   39MOL   C13312369   3.268   0.899   4.267 -0.0736  0.7601  0.4491
   39MOL   C13412370   3.250   0.992   4.167 -0.3993  0.4163 -0.2599
   39MOL   C13512371   3.348   1.084   4.143 -0.1122  0.4531 -0.3387
   39MOL   C13612372   3.472   1.093   4.221  0.0262  0.5480  0.2892
   39MOL   C13712373   3.493   0.992   4.320  0.0136 -0.3275  0.0444
   39MOL   H13812374   3.412   0.570   4.467 -3.2161 -0.8978 -0.1114
   39MOL   H13912375   3.302   0.621   4.348 -0.1208 -0.3133  1.4025
   39MOL   H14012376   3.512   0.793   4.484  0.1490  0.3881 -1.0019
   39MOL   H14112377   3.196   0.822   4.289  0.5851  0.3351  1.1515
   39MOL   H14212378   3.149   1.004   4.132 -0.5476 -2.3999 -0.9690
   39MOL   H14312379   3.323   1.171   4.085  3.0169  0.6882 -1.4454
   39MOL   H14412380   3.535   1.177   4.198 -1.5888  1.4574 -0.9321
   39MOL   H14512381   3.580   0.989   4.383  0.1855 -0.0468 -0.1817
   39MOL   C14612382   3.311   0.780   4.560  0.2757 -0.0843 -0.1454
   39MOL   C14712383   3.376   0.752   4.696 -0.3967  0.1159  0.1260
   39MOL   C14812384   3.483   0.860   4.738 -0.3183  0.0877 -0.3504
   39MOL   C14912385   3.589   0.834   4.824 -0.7234 -0.5068  0.9921
   39MOL   C15012386   3.669   0.935   4.869  0.4650  0.4607 -0.3750
   39MOL   C15112387   3.659   1.062   4.818  0.1727 -0.7193  0.0661
   39MOL   C15212388   3.563   1.089   4.720  0.2706 -0.1291 -0.2902
   39MOL   C15312389   3.470   0.993   4.692  0.5087 -0.2401 -0.3127
   39MOL   H15412390   3.233   0.707   4.540  0.2534  0.5181 -2.3813
   39MOL   H15512391   3.250   0.870   4.552  0.2728 -0.1594 -0.9430
   39MOL   H15612392   3.432   0.663   4.668  0.4944  0.7534 -0.1396
   39MOL   H15712393   3.594   0.735   4.869  2.0418 -0.3571  1.0645
   39MOL   H15812394   3.753   0.919   4.935 -0.6786 -0.5239  0.8450
   39MOL   H15912395   3.716   1.145   4.858 -1.0895  1.3666 -2.3115
   39MOL   H16012396   3.564   1.189   4.679  0.9214 -0.9847 -2.4133
   39MOL   H16112397   3.382   1.022   4.636 -0.4447 -1.1705  0.6697
   39MOL   C16212398   3.272   0.726   4.814 -0.0983 -0.2820 -0.1919
   39MOL   C16312399   3.160   0.629   4.786  0.7483 -1.1150 -0.6646
   39MOL   C16412400   3.201   0.506   4.707  0.2442 -0.1615 -0.0691
   39MOL   C16512401   3.120   0.465   4.592 -0.3629  0.1443 -0.0925
   39MOL   C16612402   3.160   0.361   4.511 -0.4288  0.4420  0.0552
   39MOL   C16712403   3.283   0.296   4.539 -0.3725 -0.2555 -0.1663
   39MOL   C16812404   3.364   0.336   4.649 -0.1578 -0.9673  0.5780
   39MOL   C16912405   3.320   0.436   4.742  0.0564 -0.0530 -0.2147
   39MOL   H17012406   3.225   0.821   4.837  1.3930  0.8153 -1.5735
   39MOL   H17112407   3.324   0.680   4.898  3.4609  0.5720 -1.8058
   39MOL   H17212408   3.076   0.672   4.732  1.8193 -0.1583 -1.5913
   39MOL   H17312409   3.030   0.518   4.564 -3.0804 -2.9083  2.4010
   39MOL   H17412410   3.104   0.331   4.424 -1.5916 -1.8219  1.5689
   39MOL   H17512411   3.324   0.214   4.482 -0.0861 -0.7931  0.8136
   39MOL   H17612412   3.457   0.286   4.674 -0.8846 -1.7461  1.7870
   39MOL   H17712413   3.376   0.467   4.829 -1.0033 -0.6546  0.6928
   39MOL   C17812414   3.091   0.583   4.908 -0.8261 -0.4517  0.2131
   39MOL   C17912415   3.029   0.693   4.988 -0.4976 -0.4731 -0.2130
   39MOL   C18012416   2.909   0.761   4.924 -1.3557  0.1927 -0.2796
   39MOL   C18112417   2.789   0.689   4.905  0.1366  0.3035  0.0623
   39MOL   C18212418   2.681   0.753   4.845  0.4385 -0.6293 -0.0464
   39MOL   C18312419   2.684   0.889   4.812 -0.2420 -0.4052 -0.4941
   39MOL   C18412420   2.807   0.963   4.827  0.6324  0.2039 -0.1085
   39MOL   C18512421   2.920   0.898   4.885  0.2794  0.1432 -0.3941
   39MOL   H18612422   3.159   0.523   4.968 -1.1098 -0.6273  0.3637
   39MOL   H18712423   2.999   0.531   4.880 -1.5654  0.5316  0.8061
   39MOL   H18812424   3.098   0.776   5.001  0.4131 -1.0535 -1.2714
   39MOL   H18912425   2.785   0.589   4.945  3.3172  0.2878  0.4650
   39MOL   H19012426   2.588   0.699   4.843 -0.2715  0.6079 -1.3650
   39MOL   H19112427   2.597   0.935   4.768  0.4050  1.7716  0.4556
   39MOL   H19212428   2.810   1.066   4.794 -0.7163  0.7895  1.5130
   39MOL   H19312429   3.014   0.949   4.897  0.6787 -1.1335  2.3818
   39MOL   C19412430   2.994   0.639   5.130 -0.8894  0.2743 -0.2112
   39MOL   C19512431   3.097   0.661   5.244 -0.0754  0.1624 -0.3383
   39MOL   C19612432   3.021   0.638   5.376 -0.2764 -0.1428  0.2486
   39MOL   C19712433   2.997   0.508   5.425  0.2777  1.1585  0.4091
   39MOL   C19812434   2.927   0.498   5.546 -0.2278  0.7260 -0.2078
   39MOL   C19912435   2.877   0.614   5.616 -0.2565  0.2947 -1.2273
   39MOL   C20012436   2.892   0.741   5.553  0.1684  0.2820 -0.2828
   39MOL   C20112437   2.970   0.752   5.442 -0.1349  0.2575  0.9197
   39MOL   H20212438   2.981   0.531   5.126 -1.5368  0.4187 -2.5917
   39MOL   H20312439   2.904   0.696   5.151 -0.6347  0.0117  1.6375
   39MOL   H20412440   3.132   0.764   5.239  0.8170 -0.1120  0.1574
   39MOL   H20512441   3.050   0.423   5.386  1.0095  1.3349  1.0216
   39MOL   H20612442   2.919   0.399   5.589  0.4190  0.3440 -0.9673
   39MOL   H20712443   2.826   0.608   5.711  1.4777  0.8966 -0.2311
   39MOL   H20812444   2.856   0.824   5.611 -0.4970 -1.0250  1.2225
   39MOL   H20912445   2.992   0.846   5.395 -0.2179 -0.7542 -1.2011
   39MOL   C21012446   3.225   0.570   5.225  0.0965  0.4082 -0.4056
   39MOL   C21112447   3.330   0.589   5.335 -0.1247 -0.5567 -0.7124
   39MOL   C21212448   3.392   0.459   5.384 -0.2461  0.4454  0.0969
   39MOL   C21312449   3.487   0.394   5.304 -0.2233  0.1252 -0.7190
   39MOL   C21412450   3.535   0.267   5.343  0.2078 -0.1354  0.5071
   39MOL   C21512451   3.490   0.208   5.464 -0.6654 -0.0023  0.0412
   39MOL   C21612452   3.410   0.280   5.555  0.2435  0.0346  0.1239
   39MOL   C21712453   3.358   0.404   5.511  0.2987  0.6958 -0.0180
   39MOL   H21812454   3.265   0.591   5.126  0.2829 -2.4115 -0.9959
   39MOL   H21912455   3.198   0.464   5.224  2.2859 -0.1907  1.3780
   39MOL   H22012456   3.273   0.624   5.421  1.8432 -2.1100  1.2795
   39MOL   H22112457   3.505   0.436   5.206  3.2548  0.4444  0.0026
   39MOL   H22212458   3.605   0.222   5.274  1.1430  0.5399  1.0195
   39MOL   H22312459   3.523   0.107   5.484 -0.0922  0.0670 -0.5457
   39MOL   H22412460   3.390   0.241   5.654 -1.6764  1.3732  0.2955
   39MOL   H22512461   3.286   0.460   5.569 -0.0945  0.6584 -0.4720
   39MOL   C22612462   3.439   0.691   5.307  0.0348 -0.3365  0.0453
   39MOL   C22712463   3.517   0.740   5.435 -0.1135  0.5063  0.6106
   39MOL   C22812464   3.668   0.774   5.408  0.0006 -0.7765  0.1213
   39MOL   C22912465   3.757   0.762   5.516 -0.1719  0.1541 -0.5416
   39MOL   C23012466   3.896   0.773   5.491  0.5688 -0.5835  0.2927
   39MOL   C23112467   3.946   0.829   5.371 -0.0192 -1.0576  0.4779
   39MOL   C23212468   3.858   0.843   5.261  0.2024 -0.6741  0.3516
   39MOL   C23312469   3.723   0.815   5.280 -0.0376 -0.4679  0.6939
   39MOL   H23412470   3.396   0.781   5.262 -0.6035 -1.8086 -2.3771
   39MOL   H23512471   3.513   0.646   5.240 -1.5464  1.1288 -2.7796
   39MOL   H23612472   3.527   0.651   5.497 -0.3769 -0.8623 -1.2926
   39MOL   H23712473   3.716   0.715   5.605 -2.1753  1.4700 -0.7259
   39MOL   H23812474   3.968   0.749   5.568  0.8947  2.0460  0.8329
   39MOL   H23912475   4.051   0.853   5.362 -0.5516  1.0153 -0.4394
   39MOL   H24012476   3.892   0.874   5.163 -0.5549  0.5920  0.4814
   39MOL   H24112477   3.655   0.822   5.196  0.6622 -0.3510  0.1347
   39MOL   C24212478   3.445   0.838   5.526  0.3733 -0.1808  0.0762
   39MOL   C24312479   3.458   0.989   5.484 -0.2283  0.2689 -0.2727
   39MOL   C24412480   3.383   1.016   5.356  0.4227 -0.2329  0.8000
   39MOL   C24512481   3.451   1.049   5.232  0.0648 -0.0243 -0.6656
   39MOL   C24612482   3.384   1.082   5.118 -0.4516 -0.3750 -0.6797
   39MOL   C24712483   3.239   1.074   5.113  0.0583  0.3251  0.2436
   39MOL   C24812484   3.167   1.042   5.230  0.8339 -0.3085 -0.3692
   39MOL   C24912485   3.242   1.014   5.353 -0.5569 -0.4832 -0.0836
   39MOL   H25012486   3.500   0.818   5.618  1.2949  1.3362 -0.1292
   39MOL   H25112487   3.345   0.799   5.546  0.1224 -0.3069 -1.3878
   39MOL   H25212488   3.564   1.008   5.469 -0.5039  1.7895 -0.3838
   39MOL   H25312489   3.555   1.018   5.233  0.4774  1.3294 -1.4506
   39MOL   H25412490   3.440   1.089   5.026 -0.2203 -0.8436 -0.5743
   39MOL   H25512491   3.187   1.089   5.019 -0.5835  0.1210  0.5606
   39MOL   H25612492   3.059   1.044   5.242  1.0003  0.0606  1.1678
   39MOL   H25712493   3.190   0.990   5.445  0.2783  0.1593  0.5778
   39MOL   C25812494   3.415   1.079   5.603 -0.9340  0.0730 -0.4278
   39MOL   C25912495   3.453   1.232   5.589  0.0383  0.6970 -1.0735
   39MOL   C26012496   3.384   1.317   5.700  0.5481 -0.2208  0.2472
   39MOL   C26112497   3.318   1.442   5.664 -0.6703  0.0647  0.1417
   39MOL   C26212498   3.258   1.518   5.766 -0.5426 -0.7599 -0.3485
   39MOL   C26312499   3.274   1.476   5.899 -0.5573 -0.4455 -0.2627
   39MOL   C26412500   3.350   1.364   5.937 -0.3831  0.7188  0.7913
   39MOL   C26512501   3.399   1.278   5.835 -0.5527  0.1320  0.6554
   39MOL   H26612502   3.449   1.038   5.698  2.3189  0.7004 -1.2804
   39MOL   H26712503   3.308   1.079   5.626 -0.9891  2.3106 -0.5973
   39MOL   H26812504   3.417   1.284   5.500 -1.9085  1.2196 -0.0009
   39MOL   H26912505   3.303   1.482   5.565  0.0865  1.9015  0.7491
   39MOL   H27012506   3.203   1.605   5.733 -0.0134 -0.2469  0.1342
   39MOL   H27112507   3.233   1.540   5.975  0.7997 -0.3917  0.4495
   39MOL   H27212508   3.367   1.342   6.042 -2.2741 -1.7657  0.6266
   39MOL   H27312509   3.456   1.189   5.857 -0.8862 -0.2113  0.1453
   39MOL   C27412510   3.606   1.257   5.595  0.9167  0.3197 -0.1939
   39MOL   C27512511   3.679   1.287   5.465  0.4655 -0.1168 -0.8198
   39MOL   C27612512   3.637   1.421   5.406  0.1390 -0.6666 -0.6700
   39MOL   C27712513   3.582   1.416   5.276 -0.6529  0.0396  0.2623
   39MOL   C27812514   3.542   1.536   5.213 -0.3925 -0.1158  0.0503
   39MOL   C27912515   3.554   1.660   5.274  0.0557  0.0166  0.1660
   39MOL   C28012516   3.596   1.663   5.406 -0.4013 -0.5839  0.8726
   39MOL   C28112517   3.637   1.545   5.470 -0.4929 -0.1818 -0.0854
   39MOL   H28212518   3.653   1.172   5.645  1.1102  0.4966 -0.0752
   39MOL   H28312519   3.617   1.331   5.674 -1.6538  0.6765 -0.1303
   39MOL   H28412520   3.660   1.201   5.400 -1.6071 -1.9744  2.0870
   39MOL   H28512521   3.577   1.324   5.219 -0.6735 -1.6096  2.8764
   39MOL   H28612522   3.505   1.519   5.113  1.4640 -1.9558 -0.3370
   39MOL   H28712523   3.525   1.756   5.235 -1.8369 -1.1241 -1.3843
   39MOL   H28812524   3.604   1.762   5.449 -0.3744 -1.1075  2.0971
   39MOL   H28912525   3.673   1.556   5.572 -0.1302 -0.8020 -0.1399
   39MOL   C29012526   3.830   1.297   5.488 -0.0953  0.6052  0.2820
   39MOL   C29112527   3.932   1.270   5.374 -0.4125 -0.5150  0.3514
   39MOL   C29212528   3.912   1.362   5.247  0.2441 -0.1652 -0.1662
   39MOL   C29312529   3.879   1.301   5.130  0.2341 -0.1268  0.2250
   39MOL   C29412530   3.857   1.367   5.009 -0.4209 -0.9301  0.4364
   39MOL   C29512531   3.873   1.503   5.008  0.2215 -0.6448 -1.0962
   39MOL   C29612532   3.912   1.573   5.127  0.0664 -0.1225  0.1670
   39MOL   C29712533   3.933   1.504   5.249  0.8585 -0.4343  0.4165
   39MOL   H29812534   3.864   1.228   5.565 -0.5605  0.5472  0.4373
   39MOL   H29912535   3.853   1.395   5.530  0.0173 -0.2147  2.1870
   39MOL   H30012536   3.933   1.168   5.337  1.8125 -0.5132  0.3018
   39MOL   H30112537   3.865   1.194   5.133  1.3616 -0.2779  0.4060
   39MOL   H30212538   3.838   1.313   4.918 -2.4740  1.0364 -0.3105
   39MOL   H30312539   3.861   1.552   4.912  1.8802 -1.0517 -1.5339
   39MOL   H30412540   3.926   1.680   5.132 -1.7441  0.1226  0.1109
   39MOL   H30512541   3.960   1.554   5.341 -0.2838  0.3826  0.3138
   39MOL   C30612542   4.078   1.292   5.424 -0.4600  0.8189 -0.6361
   39MOL   C30712543   4.181   1.268   5.308 -0.3039 -0.7359 -0.3299
   39MOL   C30812544   4.326   1.294   5.350  0.0471  0.5497 -0.0997
   39MOL   C30912545   4.424   1.195   5.346 -0.0531  0.1190  0.4334
   39MOL   C31012546   4.559   1.218   5.388 -0.5354  0.2136 -0.1352
   39MOL   C31112547   4.584   1.344   5.442  0.3144  0.2442  0.3149
   39MOL   C31212548   4.492   1.448   5.432  0.3498 -0.0416 -0.1813
   39MOL   C31312549   4.366   1.428   5.388  0.2549  0.5500  0.5964
   39MOL   H31412550   4.098   1.223   5.506  0.1049 -1.7467 -2.8673
   39MOL   H31512551   4.090   1.392   5.465  0.5987  0.5854 -0.3671
   39MOL   H31612552   4.160   1.329   5.220  0.0771 -1.1270 -0.6935
   39MOL   H31712553   4.402   1.101   5.297  1.1382  0.8253 -1.5071
   39MOL   H31812554   4.630   1.137   5.397  0.2353  0.9485  0.6761
   39MOL   H31912555   4.681   1.354   5.488  0.4909  3.5736 -0.6573
   39MOL   H32012556   4.519   1.546   5.467 -0.8432 -0.2248  1.2860
   39MOL   H32112557   4.289   1.504   5.386 -0.9011 -0.6268 -0.5454
   39MOL   H32212558   4.169   1.164   5.280 -0.9113 -0.3902 -1.3941
   40MOL     C112559   2.815   5.155   2.321 -0.4446  0.1960  0.3114
   40MOL     C212560   2.706   5.182   2.417  0.5928  0.7338  0.6863
   40MOL     C312561   2.636   5.054   2.465 -0.5387  0.3118 -0.5379
   40MOL     C412562   2.524   5.003   2.389 -0.1659  0.5049 -0.5272
   40MOL     C512563   2.471   4.870   2.419  1.1111 -0.4428 -0.5035
   40MOL     C612564   2.527   4.796   2.520 -0.5545 -0.4551  0.1611
   40MOL     C712565   2.625   4.855   2.610  0.5902  0.1659  0.0582
   40MOL     C812566   2.678   4.977   2.575  0.0181 -0.0162 -0.4323
   40MOL     H912567   2.886   5.083   2.362 -0.9812 -1.7802 -2.0974
   40MOL    H1012568   2.773   5.108   2.233  3.0711 -1.8473 -0.3784
   40MOL    H1112569   2.637   5.251   2.369 -0.0676  0.1311  0.7650
   40MOL    H1212570   2.477   5.058   2.309 -2.7834 -1.3310 -0.3438
   40MOL    H1312571   2.391   4.836   2.355  1.8797 -0.4771 -1.4558
   40MOL    H1412572   2.512   4.689   2.529 -0.6271 -0.6719 -2.3532
   40MOL    H1512573   2.666   4.798   2.692  0.5538 -0.4267 -0.3285
   40MOL    H1612574   2.746   5.019   2.648 -0.4981 -0.0596  0.0734
   40MOL    H1712575   2.863   5.246   2.284  0.6072  0.4437  2.2013
   40MOL    C1812576   2.769   5.263   2.534  0.0671 -0.3160  0.0686
   40MOL    C1912577   2.674   5.347   2.626 -0.3077  1.1390 -0.5109
   40MOL    C2012578   2.550   5.406   2.564  0.1307 -0.6402  0.6488
   40MOL    C2112579   2.440   5.321   2.536  0.1180  0.3917 -0.9032
   40MOL    C2212580   2.325   5.369   2.473 -0.2635  0.6171 -0.1029
   40MOL    C2312581   2.319   5.503   2.429  0.0260  0.4383  0.4701
   40MOL    C2412582   2.424   5.591   2.463  0.1633 -0.4881  0.8947
   40MOL    C2512583   2.541   5.540   2.523  0.2704  0.6748 -0.9128
   40MOL    H2612584   2.831   5.337   2.484 -1.4790  1.0232  0.0881
   40MOL    H2712585   2.833   5.202   2.598 -0.6247 -1.3802 -0.2332
   40MOL    H2812586   2.731   5.436   2.654  2.2292 -0.7930  0.7191
   40MOL    H2912587   2.439   5.217   2.565  0.9334  0.7772  0.5466
   40MOL    H3012588   2.239   5.313   2.440  1.4210 -1.9170 -0.3766
   40MOL    H3112589   2.234   5.520   2.365 -1.2959 -5.4907  0.3134
   40MOL    H3212590   2.428   5.696   2.438  0.5899 -0.6354  0.3280
   40MOL    H3312591   2.620   5.613   2.534  0.6456  0.2975 -1.0844
   40MOL    C3412592   2.633   5.281   2.759  0.2317  0.1785  0.2548
   40MOL    C3512593   2.747   5.257   2.862 -0.2581 -0.4032  0.2703
   40MOL    C3612594   2.821   5.386   2.885 -0.2418 -0.0377  0.5256
   40MOL    C3712595   2.760   5.483   2.966 -0.2583 -0.1455  0.0494
   40MOL    C3812596   2.835   5.599   2.999  0.0114  0.7125 -0.4941
   40MOL    C3912597   2.966   5.614   2.954  0.2333  0.5490 -0.0232
   40MOL    C4012598   3.028   5.511   2.883 -0.5232 -0.3301 -0.1820
   40MOL    C4112599   2.955   5.397   2.845 -0.0620  0.0963 -0.8025
   40MOL    H4212600   2.578   5.191   2.732  0.6130  0.4101 -1.3088
   40MOL    H4312601   2.556   5.332   2.818 -0.9704 -0.2652 -0.8926
   40MOL    H4412602   2.821   5.194   2.814  0.0433  0.7094 -0.7592
   40MOL    H4512603   2.657   5.472   2.995 -0.0806 -1.4137  0.2196
   40MOL    H4612604   2.790   5.673   3.064 -0.9462  0.1720 -0.5241
   40MOL    H4712605   3.026   5.701   2.974  2.9753 -0.8483 -1.8273
   40MOL    H4812606   3.134   5.524   2.868 -0.5161 -0.3550 -0.1529
   40MOL    H4912607   3.003   5.326   2.779  0.7227  0.7561 -0.9527
   40MOL    C5012608   2.696   5.181   2.980 -0.5252 -0.4297 -0.6514
   40MOL    C5112609   2.813   5.144   3.073 -0.5139  0.1147  0.5467
   40MOL    C5212610   2.806   5.216   3.210 -0.2496  0.0001  0.4856
   40MOL    C5312611   2.900   5.325   3.238 -0.2535  0.0239 -0.7455
   40MOL    C5412612   2.894   5.395   3.357  0.4382  0.3261 -0.4538
   40MOL    C5512613   2.802   5.356   3.459  0.3126  0.2717 -0.9449
   40MOL    C5612614   2.708   5.250   3.435  0.6474  1.1033  0.5672
   40MOL    C5712615   2.707   5.186   3.306 -0.1545 -0.2153  0.3594
   40MOL    H5812616   2.652   5.087   2.947 -2.0899  0.2813 -0.6350
   40MOL    H5912617   2.617   5.233   3.034 -0.5442 -0.2193 -0.8819
   40MOL    H6012618   2.909   5.179   3.035 -0.7132 -1.0996 -1.0952
   40MOL    H6112619   2.969   5.363   3.165 -0.0904  0.5726 -0.3087
   40MOL    H6212620   2.966   5.471   3.383  0.8047 -0.2534  0.2270
   40MOL    H6312621   2.796   5.416   3.549 -0.6780  1.3517 -1.7143
   40MOL    H6412622   2.634   5.215   3.505 -0.6520  0.4748 -1.1101
   40MOL    H6512623   2.633   5.112   3.281 -2.3196  2.3549 -1.0713
   40MOL    C6612624   2.818   4.988   3.094 -0.2326 -0.2401  0.1746
   40MOL    C6712625   2.861   4.896   2.976  0.1301  1.0654 -0.2295
   40MOL    C6812626   2.964   4.948   2.883 -0.8109 -0.7486 -0.1642
   40MOL    C6912627   3.075   5.027   2.923 -0.0380 -0.2063 -0.2146
   40MOL    C7012628   3.179   5.059   2.833 -0.5822 -0.3874 -0.4100
   40MOL    C7112629   3.167   5.027   2.694 -0.3446  0.0883  0.2439
   40MOL    C7212630   3.057   4.944   2.651 -0.3863 -0.1187 -0.0948
   40MOL    C7312631   2.956   4.916   2.747  0.4724  0.0923  0.9828
   40MOL    H7412632   2.728   4.949   3.142  0.2405  2.1853  3.1907
   40MOL    H7512633   2.904   4.962   3.156 -0.9681  0.1063  1.3532
   40MOL    H7612634   2.782   4.883   2.902  0.8929  0.2020 -0.8968
   40MOL    H7712635   3.090   5.065   3.023  0.6764  0.9578 -0.7510
   40MOL    H7812636   3.266   5.118   2.857  0.7959 -1.2954 -2.9938
   40MOL    H7912637   3.242   5.056   2.621 -0.9146 -1.1453 -0.8495
   40MOL    H8012638   3.034   4.922   2.548 -0.5445  0.8517 -0.2704
   40MOL    H8112639   2.877   4.852   2.710  1.8113 -1.6432  1.0701
   40MOL    C8212640   2.906   4.753   3.018  0.0157  0.5320 -0.0773
   40MOL    C8312641   2.787   4.658   3.066  0.1171  0.4058 -0.1905
   40MOL    C8412642   2.713   4.585   2.957  0.0279 -0.2681 -0.1868
   40MOL    C8512643   2.777   4.482   2.878  0.0431 -0.3635 -0.0161
   40MOL    C8612644   2.697   4.406   2.784 -0.0785 -0.2161 -0.1754
   40MOL    C8712645   2.561   4.439   2.762  0.6787 -0.2510 -0.5793
   40MOL    C8812646   2.496   4.540   2.836 -0.7160 -0.1003 -0.7341
   40MOL    C8912647   2.573   4.600   2.936 -0.5095  0.0366 -0.3745
   40MOL    H9012648   2.986   4.758   3.092 -0.2502 -0.0954  0.2495
   40MOL    H9112649   2.957   4.698   2.938  0.7300 -0.6344  1.1580
   40MOL    H9212650   2.717   4.721   3.121 -0.3963 -0.5053  0.2060
   40MOL    H9312651   2.880   4.459   2.899 -0.5824 -0.8924  2.6812
   40MOL    H9412652   2.730   4.318   2.732  0.4057 -0.1096 -0.0545
   40MOL    H9512653   2.493   4.390   2.693 -0.4417  1.8228 -1.0116
   40MOL    H9612654   2.391   4.558   2.823 -1.2875  0.1420  3.6676
   40MOL    H9712655   2.522   4.674   2.996  0.9217  1.1294 -0.4841
   40MOL    C9812656   2.843   4.550   3.172 -0.4062 -0.0955 -0.2767
   40MOL    C9912657   2.867   4.593   3.322  0.5346 -0.1007  0.0364
   40MOL   C10012658   2.734   4.649   3.377 -0.1341 -0.1255 -0.6596
   40MOL   C10112659   2.720   4.761   3.463 -0.6727 -0.0216  0.2821
   40MOL   C10212660   2.603   4.822   3.497 -0.6132  0.1387  0.0794
   40MOL   C10312661   2.482   4.762   3.448  0.0007 -1.0397  0.0703
   40MOL   C10412662   2.485   4.646   3.372 -0.2650  0.0051  0.1388
   40MOL   C10512663   2.612   4.577   3.350 -0.1607  0.0098  0.5978
   40MOL   H10612664   2.937   4.503   3.144  1.1751  0.5374  3.6822
   40MOL   H10712665   2.777   4.463   3.176  0.1968 -0.5959 -1.1302
   40MOL   H10812666   2.942   4.672   3.329  0.3700  0.2174 -1.6518
   40MOL   H10912667   2.807   4.823   3.483  0.0910 -1.3550  1.1916
   40MOL   H11012668   2.596   4.904   3.568  0.9707  1.1580 -0.9016
   40MOL   H11112669   2.390   4.813   3.475  1.1636  0.6975  0.8077
   40MOL   H11212670   2.391   4.600   3.345 -0.7422  1.6051 -0.9348
   40MOL   H11312671   2.619   4.477   3.309  1.0000  0.4658 -0.3808
   40MOL   C11412672   2.923   4.480   3.409  0.0602 -0.0248 -0.3896
   40MOL   C11512673   2.949   4.515   3.553  0.1056  0.2868 -0.2889
   40MOL   C11612674   2.977   4.381   3.617 -0.0567  0.7378  0.3369
   40MOL   C11712675   3.077   4.282   3.579 -0.2570 -0.0977 -0.7965
   40MOL   C11812676   3.078   4.154   3.631 -0.6587 -0.2418 -0.1796
   40MOL   C11912677   2.984   4.114   3.724  1.0062  0.7773  0.0123
   40MOL   C12012678   2.880   4.202   3.756  0.9897  0.0001  0.6460
   40MOL   C12112679   2.880   4.335   3.706  0.2010 -0.5251  0.4159
   40MOL   H12212680   3.013   4.446   3.359 -0.2657  1.6212 -2.1456
   40MOL   H12312681   2.854   4.398   3.396 -0.2506  0.3392 -1.0523
   40MOL   H12412682   2.860   4.555   3.600  0.2234 -1.7079  1.7342
   40MOL   H12512683   3.147   4.313   3.502  0.7738  0.8375  0.5047
   40MOL   H12612684   3.154   4.088   3.592 -0.2340  0.9931 -1.5226
   40MOL   H12712685   2.980   4.019   3.775 -0.1446  1.4493  1.2063
   40MOL   H12812686   2.800   4.182   3.826  0.7591  1.4060  0.8011
   40MOL   H12912687   2.816   4.413   3.746 -0.3046 -1.0496  0.6326
   40MOL   C13012688   3.065   4.614   3.572  0.0191 -0.1336 -0.1250
   40MOL   C13112689   3.100   4.630   3.725 -0.4687 -0.2475  0.8017
   40MOL   C13212690   3.239   4.699   3.743  0.1754 -0.7577 -0.1575
   40MOL   C13312691   3.329   4.640   3.838 -0.7488 -0.4937 -0.6013
   40MOL   C13412692   3.454   4.701   3.853  0.7449 -0.6597 -0.2268
   40MOL   C13512693   3.483   4.822   3.780 -0.1912  0.1278 -0.1383
   40MOL   C13612694   3.398   4.873   3.685 -0.4395  0.4427  0.5943
   40MOL   C13712695   3.275   4.812   3.667  0.6669  0.5999 -1.1437
   40MOL   H13812696   3.049   4.697   3.504  1.4709  1.3883  1.3472
   40MOL   H13912697   3.155   4.569   3.529 -1.1685  0.4292 -3.3417
   40MOL   H14012698   3.103   4.530   3.769 -3.3461 -0.1490  1.3118
   40MOL   H14112699   3.302   4.560   3.905 -1.4265 -0.5854 -0.9782
   40MOL   H14212700   3.534   4.662   3.913  1.2124 -0.3967 -0.6707
   40MOL   H14312701   3.580   4.869   3.787 -0.2728  0.5192 -1.5610
   40MOL   H14412702   3.422   4.954   3.618  1.6000 -0.1573  0.5540
   40MOL   H14512703   3.205   4.852   3.596 -0.8164  0.4976  0.2361
   40MOL   C14612704   2.989   4.689   3.814 -0.3284  0.7701 -0.6540
   40MOL   C14712705   2.984   4.842   3.832  0.7273 -0.2521 -0.5627
   40MOL   C14812706   2.835   4.875   3.868 -0.7589  0.0628  0.0389
   40MOL   C14912707   2.771   4.809   3.976 -0.3387 -0.4195  0.3500
   40MOL   C15012708   2.640   4.832   4.012 -0.1143 -0.2491  0.6456
   40MOL   C15112709   2.567   4.938   3.950 -1.1165  0.4651  0.2274
   40MOL   C15212710   2.633   5.002   3.842  0.7237 -0.2907  0.0967
   40MOL   C15312711   2.757   4.968   3.795  0.3321 -0.0353 -0.0906
   40MOL   H15412712   3.009   4.650   3.914  3.5458 -0.8272 -1.9848
   40MOL   H15512713   2.890   4.655   3.784 -0.3275  2.0861 -2.2608
   40MOL   H15612714   3.001   4.891   3.737 -2.2795  0.4430 -0.7785
   40MOL   H15712715   2.822   4.731   4.032 -0.4415  0.4117  1.6215
   40MOL   H15812716   2.607   4.784   4.103 -1.4806 -1.4278 -0.4451
   40MOL   H15912717   2.465   4.959   3.977 -1.5769  2.5108 -2.8291
   40MOL   H16012718   2.579   5.076   3.785 -0.5109 -0.8033  0.5993
   40MOL   H16112719   2.814   5.014   3.716 -0.7037  1.5931  0.1033
   40MOL   C16212720   3.083   4.905   3.939  0.1442  1.0440  0.0171
   40MOL   C16312721   3.078   5.059   3.955 -0.4322  0.4522 -0.8248
   40MOL   C16412722   3.141   5.106   4.086  0.6700  0.1205  0.3218
   40MOL   C16512723   3.057   5.170   4.180  0.4931  0.6535 -0.2092
   40MOL   C16612724   3.115   5.234   4.293 -0.0934  0.1611 -0.7048
   40MOL   C16712725   3.249   5.217   4.320 -0.7532 -0.6200 -0.5990
   40MOL   C16812726   3.332   5.149   4.235  0.7306  0.7415  0.0821
   40MOL   C16912727   3.276   5.091   4.118 -0.2989  0.2847  1.2020
   40MOL   H17012728   3.188   4.880   3.920 -0.5018 -1.1263 -0.8533
   40MOL   H17112729   3.063   4.880   4.043  2.7989  0.5007  0.4392
   40MOL   H17212730   2.972   5.083   3.958 -1.1433 -2.3905 -1.9476
   40MOL   H17312731   2.950   5.181   4.169  0.3783 -0.8294 -0.5956
   40MOL   H17412732   3.042   5.273   4.362  0.6269 -3.5621  2.3038
   40MOL   H17512733   3.302   5.255   4.406  0.9470 -2.4697 -0.7768
   40MOL   H17612734   3.434   5.130   4.265  0.5077  1.4335  1.3331
   40MOL   H17712735   3.342   5.036   4.052 -2.7870  0.5232 -1.6337
   40MOL   C17812736   3.148   5.127   3.832  0.5260 -0.4941  0.0067
   40MOL   C17912737   3.148   5.279   3.831  0.1736 -0.2254  0.5073
   40MOL   C18012738   3.241   5.347   3.733  0.6737  0.2439  0.3952
   40MOL   C18112739   3.379   5.337   3.759 -0.6729  0.6825  0.3330
   40MOL   C18212740   3.479   5.394   3.680 -0.5585 -0.2269 -0.3138
   40MOL   C18312741   3.438   5.454   3.559 -0.3022  0.2115 -0.3328
   40MOL   C18412742   3.303   5.460   3.522 -0.1090  0.5375  0.4058
   40MOL   C18512743   3.204   5.409   3.613  0.3137  0.2029 -0.5023
   40MOL   H18612744   3.101   5.089   3.741  0.5315 -3.5033  1.2107
   40MOL   H18712745   3.251   5.095   3.823  0.9238  0.1841  1.8980
   40MOL   H18812746   3.199   5.312   3.921  0.0472 -1.4891  1.0569
   40MOL   H18912747   3.415   5.293   3.851 -0.7724  0.2926  0.1883
   40MOL   H19012748   3.582   5.397   3.713  0.6009 -0.2842 -3.7241
   40MOL   H19112749   3.522   5.497   3.506  2.0841 -2.1559  1.3818
   40MOL   H19212750   3.272   5.506   3.430  0.7093  0.7108  0.2134
   40MOL   H19312751   3.102   5.425   3.579  0.4488  2.0322 -0.0939
   40MOL   C19412752   3.003   5.334   3.831  0.4646 -0.2722  0.5144
   40MOL   C19512753   2.994   5.482   3.871 -0.2018  0.5797  0.4989
   40MOL   C19612754   2.863   5.535   3.806  0.2232  0.0368 -0.2718
   40MOL   C19712755   2.865   5.649   3.717 -0.0001  0.6853  0.4026
   40MOL   C19812756   2.747   5.695   3.662  0.5547  0.0929 -0.3505
   40MOL   C19912757   2.625   5.629   3.687  0.5119  0.5234  0.2131
   40MOL   C20012758   2.624   5.523   3.773  0.0863 -0.0675  0.4600
   40MOL   C20112759   2.742   5.475   3.835 -0.3065 -0.4814 -0.2109
   40MOL   H20212760   2.938   5.273   3.893  0.9605 -2.1743 -0.8009
   40MOL   H20312761   2.960   5.321   3.731  0.3498 -1.6139  0.7384
   40MOL   H20412762   3.072   5.539   3.821 -0.5145  0.7452  0.1951
   40MOL   H20512763   2.959   5.693   3.685 -0.0933  0.1858 -0.5910
   40MOL   H20612764   2.736   5.773   3.588 -1.4509  0.0675 -0.1074
   40MOL   H20712765   2.533   5.660   3.641  0.3193 -1.3338 -0.7084
   40MOL   H20812766   2.525   5.483   3.787 -0.1097  0.3543  0.2815
   40MOL   H20912767   2.748   5.384   3.891 -0.6101 -2.3079 -3.0434
   40MOL   C21012768   3.003   5.503   4.021  0.1149 -0.5047  0.6380
   40MOL   C21112769   2.996   5.644   4.068 -0.0442 -0.5410 -0.1529
   40MOL   C21212770   2.960   5.645   4.220  0.4680 -0.4721 -0.5299
   40MOL   C21312771   2.840   5.700   4.263 -0.1959 -0.5705  0.2206
   40MOL   C21412772   2.797   5.705   4.396  0.3149  0.3363 -0.8343
   40MOL   C21512773   2.882   5.644   4.492 -0.6642 -0.3862  0.4998
   40MOL   C21612774   3.005   5.593   4.454 -0.4838 -0.0233  0.6634
   40MOL   C21712775   3.047   5.594   4.321  0.1309  0.0554  0.4688
   40MOL   H21812776   3.097   5.457   4.052  0.4138  0.1061  0.6535
   40MOL   H21912777   2.923   5.455   4.077  0.4121  0.7935  2.2066
   40MOL   H22012778   2.921   5.699   4.010 -0.2793 -1.1336 -0.4201
   40MOL   H22112779   2.775   5.749   4.192  0.8321  1.2373  0.5031
   40MOL   H22212780   2.702   5.744   4.428 -0.3978 -0.3491 -2.0638
   40MOL   H22312781   2.860   5.647   4.598 -1.0106  3.9993  0.3885
   40MOL   H22412782   3.065   5.539   4.526  1.7704 -0.0124 -1.1311
   40MOL   H22512783   3.138   5.545   4.288 -0.3200 -0.7818  0.4443
   40MOL   C22612784   3.127   5.731   4.038  0.1241  0.1849 -0.5398
   40MOL   C22712785   3.132   5.874   4.099 -0.0727  0.5058  0.8451
   40MOL   C22812786   3.269   5.891   4.166  0.1434  0.6053  0.1790
   40MOL   C22912787   3.388   5.872   4.094  0.4630 -0.1409  0.1036
   40MOL   C23012788   3.514   5.898   4.150  0.3447 -0.4010  0.3378
   40MOL   C23112789   3.518   5.931   4.284 -0.1178 -0.3654 -0.7502
   40MOL   C23212790   3.402   5.957   4.363  0.9579  0.0441  0.0620
   40MOL   C23312791   3.276   5.937   4.300 -0.0189  1.0741  0.2676
   40MOL   H23412792   3.128   5.736   3.929 -1.7665 -0.5980 -0.6120
   40MOL   H23512793   3.209   5.673   4.082  0.7962  1.7129  0.2795
   40MOL   H23612794   3.067   5.884   4.186  1.3415 -0.1620  2.0017
   40MOL   H23712795   3.379   5.864   3.986 -1.3888 -1.3522  0.3198
   40MOL   H23812796   3.602   5.898   4.087 -0.2457 -1.2821 -0.5009
   40MOL   H23912797   3.617   5.949   4.324 -0.3644  1.9229 -1.1135
   40MOL   H24012798   3.409   5.999   4.462 -0.1033  0.5448 -0.0694
   40MOL   H24112799   3.190   5.962   4.361 -0.2820 -0.3888  0.5208
   40MOL   C24212800   3.106   5.989   3.990 -0.3118 -0.0481  0.1503
   40MOL   C24312801   2.962   6.003   3.927  0.5879  0.2797  0.3152
   40MOL   C24412802   2.844   6.012   4.033  0.7126 -0.5443 -0.0093
   40MOL   C24512803   2.869   6.080   4.151 -0.6587  0.1451 -0.3321
   40MOL   C24612804   2.774   6.081   4.254  0.4567 -0.6602  0.1330
   40MOL   C24712805   2.652   6.011   4.240  0.7794 -0.2815  0.1545
   40MOL   C24812806   2.621   5.945   4.120  0.3010  0.0383 -0.5652
   40MOL   C24912807   2.719   5.947   4.016 -0.8174  0.1916 -0.0682
   40MOL   H25012808   3.185   5.983   3.914 -0.9708  0.9675 -0.6298
   40MOL   H25112809   3.117   6.088   4.035  2.0768 -0.7305  1.1303
   40MOL   H25212810   2.940   5.915   3.867  2.3894  0.5766 -0.8159
   40MOL   H25312811   2.958   6.138   4.167 -0.4376  0.0383 -1.1720
   40MOL   H25412812   2.800   6.131   4.346  0.5988 -1.8856  0.7608
   40MOL   H25512813   2.579   6.028   4.318  0.1224 -1.1452 -0.2673
   40MOL   H25612814   2.524   5.896   4.118  0.1445  0.3337 -0.2211
   40MOL   H25712815   2.695   5.911   3.917  1.6209  1.0808 -1.0225
   40MOL   C25812816   2.943   6.130   3.836 -0.4542  0.2959 -0.1423
   40MOL   C25912817   3.046   6.159   3.729  0.0591  0.3136 -0.1652
   40MOL   C26012818   3.086   6.036   3.647  0.5226 -0.2321 -0.3811
   40MOL   C26112819   3.225   6.000   3.640  0.0790 -0.2682 -0.2147
   40MOL   C26212820   3.272   5.892   3.564  0.4709 -0.1626 -0.2344
   40MOL   C26312821   3.177   5.806   3.500  0.5225 -0.0491  0.3289
   40MOL   C26412822   3.044   5.844   3.504 -0.1167 -0.5807  0.2925
   40MOL   C26512823   2.994   5.953   3.575 -0.1500 -0.2206  0.4489
   40MOL   H26612824   2.923   6.222   3.892  1.6213  0.8966 -0.3376
   40MOL   H26712825   2.844   6.125   3.793 -0.1363 -1.0950 -0.7335
   40MOL   H26812826   3.137   6.197   3.776  1.2792 -1.7869 -0.7700
   40MOL   H26912827   3.292   6.060   3.699  0.8502  0.1253 -1.4761
   40MOL   H27012828   3.377   5.875   3.545  0.6626 -0.6240  1.1936
   40MOL   H27112829   3.199   5.721   3.438 -0.0918  0.3179 -0.4085
   40MOL   H27212830   2.970   5.788   3.448  0.6593 -0.5839 -0.7362
   40MOL   H27312831   2.886   5.966   3.579 -0.1788  0.5727 -1.7977
   40MOL   C27412832   3.003   6.273   3.630 -0.4093 -0.4450  1.0476
   40MOL   C27512833   3.056   6.417   3.675  0.4245 -0.2698  0.2215
   40MOL   C27612834   3.009   6.528   3.589 -0.7581  0.7434  0.6496
   40MOL   C27712835   2.875   6.530   3.537 -0.2679  0.2082 -0.0976
   40MOL   C27812836   2.833   6.634   3.457  0.1795 -0.1975 -0.1828
   40MOL   C27912837   2.918   6.728   3.411  0.1088  0.2103 -0.0692
   40MOL   C28012838   3.051   6.725   3.458  0.2211 -0.1042  0.1028
   40MOL   C28112839   3.102   6.623   3.544 -0.9448 -0.4415  0.0733
   40MOL   H28212840   2.896   6.268   3.615 -0.0780 -0.9066 -1.4295
   40MOL   H28312841   3.052   6.243   3.537 -3.6462 -1.3508 -0.4473
   40MOL   H28412842   3.162   6.404   3.652 -0.4001 -1.9939 -2.8398
   40MOL   H28512843   2.796   6.460   3.562  3.0223 -4.3913 -1.8314
   40MOL   H28612844   2.728   6.639   3.431 -0.0379 -0.1295  0.6783
   40MOL   H28712845   2.883   6.813   3.353 -0.0075  1.9247  2.4472
   40MOL   H28812846   3.115   6.801   3.414  0.2257 -1.5326 -2.4538
   40MOL   H28912847   3.207   6.620   3.569 -0.1473  2.9608 -2.4292
   40MOL   C29012848   3.039   6.462   3.826  0.1367  0.0143  0.3660
   40MOL   C29112849   3.167   6.453   3.910  0.7332  0.1809  0.2649
   40MOL   C29212850   3.280   6.525   3.845  0.0043  0.7689  0.4345
   40MOL   C29312851   3.386   6.448   3.790  0.1960  0.5212 -0.6951
   40MOL   C29412852   3.483   6.509   3.715  0.2439 -0.0313  0.4494
   40MOL   C29512853   3.473   6.654   3.694  0.0972  0.3226  0.4150
   40MOL   C29612854   3.376   6.731   3.761 -0.2488 -0.1829  0.5307
   40MOL   C29712855   3.278   6.665   3.837  0.6763 -0.3950 -0.5390
   40MOL   H29812856   2.946   6.431   3.873  0.8813  0.9729  2.5229
   40MOL   H29912857   3.010   6.567   3.827  0.7633  0.2804 -3.1155
   40MOL   H30012858   3.206   6.351   3.903 -0.8752 -0.4246 -0.0747
   40MOL   H30112859   3.384   6.341   3.799  1.8350  0.5865  0.6842
   40MOL   H30212860   3.550   6.450   3.654 -1.7300 -1.5109 -0.3542
   40MOL   H30312861   3.540   6.701   3.623  2.4442  0.1114  2.4172
   40MOL   H30412862   3.370   6.839   3.748 -1.3509 -0.6196 -3.4046
   40MOL   H30512863   3.199   6.725   3.881  0.6658 -0.6672 -0.1864
   40MOL   C30612864   3.151   6.501   4.054  0.1225  0.1041 -0.1162
   40MOL   C30712865   3.055   6.412   4.134  0.8548  0.0049  0.3275
   40MOL   C30812866   2.959   6.494   4.219 -0.2051 -0.1516 -0.4258
   40MOL   C30912867   2.950   6.462   4.356 -0.0525  0.3003 -0.3849
   40MOL   C31012868   2.850   6.521   4.438  0.2668  0.4201 -0.0792
   40MOL   C31112869   2.774   6.623   4.379 -0.9896 -0.3308  0.1352
   40MOL   C31212870   2.792   6.658   4.242  0.1360 -0.0747  0.0114
   40MOL   C31312871   2.874   6.586   4.160  0.3981  0.3530  0.3409
   40MOL   H31412872   3.139   6.609   4.065  0.0649  0.1666 -0.7553
   40MOL   H31512873   3.251   6.496   4.097  0.3965 -2.3691 -0.9916
   40MOL   H31612874   3.123   6.362   4.203  2.2844  0.9059 -0.4014
   40MOL   H31712875   3.012   6.382   4.390 -2.0939 -0.6695  1.1765
   40MOL   H31812876   2.825   6.501   4.541 -1.6155  3.1902  0.0766
   40MOL   H31912877   2.697   6.676   4.434 -0.4755  0.2002  0.3505
   40MOL   H32012878   2.719   6.721   4.195 -0.0075 -0.2100  0.0503
   40MOL   H32112879   2.881   6.615   4.056 -0.6196  0.8273  0.4075
   40MOL   H32212880   3.002   6.337   4.076  1.7308 -0.4716  0.1279
   41MOL     C112881   2.561   5.073   0.029  0.0833 -0.0080  0.2830
   41MOL     C212882   2.449   4.975   0.069  0.0960  0.4827  0.7690
   41MOL     C312883   2.501   4.835   0.103 -0.2420  0.0931 -0.3719
   41MOL     C412884   2.550   4.805   0.236 -0.0317 -0.2776 -0.1418
   41MOL     C512885   2.599   4.680   0.270 -0.4405  0.5505  0.2922
   41MOL     C612886   2.593   4.578   0.169 -0.4685 -0.9126 -0.2207
   41MOL     C712887   2.553   4.609   0.041 -0.8407 -0.4948  0.0306
   41MOL     C812888   2.507   4.735   0.002  0.3310 -0.0495 -0.5995
   41MOL     H912889   2.646   5.027   8.094  0.9840  0.7145  1.1444
   41MOL    H1012890   2.509   5.148   8.084  1.0457  0.0595 -0.4804
   41MOL    H1112891   2.398   4.961   8.089  1.1574 -0.3363  0.3174
   41MOL    H1212892   2.551   4.879   0.315  2.6852 -1.2565  0.7884
   41MOL    H1312893   2.646   4.668   0.366 -1.7129  1.8433  1.0942
   41MOL    H1412894   2.621   4.477   0.193  0.5906 -0.2780  1.2658
   41MOL    H1512895   2.560   4.530   8.082 -0.0953  0.3145 -0.7886
   41MOL    H1612896   2.476   4.750   8.015 -2.4187 -0.7722  0.0671
   41MOL    H1712897   2.610   5.115   0.117  1.1622 -2.4721  0.8877
   41MOL    C1812898   2.346   5.045   0.157  0.5212 -0.0902 -0.4470
   41MOL    C1912899   2.245   4.949   0.215  0.2938  0.0980 -0.5245
   41MOL    C2012900   2.163   5.021   0.325  0.1615 -0.2000  0.3024
   41MOL    C2112901   2.064   5.112   0.285  0.3580 -0.0557 -0.2453
   41MOL    C2212902   1.971   5.153   0.382 -0.5621  0.0616  0.2033
   41MOL    C2312903   1.985   5.124   0.519 -0.5780 -0.6312 -0.1286
   41MOL    C2412904   2.093   5.050   0.562  0.4585 -0.5658 -0.3945
   41MOL    C2512905   2.184   5.001   0.464 -0.1973  0.1641  0.4054
   41MOL    H2612906   2.286   5.122   0.108  1.2040  0.3938 -0.5274
   41MOL    H2712907   2.397   5.093   0.241  0.6127  0.9091 -1.0672
   41MOL    H2812908   2.295   4.864   0.261  0.5211 -0.6696 -2.1351
   41MOL    H2912909   2.061   5.148   0.183 -2.9701  3.5188  0.9672
   41MOL    H3012910   1.888   5.212   0.347  0.4432  0.0256 -2.3630
   41MOL    H3112911   1.915   5.154   0.596 -2.7861 -0.9031 -1.9864
   41MOL    H3212912   2.101   5.038   0.669  1.1848  0.6001 -0.3081
   41MOL    H3312913   2.257   4.928   0.495 -0.9067 -0.5047  0.5347
   41MOL    C3412914   2.160   4.886   0.101  0.3315  0.1905 -0.3800
   41MOL    C3512915   2.061   4.771   0.150  0.2982  0.5629 -0.5214
   41MOL    C3612916   1.967   4.719   0.043 -0.0981 -0.0450 -0.4971
   41MOL    C3712917   1.990   4.715   8.014 -0.3896 -0.2099 -0.0762
   41MOL    C3812918   1.894   4.662   7.928 -0.8314  0.1046 -0.3868
   41MOL    C3912919   1.775   4.605   7.971 -0.6903  0.3134  0.2816
   41MOL    C4012920   1.742   4.618   8.102  0.6416  0.4332  0.0682
   41MOL    C4112921   1.835   4.674   0.078 -0.4308 -0.1294 -0.1505
   41MOL    H4212922   2.221   4.845   0.021  4.2500 -0.7951  2.9008
   41MOL    H4312923   2.096   4.963   0.060 -0.1862  0.5791  1.1153
   41MOL    H4412924   1.985   4.815   0.214  1.6210  1.4212  0.4765
   41MOL    H4512925   2.083   4.749   7.972 -0.6260  0.1148 -0.3384
   41MOL    H4612926   1.922   4.642   7.825  0.0811  0.5365 -0.2285
   41MOL    H4712927   1.709   4.558   7.899 -0.0339 -1.1024  0.5713
   41MOL    H4812928   1.646   4.577   0.015  0.6894 -0.4669 -1.0695
   41MOL    H4912929   1.802   4.692   0.179  1.4931  1.6234  0.2067
   41MOL    C5012930   2.134   4.655   0.215  0.0728 -0.7021 -0.0778
   41MOL    C5112931   2.121   4.634   0.371  0.7433  0.4501  0.0175
   41MOL    C5212932   1.986   4.574   0.409 -0.3475 -0.3681 -0.2541
   41MOL    C5312933   1.964   4.439   0.379  0.1809  0.8840 -0.2113
   41MOL    C5412934   1.836   4.389   0.405  0.4339 -0.4864  0.4078
   41MOL    C5512935   1.739   4.464   0.473  0.6526  0.2219  0.0676
   41MOL    C5612936   1.762   4.602   0.499  0.6630  0.0354 -0.3185
   41MOL    C5712937   1.884   4.655   0.463  0.3061 -0.8364 -0.0274
   41MOL    H5812938   2.239   4.649   0.184  0.4977  0.5646  1.0642
   41MOL    H5912939   2.094   4.567   0.166  1.1086 -0.8814 -0.6100
   41MOL    H6012940   2.118   4.732   0.418 -0.2378 -0.9752  3.0780
   41MOL    H6112941   2.039   4.379   0.331  0.5450  0.2414  1.1496
   41MOL    H6212942   1.814   4.287   0.375 -1.2152 -0.5380  1.7555
   41MOL    H6312943   1.640   4.421   0.481  0.9125 -0.0388  2.1645
   41MOL    H6412944   1.697   4.668   0.555  2.5282  1.4258  0.2556
   41MOL    H6512945   1.900   4.758   0.491  2.0811 -1.6800  2.2005
   41MOL    C6612946   2.237   4.566   0.436 -0.2331  0.1236  0.1565
   41MOL    C6712947   2.225   4.526   0.588  0.1559 -0.6244  0.1859
   41MOL    C6812948   2.357   4.455   0.632 -0.3398 -0.2518 -0.2045
   41MOL    C6912949   2.344   4.329   0.699 -0.5447  0.1286 -0.1214
   41MOL    C7012950   2.452   4.267   0.763  0.1587  0.9560  0.3932
   41MOL    C7112951   2.581   4.326   0.755 -0.1672 -0.2152  0.2511
   41MOL    C7212952   2.594   4.456   0.696 -0.2825  0.0518 -0.4005
   41MOL    C7312953   2.484   4.522   0.642  0.5371 -0.5529  0.3554
   41MOL    H7412954   2.327   4.619   0.404 -0.6360 -0.0425 -1.2890
   41MOL    H7512955   2.253   4.478   0.374  0.6078  1.7583 -2.0091
   41MOL    H7612956   2.136   4.465   0.604 -0.2503 -0.0961 -0.0501
   41MOL    H7712957   2.255   4.268   0.704  0.0270 -0.7646 -0.5853
   41MOL    H7812958   2.438   4.171   0.810 -1.7313  0.3373 -1.3810
   41MOL    H7912959   2.666   4.284   0.805  0.6714  1.1530 -0.0012
   41MOL    H8012960   2.687   4.511   0.694 -0.1544 -0.1884 -3.0506
   41MOL    H8112961   2.495   4.621   0.601 -1.6292 -0.6456 -0.5211
   41MOL    C8212962   2.195   4.650   0.670  0.0240  0.1939  0.1596
   41MOL    C8312963   2.179   4.618   0.823 -0.9992 -0.2797 -0.0565
   41MOL    C8412964   2.223   4.729   0.909  0.1071 -0.3532 -0.6241
   41MOL    C8512965   2.174   4.860   0.888  0.3389  0.6497  0.4908
   41MOL    C8612966   2.227   4.966   0.969  0.2880 -0.2204  0.0109
   41MOL    C8712967   2.331   4.941   1.055  0.3004  0.0879 -0.2809
   41MOL    C8812968   2.374   4.807   1.084  0.0290 -0.7684  0.0516
   41MOL    C8912969   2.315   4.704   1.009  0.0089 -0.0736  0.3590
   41MOL    H9012970   2.108   4.706   0.636  0.2352  0.3531 -0.1152
   41MOL    H9112971   2.268   4.731   0.667  1.1012 -0.7165  1.2667
   41MOL    H9212972   2.245   4.535   0.850 -3.0671 -1.6793  0.8127
   41MOL    H9312973   2.089   4.869   0.822  0.6238  0.1093  0.0479
   41MOL    H9412974   2.193   5.067   0.956 -0.0568 -0.7257 -3.5106
   41MOL    H9512975   2.361   5.024   1.118 -3.6257  2.0759 -0.8720
   41MOL    H9612976   2.449   4.789   1.159  0.2432 -0.3087 -0.0448
   41MOL    H9712977   2.363   4.607   1.013 -1.3056 -0.8211 -1.1979
   41MOL    C9812978   2.039   4.565   0.848 -0.1607  0.3413 -1.0688
   41MOL    C9912979   1.999   4.534   0.992  0.6532 -0.2147 -0.6340
   41MOL   C10012980   1.847   4.494   0.993 -0.3069  0.3294 -0.3528
   41MOL   C10112981   1.746   4.585   1.040  0.0396  0.0056 -0.2095
   41MOL   C10212982   1.607   4.555   1.021 -0.6687 -0.5007 -0.0702
   41MOL   C10312983   1.573   4.426   0.961 -1.1876  0.4606 -0.0820
   41MOL   C10412984   1.675   4.330   0.929  0.6102 -0.0309  0.3474
   41MOL   C10512985   1.805   4.370   0.945  0.2638  0.1591  0.3157
   41MOL   H10612986   2.022   4.475   0.788  0.0788  0.0025 -0.6325
   41MOL   H10712987   1.966   4.638   0.813  0.5170  1.6206  0.1829
   41MOL   H10812988   2.002   4.626   1.051 -0.3649 -0.5308 -0.0688
   41MOL   H10912989   1.769   4.678   1.090 -1.4334  1.5112 -2.2822
   41MOL   H11012990   1.527   4.617   1.059 -1.5004 -1.6014 -0.0051
   41MOL   H11112991   1.470   4.398   0.946 -1.2441  0.4855  0.2573
   41MOL   H11212992   1.653   4.227   0.905  1.1910  0.3734 -2.0981
   41MOL   H11312993   1.888   4.303   0.929  1.2777  1.7329 -1.3074
   41MOL   C11412994   2.082   4.426   1.066  0.7136 -0.2982 -0.2542
   41MOL   C11512995   2.068   4.435   1.223 -0.0989  0.3536 -0.0953
   41MOL   C11612996   2.082   4.293   1.275 -0.5960  0.4033  0.4210
   41MOL   C11712997   2.208   4.239   1.285 -0.1469  0.3225 -0.2717
   41MOL   C11812998   2.230   4.108   1.330  0.1514 -0.3517  0.5726
   41MOL   C11912999   2.123   4.028   1.370 -0.9789 -0.6072  0.2066
   41MOL   C12013000   1.994   4.077   1.349 -0.6173 -0.2589 -0.5752
   41MOL   C12113001   1.971   4.209   1.305 -0.3967  0.4959 -0.5013
   41MOL   H12213002   2.185   4.453   1.043  0.6981  0.7161  0.8028
   41MOL   H12313003   2.062   4.325   1.031 -0.4230 -0.1324 -0.0900
   41MOL   H12413004   1.965   4.468   1.234  0.0657  0.9025 -0.1761
   41MOL   H12513005   2.291   4.306   1.265 -0.3406 -0.1485 -2.8165
   41MOL   H12613006   2.332   4.078   1.350  0.7553  1.3187  0.0711
   41MOL   H12713007   2.127   3.929   1.412  3.7203 -0.7427 -0.3713
   41MOL   H12813008   1.901   4.025   1.366 -1.5449  1.7197  0.6016
   41MOL   H12913009   1.872   4.250   1.294 -1.0712 -1.1454 -0.6056
   41MOL   C13013010   2.157   4.543   1.298 -0.3890 -0.4381 -0.0248
   41MOL   C13113011   2.155   4.556   1.453 -0.3761  0.0115 -0.2695
   41MOL   C13213012   2.276   4.625   1.512  0.0177 -0.7162 -0.6631
   41MOL   C13313013   2.372   4.558   1.590 -0.7519  0.1888 -0.2100
   41MOL   C13413014   2.490   4.623   1.637  0.2405 -0.2034 -1.4941
   41MOL   C13513015   2.509   4.755   1.602  0.1315 -0.5038  0.5888
   41MOL   C13613016   2.410   4.827   1.522  0.1142 -0.2269 -0.6426
   41MOL   C13713017   2.293   4.760   1.478 -0.1029  0.8063 -0.1116
   41MOL   H13813018   2.141   4.643   1.258  0.7727 -0.1286  0.2913
   41MOL   H13913019   2.260   4.516   1.279 -0.4036 -2.6038  2.7411
   41MOL   H14013020   2.173   4.456   1.491  0.9203  0.4343  0.2764
   41MOL   H14113021   2.362   4.451   1.600  1.3540  0.0047  0.3055
   41MOL   H14213022   2.563   4.575   1.701 -1.2854  1.1908  1.3749
   41MOL   H14313023   2.602   4.804   1.628 -0.3295  0.2899  0.7679
   41MOL   H14413024   2.420   4.934   1.512 -2.5930  0.0849 -0.3691
   41MOL   H14513025   2.217   4.809   1.419 -1.9902 -1.3870  0.4246
   41MOL   C14613026   2.024   4.615   1.517  0.5631 -0.0188  0.5455
   41MOL   C14713027   1.925   4.504   1.558  0.6724  0.1368  0.0082
   41MOL   C14813028   1.969   4.446   1.693 -0.0343  0.1522 -0.2845
   41MOL   C14913029   2.015   4.309   1.693 -0.0441  0.3508  0.1016
   41MOL   C15013030   2.034   4.242   1.818 -0.0854 -0.0393  0.3350
   41MOL   C15113031   2.030   4.319   1.935 -0.0001  0.4809 -0.1400
   41MOL   C15213032   1.990   4.452   1.931 -0.9619  0.0538 -0.0339
   41MOL   C15313033   1.964   4.522   1.810 -0.7147  0.8013 -0.3052
   41MOL   H15413034   1.966   4.667   1.440  1.2694  0.0033  0.0231
   41MOL   H15513035   2.047   4.689   1.593  2.3097 -1.1974  1.1924
   41MOL   H15613036   1.927   4.420   1.489 -0.3338  0.1546 -0.0427
   41MOL   H15713037   2.007   4.250   1.603 -0.9115  1.9612 -0.9135
   41MOL   H15813038   2.051   4.135   1.813  0.4786  0.0584  0.1280
   41MOL   H15913039   2.032   4.261   2.026  3.3698 -0.2114 -0.5710
   41MOL   H16013040   1.972   4.505   2.024 -2.8648 -0.3562 -0.1451
   41MOL   H16113041   1.921   4.621   1.823 -0.2195  0.6872  2.4411
   41MOL   C16213042   1.777   4.550   1.557 -0.0142 -0.2558 -0.3050
   41MOL   C16313043   1.662   4.452   1.594  0.4818 -0.7567 -0.1678
   41MOL   C16413044   1.527   4.522   1.571  0.0288  0.7377 -0.0519
   41MOL   C16513045   1.432   4.531   1.673  0.3823  0.0735  0.7357
   41MOL   C16613046   1.314   4.601   1.649  0.0601 -0.0960 -0.1815
   41MOL   C16713047   1.280   4.649   1.520  0.2713  0.8099 -0.5876
   41MOL   C16813048   1.369   4.623   1.419  0.0740  0.3523 -0.5397
   41MOL   C16913049   1.494   4.564   1.440 -0.0297 -0.0084 -0.6801
   41MOL   H17013050   1.769   4.578   1.452  0.4527 -2.9837 -1.1144
   41MOL   H17113051   1.758   4.639   1.618 -2.9011 -0.3175 -1.0574
   41MOL   H17213052   1.682   4.441   1.701  1.1981 -0.7203 -0.2925
   41MOL   H17313053   1.465   4.491   1.768  1.6800  1.4739  0.8902
   41MOL   H17413054   1.247   4.616   1.732  1.4981 -0.1821  1.0011
   41MOL   H17513055   1.179   4.681   1.501 -0.2659 -0.9623 -0.7572
   41MOL   H17613056   1.346   4.659   1.319 -0.6687  1.7824  0.1339
   41MOL   H17713057   1.567   4.563   1.361  1.0891  0.2575  0.3305
   41MOL   C17813058   1.672   4.322   1.508 -0.4963  0.5293 -0.3619
   41MOL   C17913059   1.556   4.224   1.525  0.4984 -0.1629  0.1179
   41MOL   C18013060   1.563   4.128   1.408 -0.8111  0.0118  0.6148
   41MOL   C18113061   1.495   4.153   1.290 -0.5030 -0.2099 -0.6115
   41MOL   C18213062   1.502   4.068   1.180 -0.2274 -0.1689 -0.4035
   41MOL   C18313063   1.588   3.956   1.184 -0.8414  0.1851  0.2068
   41MOL   C18413064   1.653   3.925   1.309 -0.1366  0.4413  0.1727
   41MOL   C18513065   1.631   4.007   1.420 -0.1459 -0.3068 -0.3428
   41MOL   H18613066   1.761   4.267   1.541  0.2649  0.4601 -2.4514
   41MOL   H18713067   1.682   4.351   1.404  0.2246 -3.2701 -1.4617
   41MOL   H18813068   1.460   4.273   1.510  0.9031  1.6758  2.9931
   41MOL   H18913069   1.436   4.243   1.278 -2.0010 -1.1667 -0.4186
   41MOL   H19013070   1.455   4.085   1.084  2.9333 -0.5049 -2.0715
   41MOL   H19113071   1.611   3.897   1.097  0.8765 -1.1308  1.5102
   41MOL   H19213072   1.720   3.840   1.313 -3.7368 -2.4669  0.9669
   41MOL   H19313073   1.692   3.969   1.501 -0.5024 -3.3824 -1.4412
   41MOL   C19413074   1.549   4.156   1.664  0.1658 -0.2317 -0.7223
   41MOL   C19513075   1.417   4.080   1.698 -0.5982 -0.3505 -0.7544
   41MOL   C19613076   1.422   4.001   1.827  0.5256  1.3201 -1.0023
   41MOL   C19713077   1.392   3.865   1.836 -0.0631 -0.3783 -0.8578
   41MOL   C19813078   1.409   3.794   1.957  0.1151  0.4126 -1.1076
   41MOL   C19913079   1.449   3.871   2.069  0.7633 -0.4316 -0.5007
   41MOL   C20013080   1.490   4.004   2.061 -0.0314  0.6665  0.0660
   41MOL   C20113081   1.477   4.067   1.938  0.4334  0.6851  0.0494
   41MOL   H20213082   1.569   4.233   1.739  0.1227  1.0114 -1.9692
   41MOL   H20313083   1.626   4.080   1.669  1.8234  1.4459 -0.1486
   41MOL   H20413084   1.391   4.006   1.623 -0.1648 -0.4676 -0.7934
   41MOL   H20513085   1.352   3.810   1.752  0.4238  0.3161 -1.5518
   41MOL   H20613086   1.382   3.690   1.963 -3.0649  1.1257 -2.1407
   41MOL   H20713087   1.462   3.827   2.167  0.9493 -1.0948 -0.8202
   41MOL   H20813088   1.531   4.055   2.147  0.3505 -0.2418  0.4279
   41MOL   H20913089   1.509   4.170   1.932  0.5948  0.5931 -0.7840
   41MOL   C21013090   1.304   4.178   1.706  0.1717  0.8482  1.0035
   41MOL   C21113091   1.180   4.140   1.618 -0.0683  0.1032 -0.8240
   41MOL   C21213092   1.064   4.222   1.672 -0.4731 -0.0595 -0.8570
   41MOL   C21313093   1.042   4.353   1.621  0.7070 -0.0157  0.6127
   41MOL   C21413094   0.937   4.428   1.673 -0.4409 -0.1651  0.7115
   41MOL   C21513095   0.858   4.376   1.776  0.4210  0.5603 -0.0316
   41MOL   C21613096   0.887   4.252   1.834 -0.1353 -0.3086 -0.0331
   41MOL   C21713097   0.984   4.173   1.777  0.2460  0.0706 -0.1180
   41MOL   H21813098   1.332   4.281   1.687  0.5959  0.2271 -1.9768
   41MOL   H21913099   1.267   4.178   1.809 -3.3648 -3.0249 -0.1226
   41MOL   H22013100   1.150   4.037   1.637 -2.7192  1.4573  2.8964
   41MOL   H22113101   1.110   4.394   1.547  1.4416 -3.4367 -0.6989
   41MOL   H22213102   0.924   4.525   1.629 -1.1448 -1.3778 -1.8657
   41MOL   H22313103   0.784   4.442   1.816 -0.4544 -1.9619  2.6965
   41MOL   H22413104   0.827   4.224   1.919  1.6923 -1.8106  0.7924
   41MOL   H22513105   1.010   4.076   1.817 -0.3445  0.2230  0.6398
   41MOL   C22613106   1.189   4.133   1.464  0.5844  0.1055 -0.2473
   41MOL   C22713107   1.060   4.111   1.382  0.2032  0.2772  0.2035
   41MOL   C22813108   1.085   4.090   1.228  0.2184 -0.0433  0.4745
   41MOL   C22913109   1.019   4.177   1.139 -0.4790 -0.0462 -0.7522
   41MOL   C23013110   1.051   4.163   1.000  0.0525  0.7764 -0.8235
   41MOL   C23113111   1.143   4.062   0.953 -0.0542  1.1536 -0.0715
   41MOL   C23213112   1.214   3.985   1.059  0.7570  0.1051  0.8063
   41MOL   C23313113   1.176   3.994   1.189 -0.3190 -0.2900  0.4930
   41MOL   H23413114   1.263   4.054   1.451 -2.4355 -2.8262 -0.2588
   41MOL   H23513115   1.239   4.223   1.427 -0.9855  0.1979 -2.2323
   41MOL   H23613116   1.008   4.207   1.387 -0.9542 -0.3167 -0.0575
   41MOL   H23713117   0.953   4.255   1.172  2.0922  2.2174 -0.8250
   41MOL   H23813118   1.014   4.225   0.919 -1.6637 -0.5733 -1.0863
   41MOL   H23913119   1.168   4.047   0.849 -1.1398 -2.8254  0.1901
   41MOL   H24013120   1.284   3.915   1.017 -1.1386 -0.9026 -0.7618
   41MOL   H24113121   1.218   3.935   1.269  0.9957 -1.2637 -0.8855
   41MOL   C24213122   0.963   3.999   1.434  0.2086  0.2992  0.4176
   41MOL   C24313123   0.822   4.003   1.365  0.8637  0.1469 -0.1742
   41MOL   C24413124   0.747   3.878   1.389 -0.5896 -0.1776 -0.5235
   41MOL   C24513125   0.711   3.799   1.276  0.2153 -0.4041  0.4048
   41MOL   C24613126   0.641   3.678   1.294 -0.2831 -0.4583  0.1251
   41MOL   C24713127   0.595   3.649   1.420 -0.2045  0.1769  0.4086
   41MOL   C24813128   0.638   3.721   1.529 -0.3274 -0.4547  0.0807
   41MOL   C24913129   0.720   3.837   1.515 -0.3458  0.1978 -0.9047
   41MOL   H25013130   0.951   4.008   1.542  0.2949 -2.6668  0.7145
   41MOL   H25113131   1.009   3.901   1.426 -2.5513 -1.0069 -0.1074
   41MOL   H25213132   0.832   4.011   1.257 -0.8618  3.0413 -0.1807
   41MOL   H25313133   0.740   3.827   1.176 -3.1423  1.0844 -0.2175
   41MOL   H25413134   0.612   3.621   1.207 -0.5256 -0.7936  0.4200
   41MOL   H25513135   0.538   3.559   1.437  2.5515 -1.6905  0.1868
   41MOL   H25613136   0.598   3.701   1.628  0.8626  0.0500  0.6713
   41MOL   H25713137   0.744   3.891   1.606  1.7645 -0.1530 -1.2353
   41MOL   C25813138   0.742   4.134   1.399  0.4623 -0.5879 -0.6191
   41MOL   C25913139   0.604   4.136   1.331  0.4525  0.7928  0.8274
   41MOL   C26013140   0.523   4.254   1.384 -0.2531  1.0945  0.2251
   41MOL   C26113141   0.438   4.231   1.493  0.2026  0.1406 -0.3701
   41MOL   C26213142   0.352   4.330   1.539  0.3170 -0.3653 -0.5664
   41MOL   C26313143   0.353   4.461   1.485  0.1042  0.4360 -0.1761
   41MOL   C26413144   0.442   4.490   1.382  0.5588  0.1861 -0.3918
   41MOL   C26513145   0.521   4.386   1.328  0.2392  0.4340 -0.1033
   41MOL   H26613146   0.785   4.231   1.376  0.4682  0.3821  3.1960
   41MOL   H26713147   0.723   4.143   1.506  1.0856 -0.8314 -0.4861
   41MOL   H26813148   0.544   4.049   1.361 -2.0496  2.2044  0.0243
   41MOL   H26913149   0.432   4.138   1.549 -1.9673  0.1937 -0.4734
   41MOL   H27013150   0.283   4.316   1.621  1.3696  1.2908  0.6337
   41MOL   H27113151   0.286   4.541   1.513 -1.4183 -0.1204 -2.1294
   41MOL   H27213152   0.450   4.591   1.344 -0.1164 -0.2568 -1.7229
   41MOL   H27313153   0.593   4.417   1.254  1.7973 -1.2046  0.7021
   41MOL   C27413154   0.609   4.130   1.172 -0.1560 -0.3928 -0.4215
   41MOL   C27513155   0.473   4.116   1.095  0.0372 -0.5621 -0.0769
   41MOL   C27613156   0.479   4.188   0.950  0.2633  0.6263  0.2559
   41MOL   C27713157   0.364   4.258   0.904 -0.5620 -0.0087 -0.4511
   41MOL   C27813158   0.365   4.318   0.779  0.2373  0.6966  0.4188
   41MOL   C27913159   0.476   4.298   0.697 -0.1976 -1.0136  0.1198
   41MOL   C28013160   0.585   4.224   0.732 -0.1807 -0.1127 -0.8215
   41MOL   C28113161   0.591   4.171   0.860 -0.4827  0.4299 -0.6593
   41MOL   H28213162   0.676   4.053   1.135  0.3739  0.6302 -1.5965
   41MOL   H28313163   0.645   4.224   1.132 -0.5446  0.1119  0.3885
   41MOL   H28413164   0.396   4.175   1.146  0.3089 -0.3826  0.1265
   41MOL   H28513165   0.274   4.249   0.964 -0.3878 -0.8767 -0.3037
   41MOL   H28613166   0.272   4.353   0.736  1.2155 -0.1639 -2.4368
   41MOL   H28713167   0.471   4.340   0.598 -1.8773  1.5974  1.2506
   41MOL   H28813168   0.667   4.219   0.662 -0.2265  0.8522 -0.9426
   41MOL   H28913169   0.677   4.111   0.886 -0.4154  0.4152 -0.9140
   41MOL   C29013170   0.431   3.961   1.080 -0.0904  0.0568 -0.0996
   41MOL   C29113171   0.345   3.886   1.193  1.0024 -0.0854  0.0917
   41MOL   C29213172   0.242   3.972   1.272 -0.2369 -0.2889 -0.0785
   41MOL   C29313173   0.242   3.963   1.408  0.7257 -0.0491 -0.5598
   41MOL   C29413174   0.141   4.038   1.473 -0.9902 -0.0915 -0.1848
   41MOL   C29513175   0.048   4.114   1.407  0.9281 -0.8540  0.2563
   41MOL   C29613176   0.064   4.127   1.268  0.2806 -0.5600  0.2389
   41MOL   C29713177   0.149   4.047   1.196 -0.5690  0.0613  0.3397
   41MOL   H29813178   0.519   3.905   1.047 -0.4185 -0.9044  0.6237
   41MOL   H29913179   0.364   3.962   0.995  1.1353 -1.4005 -1.1112
   41MOL   H30013180   0.424   3.850   1.260  2.8024  1.5370 -1.1013
   41MOL   H30113181   0.309   3.898   1.464 -0.3255  1.5370  2.6633
   41MOL   H30213182   0.129   4.025   1.580 -0.9812 -0.1357 -0.1893
   41MOL   H30313183   8.091   4.164   1.470  0.6991  2.2177 -2.3737
   41MOL   H30413184   0.001   4.192   1.209  0.5845 -0.1603  0.3577
   41MOL   H30513185   0.146   4.040   1.088 -1.9119 -0.9269  0.4255
   41MOL   C30613186   0.282   3.768   1.127  0.1915 -0.3610  0.0087
   41MOL   C30713187   0.252   3.663   1.239 -0.0330 -0.5723 -0.3715
   41MOL   C30813188   0.253   3.524   1.188  0.2039  0.1699 -0.0542
   41MOL   C30913189   0.133   3.463   1.145 -0.3867  0.1049 -0.0632
   41MOL   C31013190   0.127   3.326   1.121  0.2668 -0.3376 -0.6731
   41MOL   C31113191   0.239   3.248   1.124  0.0754  0.4039  0.2826
   41MOL   C31213192   0.363   3.299   1.158 -0.1784  0.4146 -0.2293
   41MOL   C31313193   0.374   3.444   1.187 -0.0967  0.5488  0.2104
   41MOL   H31413194   0.363   3.719   1.073 -0.5686 -1.2764 -0.3134
   41MOL   H31513195   0.204   3.799   1.058  0.5064  0.1557 -0.1177
   41MOL   H31613196   0.150   3.678   1.274  0.0013 -1.2711  0.0470
   41MOL   H31713197   0.042   3.521   1.140 -0.4789 -0.1258 -1.1576
   41MOL   H31813198   0.030   3.280   1.111 -0.5629  0.8202  1.6640
   41MOL   H31913199   0.233   3.142   1.105 -0.7468  0.7982 -1.8102
   41MOL   H32013200   0.447   3.233   1.174 -2.4532 -2.9977 -1.9587
   41MOL   H32113201   0.467   3.480   1.228  0.1113 -0.8999  1.0664
   41MOL   H32213202   0.312   3.661   1.330 -1.2381  0.1540  0.4509
   42MOL     C113203   6.079   1.987   2.202 -0.1069  0.3845  0.3559
   42MOL     C213204   6.080   2.088   2.083 -0.2439  0.6748 -0.8790
   42MOL     C313205   5.941   2.143   2.066 -0.7286  0.4062  0.5222
   42MOL     C413206   5.863   2.109   1.957 -1.1638  0.5669  0.5233
   42MOL     C513207   5.751   2.178   1.919 -0.3953  0.3538  0.0437
   42MOL     C613208   5.698   2.273   2.004 -0.4400  0.1761  0.5481
   42MOL     C713209   5.764   2.305   2.126 -0.6970 -0.1642  0.3738
   42MOL     C813210   5.890   2.246   2.150  0.4966  0.2113  0.3253
   42MOL     H913211   6.063   2.036   2.298  0.4956  1.5409 -0.1121
   42MOL    H1013212   6.003   1.910   2.191 -0.4396  0.8421 -0.6085
   42MOL    H1113213   6.103   2.037   1.990  0.5497 -1.8598  0.6353
   42MOL    H1213214   5.905   2.042   1.883  0.8359  1.1635  1.0823
   42MOL    H1313215   5.704   2.174   1.822 -0.9840  1.3661  0.2689
   42MOL    H1413216   5.615   2.332   1.967 -0.9748 -1.5199 -1.0648
   42MOL    H1513217   5.726   2.381   2.192 -1.3091  0.7082 -0.9551
   42MOL    H1613218   5.942   2.302   2.226 -1.5128  0.6570  1.4045
   42MOL    H1713219   6.175   1.936   2.209 -0.5711 -0.6496 -0.6815
   42MOL    C1813220   6.186   2.198   2.101  0.1175 -0.1635 -0.0927
   42MOL    C1913221   6.189   2.305   1.992  0.7352  0.1086  0.2844
   42MOL    C2013222   6.278   2.414   2.039  0.0033 -0.0003 -0.0240
   42MOL    C2113223   6.219   2.539   2.069  0.5913  0.6563 -0.7341
   42MOL    C2213224   6.298   2.646   2.111  0.7296 -0.1202 -0.2446
   42MOL    C2313225   6.434   2.630   2.122  0.3281  0.0780 -0.1527
   42MOL    C2413226   6.503   2.511   2.086  0.3671  0.0820  0.3023
   42MOL    C2513227   6.421   2.407   2.048  0.8070  0.4480  0.5084
   42MOL    H2613228   6.288   2.158   2.102  0.4195  0.5941  0.9887
   42MOL    H2713229   6.181   2.246   2.199 -1.1868  2.6154 -1.4661
   42MOL    H2813230   6.088   2.343   2.003  0.6027 -0.3449  0.6202
   42MOL    H2913231   6.112   2.549   2.060  0.6751  1.1885 -1.2439
   42MOL    H3013232   6.259   2.739   2.150  3.6385  1.2392 -0.4187
   42MOL    H3113233   6.492   2.719   2.142 -1.8112  1.4752 -0.0371
   42MOL    H3213234   6.610   2.509   2.103  0.3729  1.9861  0.5893
   42MOL    H3313235   6.468   2.312   2.023  2.0854  0.6947  1.9357
   42MOL    C3413236   6.208   2.237   1.854  0.6108 -0.2847 -0.4130
   42MOL    C3513237   6.223   2.338   1.734 -0.2626  0.7965  0.0562
   42MOL    C3613238   6.336   2.310   1.639 -0.7201  0.2972  0.4794
   42MOL    C3713239   6.467   2.362   1.658 -0.0030  0.5722 -0.8915
   42MOL    C3813240   6.574   2.334   1.568  0.0006  0.1920  0.3198
   42MOL    C3913241   6.544   2.244   1.463  0.5358 -0.1343 -0.8376
   42MOL    C4013242   6.423   2.181   1.443  0.1600  0.1298  0.3132
   42MOL    C4113243   6.320   2.215   1.538  0.5803  0.0946  0.9875
   42MOL    H4213244   6.136   2.160   1.824 -2.4231  2.0194  0.6692
   42MOL    H4313245   6.300   2.179   1.863  0.4806 -0.7457 -1.9384
   42MOL    H4413246   6.251   2.426   1.791 -1.4355  0.8001  0.6482
   42MOL    H4513247   6.472   2.424   1.746 -1.1640 -1.4490  0.6258
   42MOL    H4613248   6.665   2.390   1.556 -0.6212  1.2995  0.6327
   42MOL    H4713249   6.620   2.221   1.389  0.6435 -0.2671 -0.6865
   42MOL    H4813250   6.409   2.123   1.353  0.1179 -0.7561  0.8891
   42MOL    H4913251   6.227   2.162   1.527  1.2422 -0.7818 -0.6412
   42MOL    C5013252   6.088   2.367   1.674  0.1910  0.2672 -0.6674
   42MOL    C5113253   6.075   2.470   1.562  0.6638  0.1319  0.5640
   42MOL    C5213254   5.945   2.449   1.491 -0.0171 -0.1814  0.3559
   42MOL    C5313255   5.825   2.480   1.557  0.4711 -0.0028  0.1512
   42MOL    C5413256   5.702   2.466   1.488 -0.1119 -0.5597  0.1152
   42MOL    C5513257   5.697   2.446   1.348 -0.1503  0.2189  0.3469
   42MOL    C5613258   5.817   2.441   1.279  0.4079 -0.8291  0.2857
   42MOL    C5713259   5.942   2.428   1.347 -0.2622 -0.3427 -0.4306
   42MOL    H5813260   6.033   2.395   1.764  1.4141  0.7634 -0.0531
   42MOL    H5913261   6.043   2.274   1.641 -0.1844  0.4070 -0.5597
   42MOL    H6013262   6.154   2.441   1.492  1.6465  0.5389  1.4839
   42MOL    H6113263   5.831   2.502   1.663  0.5421 -2.3496  0.6444
   42MOL    H6213264   5.618   2.484   1.553  0.1786 -1.2463  0.6907
   42MOL    H6313265   5.602   2.447   1.297  0.5109  0.9524 -0.8986
   42MOL    H6413266   5.813   2.442   1.171  0.0636 -2.9015  0.2722
   42MOL    H6513267   6.035   2.408   1.296 -0.3672 -2.1006  0.0253
   42MOL    C6613268   6.096   2.618   1.609  1.0309  0.5587  0.0172
   42MOL    C6713269   6.244   2.669   1.598 -0.1358 -0.0944  0.1279
   42MOL    C6813270   6.283   2.700   1.453 -0.0264 -0.2173  0.7098
   42MOL    C6913271   6.244   2.820   1.390  0.6100 -0.1643  0.5054
   42MOL    C7013272   6.290   2.857   1.258 -0.1171 -0.5447 -0.4427
   42MOL    C7113273   6.375   2.776   1.194  0.4769 -0.0174 -0.3907
   42MOL    C7213274   6.428   2.659   1.262  0.9903 -0.1066 -0.0488
   42MOL    C7313275   6.379   2.622   1.386 -0.7831  0.1480  0.4136
   42MOL    H7413276   6.051   2.621   1.708  1.7830 -0.1894  0.3931
   42MOL    H7513277   6.033   2.679   1.545  0.1811  0.1264  0.4269
   42MOL    H7613278   6.298   2.578   1.626 -0.0056  0.1716  0.7308
   42MOL    H7713279   6.183   2.879   1.457  1.4791 -0.6334  1.7335
   42MOL    H7813280   6.253   2.949   1.215 -1.2599 -0.9763 -0.3916
   42MOL    H7913281   6.408   2.797   1.094  1.9806 -1.1932 -0.1637
   42MOL    H8013282   6.498   2.592   1.213  0.6234 -0.9584  0.5674
   42MOL    H8113283   6.428   2.533   1.422  1.5500  1.2331  0.0020
   42MOL    C8213284   6.261   2.782   1.701  0.2014  0.1345 -0.0107
   42MOL    C8313285   6.397   2.863   1.696 -0.6438  0.2976 -0.1397
   42MOL    C8413286   6.381   3.007   1.751 -0.7866 -0.7933 -0.2617
   42MOL    C8513287   6.457   3.113   1.695 -0.5871 -0.4580 -0.3604
   42MOL    C8613288   6.440   3.247   1.744 -0.3140 -0.1357 -1.1645
   42MOL    C8713289   6.362   3.271   1.859  0.0734  0.1942  0.4820
   42MOL    C8813290   6.283   3.163   1.911  0.1037 -0.0783  0.3872
   42MOL    C8913291   6.297   3.030   1.868 -0.0742  0.5277  0.1182
   42MOL    H9013292   6.242   2.746   1.802  3.1450  1.3548  1.0459
   42MOL    H9113293   6.191   2.863   1.686  0.0253 -0.0831 -0.3656
   42MOL    H9213294   6.427   2.880   1.592 -0.5728  1.1466  0.0213
   42MOL    H9313295   6.518   3.102   1.607  0.8692  1.9812  0.2863
   42MOL    H9413296   6.495   3.330   1.703  1.0013  0.0820  0.9831
   42MOL    H9513297   6.363   3.363   1.915  0.6973  0.4341  0.0793
   42MOL    H9613298   6.232   3.184   2.004 -1.6935  1.1474 -0.8454
   42MOL    H9713299   6.240   2.953   1.917  1.8091 -0.3097  1.0489
   42MOL    C9813300   6.510   2.774   1.765  0.0127  0.7469 -0.2872
   42MOL    C9913301   6.652   2.782   1.713  0.3709 -0.5336  0.3324
   42MOL   C10013302   6.745   2.716   1.818  0.2223 -0.1372  0.3856
   42MOL   C10113303   6.818   2.793   1.912  0.4304 -0.0427  0.4820
   42MOL   C10213304   6.890   2.726   2.013  0.0282 -0.2243  0.3369
   42MOL   C10313305   6.896   2.583   2.019 -0.0971  0.2452 -0.0068
   42MOL   C10413306   6.826   2.510   1.920  0.0520  0.5910 -1.0473
   42MOL   C10513307   6.752   2.576   1.827 -0.3906  0.4971  0.8538
   42MOL   H10613308   6.477   2.671   1.751  1.5465  0.6938 -4.2761
   42MOL   H10713309   6.505   2.775   1.874 -1.3753  0.3083 -0.3394
   42MOL   H10813310   6.678   2.888   1.708 -2.5848  0.1901 -0.4159
   42MOL   H10913311   6.808   2.901   1.907  1.0593  0.2836  4.1514
   42MOL   H11013312   6.943   2.782   2.088 -0.4345  1.9875 -0.9366
   42MOL   H11113313   6.960   2.535   2.091  1.2727 -0.9940 -1.9863
   42MOL   H11213314   6.827   2.402   1.916  0.0950  0.5319  0.3566
   42MOL   H11313315   6.693   2.520   1.756  3.7478 -0.0251 -2.3943
   42MOL   C11413316   6.668   2.734   1.568  0.5277  0.1563 -0.1919
   42MOL   C11513317   6.810   2.723   1.520  0.0705  0.2755 -0.1808
   42MOL   C11613318   6.844   2.588   1.458  0.2591 -0.1512  0.4647
   42MOL   C11713319   6.783   2.551   1.337 -0.2143  0.6242 -0.2712
   42MOL   C11813320   6.830   2.436   1.274 -0.2936  0.7312 -0.3830
   42MOL   C11913321   6.933   2.361   1.337  0.4811  0.2809 -0.3750
   42MOL   C12013322   6.981   2.392   1.469  0.4837  0.0683  0.0265
   42MOL   C12113323   6.950   2.519   1.521 -0.0894  0.2247  0.2537
   42MOL   H12213324   6.607   2.788   1.496 -1.0454  0.6749  1.4670
   42MOL   H12313325   6.626   2.633   1.561 -0.3169  0.5154 -0.3678
   42MOL   H12413326   6.884   2.737   1.598 -0.9051 -0.4276  0.8843
   42MOL   H12513327   6.707   2.609   1.286  0.4053 -0.4659 -2.5189
   42MOL   H12613328   6.791   2.399   1.180  0.3799 -0.1016 -0.3319
   42MOL   H12713329   6.966   2.275   1.282 -0.4870  0.2036 -0.8402
   42MOL   H12813330   7.047   2.321   1.516  0.1002  0.5505  1.2992
   42MOL   H12913331   6.992   2.540   1.618  2.4529 -0.7650 -0.6088
   42MOL   C13013332   6.842   2.833   1.417  0.2284 -0.0807  0.5844
   42MOL   C13113333   6.839   2.979   1.470 -0.1471 -0.2636  0.0431
   42MOL   C13213334   6.930   3.001   1.596 -0.0594  1.0056 -0.7245
   42MOL   C13313335   7.068   2.970   1.596  0.3218  0.5190 -0.3972
   42MOL   C13413336   7.146   2.994   1.710  0.1659 -0.1563 -0.3794
   42MOL   C13513337   7.091   3.049   1.825 -0.9081 -0.2550 -1.0090
   42MOL   C13613338   6.951   3.094   1.824 -0.4791  0.1412  0.8606
   42MOL   C13713339   6.879   3.068   1.710 -0.3950  0.6209  0.1970
   42MOL   H13813340   6.777   2.815   1.332 -0.3161  0.8136  0.8078
   42MOL   H13913341   6.947   2.818   1.392  0.1128  0.4606 -0.2206
   42MOL   H14013342   6.735   2.991   1.502  0.2340  0.9917  0.8462
   42MOL   H14113343   7.101   2.911   1.512  1.1422  0.1780  0.1471
   42MOL   H14213344   7.250   2.965   1.707  0.0797 -0.5208  0.0869
   42MOL   H14313345   7.161   3.065   1.905 -2.5281  1.0281  0.1813
   42MOL   H14413346   6.899   3.141   1.906 -1.8644  0.0642  0.0278
   42MOL   H14513347   6.775   3.094   1.700 -0.6742 -0.2664  0.6614
   42MOL   C14613348   6.879   3.093   1.376 -0.2390 -0.3834  0.9384
   42MOL   C14713349   6.767   3.128   1.269  0.3541 -0.8129 -0.0742
   42MOL   C14813350   6.652   3.204   1.330  0.1609  0.5998 -0.7241
   42MOL   C14913351   6.530   3.140   1.360  0.4583  0.3896  0.8028
   42MOL   C15013352   6.418   3.221   1.392  0.0014 -0.3489 -0.1284
   42MOL   C15113353   6.428   3.364   1.403  0.2996  0.1905  0.4875
   42MOL   C15213354   6.548   3.423   1.377  0.7726  0.0528 -0.2070
   42MOL   C15313355   6.656   3.349   1.342  0.3981  0.5044  0.8216
   42MOL   H15413356   6.975   3.064   1.332 -1.4067  0.2730 -2.2275
   42MOL   H15513357   6.907   3.182   1.431  3.7127 -0.6845 -0.4125
   42MOL   H15613358   6.716   3.038   1.235  2.9043 -2.4208  0.2334
   42MOL   H15713359   6.526   3.032   1.359  1.5098  0.3545  0.1312
   42MOL   H15813360   6.326   3.165   1.403 -0.5183  0.8476  1.8346
   42MOL   H15913361   6.346   3.420   1.445 -0.0709 -1.7375  2.4749
   42MOL   H16013362   6.550   3.531   1.389  0.1582 -0.2080  2.7035
   42MOL   H16113363   6.748   3.404   1.326  1.1530 -0.5138  1.6567
   42MOL   C16213364   6.826   3.203   1.137  0.3921  0.0561  0.3166
   42MOL   C16313365   6.928   3.129   1.047 -0.1836  0.9352  0.7731
   42MOL   C16413366   6.903   2.977   1.041  0.0906  0.0953  0.0566
   42MOL   C16513367   6.996   2.884   1.096 -0.0556 -0.2508  0.4575
   42MOL   C16613368   6.978   2.745   1.097  0.1741  0.6263 -0.4116
   42MOL   C16713369   6.862   2.693   1.037 -0.0286  0.1361 -0.9344
   42MOL   C16813370   6.770   2.778   0.972  0.1896  0.3315 -0.3894
   42MOL   C16913371   6.788   2.917   0.977  0.1038  0.5836  0.0609
   42MOL   H17013372   6.865   3.303   1.157 -2.3975  1.4400 -0.7884
   42MOL   H17113373   6.737   3.221   1.075  0.7328  2.2433  0.4267
   42MOL   H17213374   7.028   3.144   1.088 -0.6593  2.0236  1.5643
   42MOL   H17313375   7.089   2.905   1.145 -0.5915 -4.0960  3.3705
   42MOL   H17413376   7.042   2.666   1.133 -2.8189 -1.4899  0.3674
   42MOL   H17513377   6.844   2.587   1.030  1.1184 -0.2731  1.6385
   42MOL   H17613378   6.689   2.728   0.920 -0.0397  2.4700 -2.1703
   42MOL   H17713379   6.725   2.983   0.920 -1.4841 -1.2847 -0.3918
   42MOL   C17813380   6.922   3.183   0.908 -0.2715 -0.4949  0.1479
   42MOL   C17913381   6.979   3.332   0.896  0.0078  0.0319  0.1708
   42MOL   C18013382   7.130   3.339   0.896 -0.3771 -0.0938 -0.4009
   42MOL   C18113383   7.180   3.441   0.972 -0.0628 -0.3594 -0.2111
   42MOL   C18213384   7.313   3.483   0.964 -0.1829 -0.0983  0.0789
   42MOL   C18313385   7.404   3.414   0.880  0.0931  0.1835 -0.1303
   42MOL   C18413386   7.354   3.302   0.810 -0.0021  0.0206  0.0392
   42MOL   C18513387   7.218   3.268   0.819  0.0764 -0.7301  0.0134
   42MOL   H18613388   6.817   3.174   0.882 -0.1183 -1.6298 -0.1078
   42MOL   H18713389   6.987   3.119   0.849 -1.2378 -2.4973  1.2233
   42MOL   H18813390   6.942   3.390   0.981  1.6122  1.4085 -0.0372
   42MOL   H18913391   7.124   3.509   1.034 -0.1120 -0.7803  0.2017
   42MOL   H19013392   7.354   3.560   1.028 -0.2794  0.0755 -0.0663
   42MOL   H19113393   7.510   3.435   0.883  0.0915  0.1380  0.2588
   42MOL   H19213394   7.423   3.232   0.766 -0.7871 -0.5364 -0.3293
   42MOL   H19313395   7.184   3.184   0.759  0.1605  0.4542 -1.7119
   42MOL   C19413396   6.917   3.406   0.772 -0.5833  0.1409  0.1834
   42MOL   C19513397   6.785   3.481   0.799 -0.2714 -0.6084  0.6394
   42MOL   C19613398   6.811   3.610   0.877 -0.5069  0.1720 -0.1531
   42MOL   C19713399   6.755   3.622   1.003  0.7793 -0.3956 -0.1053
   42MOL   C19813400   6.785   3.737   1.075 -0.2170  0.3426 -0.3204
   42MOL   C19913401   6.866   3.844   1.024  0.5810  0.0344  0.4379
   42MOL   C20013402   6.916   3.836   0.892 -0.3979  0.0853 -0.0537
   42MOL   C20113403   6.891   3.713   0.822  0.3025 -0.4378 -0.6482
   42MOL   H20213404   6.913   3.326   0.698 -1.7126  0.6054 -0.2783
   42MOL   H20313405   6.988   3.479   0.735  1.3099 -1.7144  0.0724
   42MOL   H20413406   6.722   3.410   0.854 -1.6523  1.4673  1.7898
   42MOL   H20513407   6.693   3.548   1.050 -0.3587  1.2541  1.0254
   42MOL   H20613408   6.753   3.732   1.178 -2.4905  1.8666 -0.9144
   42MOL   H20713409   6.900   3.923   1.090  2.1590 -0.8984  0.7678
   42MOL   H20813410   6.986   3.908   0.854  1.6725 -3.4703 -3.3435
   42MOL   H20913411   6.936   3.697   0.726  1.5265  1.9024 -0.5079
   42MOL   C21013412   6.704   3.515   0.667  0.0351 -0.5166  0.4328
   42MOL   C21113413   6.635   3.391   0.594 -0.1370 -0.5409  0.5795
   42MOL   C21213414   6.485   3.386   0.613 -0.3048 -0.0938  0.2569
   42MOL   C21313415   6.419   3.279   0.682  0.1431  0.0116  0.1100
   42MOL   C21413416   6.290   3.304   0.728 -0.2024 -0.5946  0.1819
   42MOL   C21513417   6.217   3.415   0.684 -0.4476  0.0994  0.7637
   42MOL   C21613418   6.279   3.514   0.603  0.1341  0.1659 -0.5215
   42MOL   C21713419   6.416   3.501   0.566  0.3695  0.1241 -0.5669
   42MOL   H21813420   6.775   3.551   0.594  0.7284  2.5246  2.5136
   42MOL   H21913421   6.639   3.599   0.691  1.2862 -0.1444  2.7166
   42MOL   H22013422   6.678   3.311   0.655  4.4396  2.1245  1.1080
   42MOL   H22113423   6.477   3.193   0.713  0.0228  0.1337  0.6641
   42MOL   H22213424   6.248   3.235   0.800 -0.6215 -1.0134 -0.4623
   42MOL   H22313425   6.111   3.429   0.702 -0.5118 -2.0327  2.1772
   42MOL   H22413426   6.228   3.604   0.570 -3.0006 -1.1061  0.6833
   42MOL   H22513427   6.452   3.572   0.493 -1.9074  1.4785 -0.4348
   42MOL   C22613428   6.689   3.366   0.449  0.1708 -1.0280  0.1700
   42MOL   C22713429   6.803   3.266   0.444 -1.1692  0.1281  0.2051
   42MOL   C22813430   6.763   3.124   0.496  0.1817 -0.1166 -0.6457
   42MOL   C22913431   6.641   3.067   0.452  0.5788 -0.5674  0.0188
   42MOL   C23013432   6.602   2.943   0.511 -0.0113  0.3135 -0.4265
   42MOL   C23113433   6.686   2.880   0.599 -0.2741 -0.4406 -0.3676
   42MOL   C23213434   6.807   2.938   0.639  0.4343  0.2237  1.1571
   42MOL   C23313435   6.852   3.057   0.586 -0.2529  0.0570  0.1569
   42MOL   H23413436   6.715   3.463   0.407 -2.0737 -1.5452 -2.6016
   42MOL   H23513437   6.613   3.327   0.381  0.1894 -1.1166  0.2013
   42MOL   H23613438   6.894   3.299   0.493  0.3633  1.7231 -3.4836
   42MOL   H23713439   6.582   3.118   0.377 -0.0198  1.5828  1.9002
   42MOL   H23813440   6.512   2.891   0.484 -0.7790  0.3326  1.9425
   42MOL   H23913441   6.653   2.788   0.645  0.1342 -0.0944  0.6434
   42MOL   H24013442   6.869   2.880   0.705  1.8463  1.1385  0.6664
   42MOL   H24113443   6.955   3.089   0.599 -0.4551  0.0977  1.8361
   42MOL   C24213444   6.863   3.267   0.301 -0.0916 -0.3418 -0.7746
   42MOL   C24313445   6.941   3.397   0.259  0.1119  0.9752 -0.2831
   42MOL   C24413446   7.023   3.461   0.365 -0.2813 -0.3151 -0.3289
   42MOL   C24513447   7.000   3.598   0.394 -0.5202 -0.1040  0.3256
   42MOL   C24613448   7.085   3.660   0.484 -0.3732  0.7556 -0.3688
   42MOL   C24713449   7.198   3.594   0.536  0.4496 -0.2499  0.2707
   42MOL   C24813450   7.221   3.460   0.504 -0.1770 -0.5120 -0.0424
   42MOL   C24913451   7.133   3.391   0.422  0.4366  0.1582 -0.6496
   42MOL   H25013452   6.785   3.230   0.234 -0.1608 -1.5071 -0.0519
   42MOL   H25113453   6.937   3.189   0.313 -0.0162  0.1282  2.0395
   42MOL   H25213454   6.872   3.470   0.219  0.5293  0.3547 -2.1923
   42MOL   H25313455   6.917   3.653   0.352  0.8812  0.9591 -1.1204
   42MOL   H25413456   7.066   3.763   0.512 -1.2207  0.7164 -0.7831
   42MOL   H25513457   7.263   3.648   0.604 -0.4611 -0.5512  1.4070
   42MOL   H25613458   7.306   3.419   0.558 -0.3622 -0.4876  0.2700
   42MOL   H25713459   7.152   3.288   0.397  2.6682  0.9097 -2.2909
   42MOL   C25813460   7.034   3.358   0.150 -0.0390  0.6189  0.5861
   42MOL   C25913461   6.976   3.330   0.016  0.0667 -0.2659 -0.6204
   42MOL   C26013462   6.912   3.461   8.074 -0.4620 -0.7720 -0.0329
   42MOL   C26113463   6.992   3.575   8.048 -0.0876  0.1295  0.1830
   42MOL   C26213464   6.930   3.695   8.009 -0.2902 -0.0832 -0.6717
   42MOL   C26313465   6.789   3.708   8.019  0.1050 -0.5770  0.4370
   42MOL   C26413466   6.712   3.591   8.040 -0.6508 -0.0607 -0.4039
   42MOL   C26513467   6.769   3.470   8.075 -0.9664  0.1814  0.2959
   42MOL   H26613468   7.091   3.268   0.174  0.0713  0.9885  1.7210
   42MOL   H26713469   7.108   3.437   0.138 -1.2298  1.5834 -0.4935
   42MOL   H26813470   6.895   3.257   0.018  0.7253 -1.0666 -2.4470
   42MOL   H26913471   7.099   3.578   8.058  0.0209 -0.2934 -0.7765
   42MOL   H27013472   6.995   3.778   7.985 -0.0373 -0.2872 -0.6811
   42MOL   H27113473   6.735   3.800   8.006 -1.2040 -1.2828  0.7030
   42MOL   H27213474   6.605   3.607   8.036 -0.8999 -1.6512 -0.1325
   42MOL   H27313475   6.714   3.378   8.092 -0.5707 -0.3503 -1.2765
   42MOL   C27413476   7.084   3.276   8.032  0.1931  0.5810 -0.3841
   42MOL   C27513477   7.028   3.207   7.900 -0.1042 -0.2150  0.3235
   42MOL   C27613478   7.104   3.257   7.773  0.0259 -0.4485  0.5602
   42MOL   C27713479   7.211   3.177   7.734  0.5938  0.0028  0.4018
   42MOL   C27813480   7.289   3.218   7.622  0.0358 -0.1482  0.1793
   42MOL   C27913481   7.255   3.335   7.554  0.0924  0.4016 -0.1939
   42MOL   C28013482   7.143   3.409   7.585 -0.3579  0.6050 -0.0716
   42MOL   C28113483   7.075   3.376   7.701  0.0812 -0.5220 -0.1500
   42MOL   H28213484   7.145   3.200   8.081 -1.2096  0.5008  1.2852
   42MOL   H28313485   7.155   3.354   8.005  0.8963  0.1935  0.3178
   42MOL   H28413486   6.944   3.274   7.881 -1.1913 -0.8951  2.6605
   42MOL   H28513487   7.245   3.090   7.787 -1.1964  0.2874  2.0946
   42MOL   H28613488   7.377   3.161   7.594  0.1358  0.9073 -1.7802
   42MOL   H28713489   7.322   3.348   7.470 -1.0935  3.6012 -0.7060
   42MOL   H28813490   7.111   3.495   7.528  1.7123  1.5833  0.1827
   42MOL   H28913491   6.989   3.435   7.727 -0.2561 -1.2073  0.3045
   42MOL   C29013492   6.987   3.055   7.914  0.3314 -0.9737 -0.4164
   42MOL   C29113493   6.889   3.002   7.812 -0.1057  0.5351 -0.0163
   42MOL   C29213494   6.866   2.847   7.817  0.2924  0.4033 -0.8232
   42MOL   C29313495   6.860   2.781   7.692  0.2170  0.0181  0.3330
   42MOL   C29413496   6.876   2.639   7.690 -0.2721 -0.5316 -0.0957
   42MOL   C29513497   6.870   2.558   7.807 -0.1630 -0.7489  0.0541
   42MOL   C29613498   6.854   2.623   7.935 -0.1494 -0.0406 -0.3543
   42MOL   C29713499   6.859   2.765   7.940 -0.1233  0.4490  0.5116
   42MOL   H29813500   6.944   3.048   8.014 -0.0218 -0.0849 -0.5008
   42MOL   H29913501   7.078   2.994   7.919 -1.0594 -3.0990 -0.0878
   42MOL   H30013502   6.933   3.027   7.716 -2.3649  0.8493 -1.0054
   42MOL   H30113503   6.864   2.844   7.605  0.4840 -0.2204  0.1709
   42MOL   H30213504   6.878   2.582   7.598 -0.8855 -1.2199  0.3139
   42MOL   H30313505   6.891   2.453   7.806  1.5349 -0.4820  2.2285
   42MOL   H30413506   6.859   2.566   8.026 -1.2057  2.3626  1.2653
   42MOL   H30513507   6.874   2.813   8.035  2.0216  1.0156 -0.0918
   42MOL   C30613508   6.755   3.079   7.810  0.3399 -0.2409 -0.2588
   42MOL   C30713509   6.682   3.084   7.939  0.3532  0.5186 -0.1551
   42MOL   C30813510   6.542   3.130   7.916 -0.8952 -0.2049 -0.3407
   42MOL   C30913511   6.436   3.043   7.929  0.4999  0.3063 -0.8211
   42MOL   C31013512   6.307   3.091   7.915 -0.0323 -0.1261  0.2800
   42MOL   C31113513   6.280   3.225   7.879 -0.3264 -0.8316  0.0511
   42MOL   C31213514   6.393   3.308   7.876  0.4755  0.3590 -0.1559
   42MOL   C31313515   6.523   3.266   7.886  0.1202 -0.1260  0.1806
   42MOL   H31413516   6.694   3.023   7.739  1.1770 -2.3572  0.6445
   42MOL   H31513517   6.761   3.178   7.765 -0.9938  0.6429  1.4270
   42MOL   H31613518   6.743   3.152   8.000 -0.0085  0.3006  0.4581
   42MOL   H31713519   6.446   2.945   7.973  0.9324  0.1143 -1.3380
   42MOL   H31813520   6.224   3.024   7.933  0.0270 -0.8953 -2.1002
   42MOL   H31913521   6.178   3.258   7.861 -0.4720 -0.9957  0.5576
   42MOL   H32013522   6.371   3.410   7.848  2.1060  1.2346  1.6470
   42MOL   H32113523   6.612   3.328   7.883 -0.9297  1.4034  0.0360
   42MOL   H32213524   6.670   2.988   7.989  1.2479  1.0776  1.1722
   43MOL     C113525   4.522   4.375   0.837  0.2381 -0.6587  0.5071
   43MOL     C213526   4.412   4.296   0.912  0.1143  0.4487 -0.4756
   43MOL     C313527   4.428   4.143   0.875 -0.2905 -0.7957 -0.4481
   43MOL     C413528   4.540   4.068   0.915  0.7396  0.1787  0.3464
   43MOL     C513529   4.535   3.930   0.905  0.0403 -0.0053 -1.1006
   43MOL     C613530   4.430   3.866   0.836  0.2470 -0.5322 -0.6673
   43MOL     C713531   4.324   3.944   0.783 -0.4734  0.0314  0.3839
   43MOL     C813532   4.323   4.080   0.805  0.3183 -0.5747 -0.2597
   43MOL     H913533   4.522   4.366   0.729 -2.8615  1.1923  0.2691
   43MOL    H1013534   4.524   4.483   0.858 -2.1818 -0.4073 -0.3605
   43MOL    H1113535   4.314   4.325   0.874 -0.9211 -4.4432 -1.8228
   43MOL    H1213536   4.623   4.105   0.974 -0.9216 -1.1257  3.6936
   43MOL    H1313537   4.603   3.863   0.955  0.6056 -0.7555 -2.8145
   43MOL    H1413538   4.434   3.758   0.838  1.6882 -0.4661  2.3431
   43MOL    H1513539   4.238   3.900   0.735  0.6563 -0.5193 -1.1762
   43MOL    H1613540   4.244   4.143   0.767  1.0015 -0.5723 -1.7300
   43MOL    H1713541   4.619   4.336   0.868 -0.7678 -3.0411  0.7628
   43MOL    C1813542   4.423   4.333   1.068 -0.0807  0.3160  0.0622
   43MOL    C1913543   4.351   4.236   1.164 -0.0467  0.5817  0.1382
   43MOL    C2013544   4.394   4.258   1.308  0.1947 -0.0960  0.3010
   43MOL    C2113545   4.353   4.378   1.366 -0.2912  0.4154  0.1348
   43MOL    C2213546   4.394   4.397   1.504  0.8002 -0.1062 -0.3948
   43MOL    C2313547   4.447   4.293   1.582 -0.3617  0.7650  0.1894
   43MOL    C2413548   4.478   4.167   1.526  0.1816 -0.0876 -0.1946
   43MOL    C2513549   4.440   4.148   1.389  0.0281 -0.4397  0.1564
   43MOL    H2613550   4.381   4.434   1.075  1.3438  1.0903 -1.9916
   43MOL    H2713551   4.531   4.333   1.085  0.0294 -0.5191 -0.6415
   43MOL    H2813552   4.387   4.135   1.143 -0.9908  0.7118 -2.2499
   43MOL    H2913553   4.303   4.456   1.312 -0.0363  0.3518 -0.1950
   43MOL    H3013554   4.360   4.487   1.555 -0.9777 -1.7427  1.3823
   43MOL    H3113555   4.471   4.300   1.687 -0.3828 -0.1740  0.2560
   43MOL    H3213556   4.536   4.092   1.578  5.4877  2.2653 -2.3496
   43MOL    H3313557   4.450   4.051   1.342 -1.6861 -0.4091 -0.3291
   43MOL    C3413558   4.194   4.226   1.156 -0.1655 -0.5782  0.0647
   43MOL    C3513559   4.122   4.104   1.219  0.3484  0.8409 -0.1676
   43MOL    C3613560   3.977   4.130   1.238 -0.1095 -1.0614  0.2623
   43MOL    C3713561   3.898   4.201   1.143  0.0792 -0.3212 -0.1430
   43MOL    C3813562   3.756   4.208   1.169 -0.6661  0.1930 -0.1288
   43MOL    C3913563   3.704   4.156   1.287 -0.3411  0.2497  0.5007
   43MOL    C4013564   3.783   4.088   1.379  0.0376 -0.2634 -0.0361
   43MOL    C4113565   3.918   4.079   1.355  0.4690  0.5163  0.1638
   43MOL    H4213566   4.162   4.240   1.052 -1.1053  0.3951  0.4766
   43MOL    H4313567   4.147   4.315   1.199  0.1479 -0.0778 -0.6244
   43MOL    H4413568   4.164   4.093   1.319 -1.4027  0.8361  0.5887
   43MOL    H4513569   3.942   4.246   1.056  1.9538  0.6314  1.2715
   43MOL    H4613570   3.699   4.255   1.090  0.0566  1.2694 -0.0232
   43MOL    H4713571   3.600   4.168   1.315 -0.6377  1.1594 -0.9750
   43MOL    H4813572   3.742   4.056   1.474 -3.9177  1.7913 -0.9446
   43MOL    H4913573   3.981   4.031   1.427 -0.5001 -1.4269 -0.2499
   43MOL    C5013574   4.152   3.976   1.135 -0.0380  0.1093  0.4309
   43MOL    C5113575   4.075   3.849   1.166 -0.4605  0.1837  0.0132
   43MOL    C5213576   4.004   3.811   1.038 -1.0858 -0.6062 -0.9334
   43MOL    C5313577   3.877   3.866   1.011 -0.6356 -0.1346 -0.1505
   43MOL    C5413578   3.826   3.858   0.881 -0.0474 -0.2773 -0.0948
   43MOL    C5513579   3.887   3.784   0.782  0.2566  0.4227 -0.1461
   43MOL    C5613580   4.014   3.725   0.809 -0.1126  0.4426 -0.3391
   43MOL    C5713581   4.070   3.732   0.942 -0.3009 -0.7599 -0.3013
   43MOL    H5813582   4.258   3.953   1.127 -0.1411  0.2125 -1.4612
   43MOL    H5913583   4.123   4.015   1.037  3.3493  2.6595  0.3412
   43MOL    H6013584   3.996   3.871   1.237 -0.4737 -2.2990  0.8460
   43MOL    H6113585   3.829   3.927   1.085  1.3954  0.6707  0.5286
   43MOL    H6213586   3.726   3.897   0.868 -0.9037 -1.9530  1.2262
   43MOL    H6313587   3.838   3.770   0.688 -1.4126  1.9014  0.4802
   43MOL    H6413588   4.055   3.660   0.733 -2.2063  0.6923 -1.7341
   43MOL    H6513589   4.165   3.685   0.965 -0.3125 -0.8319 -0.4003
   43MOL    C6613590   4.159   3.742   1.238  0.1367 -0.4641  0.0420
   43MOL    C6713591   4.216   3.774   1.379 -0.3013  0.0967  0.2412
   43MOL    C6813592   4.118   3.824   1.482 -0.1533  0.0427  0.3122
   43MOL    C6913593   4.152   3.929   1.570 -0.0432  0.0577  0.6454
   43MOL    C7013594   4.070   3.952   1.685  0.2313  0.0434 -1.0334
   43MOL    C7113595   3.957   3.874   1.708  0.6623  0.2396 -0.8866
   43MOL    C7213596   3.920   3.779   1.618  0.7792  0.6160 -0.4670
   43MOL    C7313597   3.999   3.756   1.504  0.5001  0.5149  0.0694
   43MOL    H7413598   4.247   3.729   1.173 -0.7926 -1.1628 -1.0960
   43MOL    H7513599   4.104   3.648   1.235  2.3737 -1.9548  2.8801
   43MOL    H7613600   4.283   3.859   1.366 -1.8589  1.1400 -1.1093
   43MOL    H7713601   4.245   3.983   1.568  0.5991 -1.0158  1.0751
   43MOL    H7813602   4.093   4.023   1.763  2.4953 -2.9953  1.1845
   43MOL    H7913603   3.906   3.895   1.801  1.8936  2.0804 -0.5827
   43MOL    H8013604   3.836   3.718   1.645  2.1151 -0.9614  0.2144
   43MOL    H8113605   3.960   3.684   1.434  1.6282 -0.0701  0.0405
   43MOL    C8213606   4.297   3.657   1.435 -0.1655 -0.0837  0.0600
   43MOL    C8313607   4.423   3.600   1.368 -0.4641 -0.3648  0.0518
   43MOL    C8413608   4.530   3.709   1.375  0.0472 -0.2751 -0.2742
   43MOL    C8513609   4.550   3.786   1.261  0.4965 -0.0165  0.0513
   43MOL    C8613610   4.626   3.902   1.271 -0.2330  0.0317  0.1404
   43MOL    C8713611   4.694   3.938   1.390 -0.1331 -0.5507 -0.1366
   43MOL    C8813612   4.671   3.862   1.503  0.3621 -0.0783  0.1124
   43MOL    C8913613   4.591   3.747   1.496 -0.2650 -0.1192  0.2454
   43MOL    H9013614   4.223   3.579   1.450 -0.0341 -0.1697  0.2670
   43MOL    H9113615   4.328   3.682   1.537 -1.1379  0.0692  0.3240
   43MOL    H9213616   4.393   3.582   1.265 -1.1312 -1.4223  0.4244
   43MOL    H9313617   4.500   3.772   1.166 -0.9353  0.2981  0.7447
   43MOL    H9413618   4.631   3.971   1.188  0.7904 -0.0715  0.1037
   43MOL    H9513619   4.759   4.024   1.389  1.8936 -2.0057  2.1942
   43MOL    H9613620   4.709   3.888   1.601  2.8402  0.1397 -0.8661
   43MOL    H9713621   4.561   3.707   1.591 -2.4866  1.4943  0.2720
   43MOL    C9813622   4.469   3.469   1.436  0.1722  0.3840 -0.3754
   43MOL    C9913623   4.362   3.352   1.433 -0.1225 -0.7420 -0.1943
   43MOL   C10013624   4.325   3.318   1.287  0.3209 -0.2276  0.5969
   43MOL   C10113625   4.412   3.251   1.201 -0.1132  1.0823  0.5199
   43MOL   C10213626   4.385   3.227   1.062  0.7924 -0.9114 -0.1801
   43MOL   C10313627   4.263   3.276   1.012  0.2746 -0.0001  0.0748
   43MOL   C10413628   4.178   3.352   1.098 -0.5118 -0.3768 -0.6975
   43MOL   C10513629   4.203   3.366   1.236 -0.1986 -0.6529  0.8017
   43MOL   H10613630   4.488   3.484   1.543 -2.6956 -1.0653  0.3895
   43MOL   H10713631   4.562   3.437   1.389 -0.0531 -2.0342  0.8024
   43MOL   H10813632   4.272   3.375   1.490 -0.6325 -0.0432 -1.2598
   43MOL   H10913633   4.494   3.194   1.244  0.8523  1.5107 -0.7054
   43MOL   H11013634   4.451   3.160   1.008 -0.0627 -0.6417 -1.5859
   43MOL   H11113635   4.239   3.259   0.909  0.6031 -2.0498  0.3102
   43MOL   H11213636   4.100   3.411   1.052 -0.3120 -0.6327 -1.3585
   43MOL   H11313637   4.128   3.415   1.297  0.1641  0.0284  0.6941
   43MOL   C11413638   4.414   3.225   1.502  0.8631 -1.0011  0.0570
   43MOL   C11513639   4.323   3.095   1.497 -0.0422  0.2670  0.2412
   43MOL   C11613640   4.411   2.980   1.528  0.1333  0.5474 -0.6313
   43MOL   C11713641   4.458   2.958   1.655 -0.1570  1.0583  0.4497
   43MOL   C11813642   4.549   2.853   1.685  0.4154  0.3267  0.0275
   43MOL   C11913643   4.575   2.758   1.592 -0.0714  0.3511 -0.4930
   43MOL   C12013644   4.510   2.760   1.467  0.1650  0.4115  0.0585
   43MOL   C12113645   4.434   2.873   1.427 -0.2549 -0.3946 -0.1640
   43MOL   H12213646   4.446   3.250   1.603  1.9203 -2.6561  0.1512
   43MOL   H12313647   4.509   3.190   1.463  1.7501  0.1578  1.1486
   43MOL   H12413648   4.297   3.080   1.392  2.7405 -1.3567 -0.2767
   43MOL   H12513649   4.428   3.032   1.728 -1.9782  0.4346  0.3479
   43MOL   H12613650   4.598   2.840   1.780 -1.4487 -1.7211  0.7546
   43MOL   H12713651   4.657   2.689   1.605  1.2031  1.2065 -3.4989
   43MOL   H12813652   4.540   2.685   1.395  2.5837  0.3247  1.1012
   43MOL   H12913653   4.390   2.887   1.330 -2.9076 -0.0343  1.0411
   43MOL   C13013654   4.191   3.098   1.580 -0.3028  0.3317 -0.4006
   43MOL   C13113655   4.071   3.115   1.487 -0.1572 -0.1808  0.0186
   43MOL   C13213656   4.045   2.995   1.398  0.6068  0.7192  0.5203
   43MOL   C13313657   4.075   3.000   1.262 -0.8732 -0.2932  0.0877
   43MOL   C13413658   4.042   2.895   1.177 -0.5330 -0.0001  0.1694
   43MOL   C13513659   3.979   2.779   1.230 -1.0563  0.5489  0.0300
   43MOL   C13613660   3.938   2.780   1.363 -0.0740 -0.3785  0.3823
   43MOL   C13713661   3.981   2.881   1.447 -0.0794  0.0064 -0.0981
   43MOL   H13813662   4.198   3.186   1.645  0.6671 -0.1812  0.1972
   43MOL   H13913663   4.187   3.011   1.645  1.3102  1.3326  1.0887
   43MOL   H14013664   4.101   3.195   1.420 -0.2085 -1.0388 -1.0435
   43MOL   H14113665   4.106   3.098   1.231 -0.3469 -0.1172  1.1587
   43MOL   H14213666   4.061   2.889   1.070 -1.5660  2.2932 -0.1643
   43MOL   H14313667   3.948   2.703   1.160 -0.3757 -0.0485  0.3670
   43MOL   H14413668   3.891   2.688   1.394  1.8621 -1.6405 -0.3191
   43MOL   H14513669   3.958   2.879   1.553  1.5595 -0.7856  0.2627
   43MOL   C14613670   3.943   3.166   1.568 -0.3851  0.0843 -0.3407
   43MOL   C14713671   3.818   3.208   1.471  0.5339  0.3317 -0.1039
   43MOL   C14813672   3.686   3.168   1.538  0.0921 -0.2414  0.2850
   43MOL   C14913673   3.632   3.043   1.502 -0.1736 -0.0022 -1.0434
   43MOL   C15013674   3.510   3.007   1.555 -0.2262 -0.0956 -0.7830
   43MOL   C15113675   3.441   3.089   1.647  0.2200 -0.6954  0.5220
   43MOL   C15213676   3.498   3.205   1.691  0.1274  0.0764 -0.5623
   43MOL   C15313677   3.624   3.247   1.639  0.2006 -0.0110 -0.4453
   43MOL   H15413678   3.977   3.253   1.624 -0.4173  2.0779 -3.3029
   43MOL   H15513679   3.926   3.090   1.645 -1.1162  0.2713 -0.3129
   43MOL   H15613680   3.818   3.149   1.380 -2.9184 -3.0045  1.9142
   43MOL   H15713681   3.680   2.975   1.434  2.2132  1.7156 -1.1158
   43MOL   H15813682   3.460   2.912   1.540 -1.0994  0.0383  1.0891
   43MOL   H15913683   3.342   3.065   1.685 -0.6228  1.2815 -0.3679
   43MOL   H16013684   3.449   3.275   1.757 -1.0164  0.0562 -1.3896
   43MOL   H16113685   3.663   3.342   1.671 -2.6854  1.0424  0.0280
   43MOL   C16213686   3.817   3.363   1.428 -0.0497 -0.3962  0.1552
   43MOL   C16313687   3.732   3.367   1.298  0.0635 -0.3233 -0.1541
   43MOL   C16413688   3.657   3.502   1.285 -0.0761 -0.5482  1.1469
   43MOL   C16513689   3.517   3.512   1.298  0.1830  0.9589  0.3192
   43MOL   C16613690   3.447   3.632   1.284 -0.8306  0.2425  0.5416
   43MOL   C16713691   3.523   3.751   1.266 -0.1236  0.0227  0.3444
   43MOL   C16813692   3.665   3.747   1.265 -0.1962  0.0442  0.1083
   43MOL   C16913693   3.733   3.620   1.270  0.4130 -0.1518  0.0463
   43MOL   H17013694   3.917   3.400   1.404 -0.3703  0.3933  0.0235
   43MOL   H17113695   3.775   3.429   1.503  1.1066 -0.4256  0.8364
   43MOL   H17213696   3.647   3.299   1.303  0.0877 -0.3857 -0.6256
   43MOL   H17313697   3.460   3.429   1.337  1.8366 -1.1991 -1.6981
   43MOL   H17413698   3.340   3.632   1.291 -0.7682 -0.6501  1.5493
   43MOL   H17513699   3.470   3.845   1.260  2.2214  1.2679 -1.9435
   43MOL   H17613700   3.726   3.836   1.268 -0.6761  0.3158  2.8518
   43MOL   H17713701   3.840   3.612   1.269  0.3691 -0.8173  0.8474
   43MOL   C17813702   3.816   3.328   1.174 -0.0028  0.0306 -0.2225
   43MOL   C17913703   3.751   3.347   1.035  0.0758  0.2206  0.1344
   43MOL   C18013704   3.852   3.317   0.915  0.5859 -0.3198  0.2208
   43MOL   C18113705   3.881   3.413   0.817  0.1264  0.5109  0.3845
   43MOL   C18213706   3.978   3.387   0.718 -0.1742  0.0319 -0.3559
   43MOL   C18313707   4.045   3.265   0.721 -0.6432 -0.3490  0.0819
   43MOL   C18413708   4.022   3.165   0.815 -0.4190 -0.1375 -0.0134
   43MOL   C18513709   3.927   3.192   0.914  0.5738  0.1692  0.0143
   43MOL   H18613710   3.843   3.223   1.176  1.8232  0.4641 -0.9124
   43MOL   H18713711   3.906   3.390   1.173 -0.4580  0.7274  0.6131
   43MOL   H18813712   3.730   3.454   1.026 -1.0028 -0.0121 -0.1942
   43MOL   H18913713   3.827   3.506   0.823  0.5165  1.0249 -3.0577
   43MOL   H19013714   4.000   3.462   0.644 -2.0954  1.4053  0.4525
   43MOL   H19113715   4.118   3.245   0.644 -0.4494 -3.0056  0.8929
   43MOL   H19213716   4.070   3.069   0.812 -1.0710 -0.4412 -0.8494
   43MOL   H19313717   3.909   3.109   0.981 -0.3970  0.5509  0.2370
   43MOL   C19413718   3.611   3.281   1.012 -0.4278  0.0462  0.3108
   43MOL   C19513719   3.526   3.354   0.899  0.3328  0.0240  0.5008
   43MOL   C19613720   3.413   3.268   0.844  0.0944  0.3325 -0.5128
   43MOL   C19713721   3.435   3.187   0.731  0.4623  0.1114  0.2804
   43MOL   C19813722   3.338   3.102   0.679 -0.4847 -0.8065 -0.1196
   43MOL   C19913723   3.215   3.100   0.751  0.4521  0.0396  1.0538
   43MOL   C20013724   3.188   3.176   0.866  0.3712  0.4282  0.0620
   43MOL   C20113725   3.286   3.266   0.908 -0.1667  0.5023 -0.7821
   43MOL   H20213726   3.545   3.269   1.097 -0.1890 -0.7637  0.3877
   43MOL   H20313727   3.613   3.178   0.976 -2.4467  1.1834 -3.3555
   43MOL   H20413728   3.595   3.369   0.815  1.4825 -0.0365  1.4242
   43MOL   H20513729   3.535   3.169   0.694 -0.0652 -0.2895 -0.9831
   43MOL   H20613730   3.357   3.029   0.602 -1.7500  1.7871 -2.9885
   43MOL   H20713731   3.140   3.026   0.727  0.4104  0.7043 -0.8992
   43MOL   H20813732   3.092   3.163   0.915 -0.0326 -0.6408 -0.9991
   43MOL   H20913733   3.267   3.316   1.002  0.1214 -0.8726  0.0244
   43MOL   C21013734   3.478   3.497   0.941  0.3159  0.4178 -0.4121
   43MOL   C21113735   3.412   3.582   0.830 -0.2014  0.5660 -0.6691
   43MOL   C21213736   3.343   3.701   0.886  0.3644  0.1661  0.0863
   43MOL   C21313737   3.406   3.822   0.910 -0.1496 -0.0882  0.4393
   43MOL   C21413738   3.339   3.937   0.961  0.1109  0.7688 -0.4298
   43MOL   C21513739   3.204   3.925   1.000 -1.0599  0.0659  0.1273
   43MOL   C21613740   3.138   3.803   0.972 -0.2015 -0.0689  0.3797
   43MOL   C21713741   3.204   3.691   0.924 -0.5848 -0.0056  0.0968
   43MOL   H21813742   3.553   3.556   0.992  1.5210 -3.3549  2.3683
   43MOL   H21913743   3.405   3.472   1.018  1.1364  0.5384  0.4065
   43MOL   H22013744   3.323   3.531   0.794  0.1688  0.0215 -0.8168
   43MOL   H22113745   3.514   3.826   0.905 -0.2479  2.9207 -0.8464
   43MOL   H22213746   3.391   4.031   0.965  1.1605  0.2494 -1.5680
   43MOL   H22313747   3.165   4.016   1.044 -0.7462  0.5153 -0.5084
   43MOL   H22413748   3.036   3.796   1.008  0.0347 -0.8820  0.8878
   43MOL   H22513749   3.155   3.596   0.913  0.5897 -0.5728 -0.4007
   43MOL   C22613750   3.506   3.613   0.712  0.0067 -0.1343 -0.5491
   43MOL   C22713751   3.449   3.710   0.600 -0.1859 -0.5848  0.0569
   43MOL   C22813752   3.558   3.792   0.522  0.3047 -0.0147  0.2663
   43MOL   C22913753   3.569   3.931   0.551 -0.5885  0.4821 -0.4932
   43MOL   C23013754   3.679   3.997   0.495 -0.2439 -0.3310  0.2538
   43MOL   C23113755   3.772   3.923   0.409  0.1459  0.0323  0.3707
   43MOL   C23213756   3.759   3.792   0.372  0.1592  0.2392 -0.1727
   43MOL   C23313757   3.651   3.727   0.435 -0.5224  0.0124 -0.2053
   43MOL   H23413758   3.538   3.523   0.659 -0.0878  0.2914 -1.3437
   43MOL   H23513759   3.595   3.666   0.747 -0.5508  0.9368 -0.7200
   43MOL   H23613760   3.397   3.793   0.648  0.3339  0.8747 -1.8340
   43MOL   H23713761   3.511   3.979   0.628  0.1602  5.1088 -2.6122
   43MOL   H23813762   3.690   4.103   0.513 -1.7824 -0.3942  1.6310
   43MOL   H23913763   3.850   3.986   0.370 -0.3061  1.7606  2.1436
   43MOL   H24013764   3.831   3.742   0.310 -0.3897 -1.4396  0.5243
   43MOL   H24113765   3.646   3.620   0.431  2.1655 -0.1623  0.2715
   43MOL   C24213766   3.349   3.638   0.511 -0.7305  0.0661  0.0284
   43MOL   C24313767   3.281   3.719   0.397 -0.0200  0.4993 -0.0160
   43MOL   C24413768   3.234   3.633   0.283 -0.7821  0.3104 -0.4361
   43MOL   C24513769   3.124   3.548   0.295  0.2873  0.1893  0.5512
   43MOL   C24613770   3.098   3.462   0.188 -0.7326  0.1877  0.0675
   43MOL   C24713771   3.171   3.469   0.073  0.3305 -0.1176 -0.5910
   43MOL   C24813772   3.282   3.554   0.061 -0.4410  0.4714 -0.4950
   43MOL   C24913773   3.307   3.646   0.163  0.0021 -0.2093  0.1670
   43MOL   H25013774   3.267   3.584   0.559 -1.5053 -0.1252 -1.4584
   43MOL   H25113775   3.417   3.564   0.467 -0.1783 -0.0730  1.1174
   43MOL   H25213776   3.350   3.789   0.351  0.1758 -0.9553 -2.0116
   43MOL   H25313777   3.071   3.534   0.388  0.0632 -1.7352  0.1527
   43MOL   H25413778   3.015   3.393   0.199  0.0311 -0.8371 -0.4518
   43MOL   H25513779   3.145   3.418   8.096  0.5304 -1.5741  0.1386
   43MOL   H25613780   3.336   3.559   8.083  0.5593 -0.3317  0.0293
   43MOL   H25713781   3.389   3.715   0.149 -0.8955  0.4529 -2.0812
   43MOL   C25813782   3.183   3.807   0.468  0.5313 -0.0004 -0.0931
   43MOL   C25913783   3.084   3.872   0.382  0.0502 -0.1562 -0.6359
   43MOL   C26013784   2.973   3.927   0.470  0.5914 -0.2186 -0.3742
   43MOL   C26113785   3.000   4.021   0.568  0.1009 -0.4958  0.9168
   43MOL   C26213786   2.890   4.070   0.648  0.3566  0.5122  0.4268
   43MOL   C26313787   2.760   4.021   0.625  0.1746 -0.2563  0.0416
   43MOL   C26413788   2.730   3.919   0.532  0.7303  0.2167 -0.2397
   43MOL   C26513789   2.839   3.873   0.460  0.7140  0.0455 -0.3515
   43MOL   H26613790   3.233   3.883   0.528  1.1522 -0.9420  0.5882
   43MOL   H26713791   3.126   3.747   0.539  0.2328 -0.3984 -0.6644
   43MOL   H26813792   3.035   3.801   0.316 -1.4068  2.8761 -2.9351
   43MOL   H26913793   3.100   4.062   0.568 -0.2450  0.3940 -0.6727
   43MOL   H27013794   2.907   4.148   0.721  0.7543  1.7547 -0.9623
   43MOL   H27113795   2.677   4.067   0.676  0.2696  1.7873 -1.5969
   43MOL   H27213796   2.628   3.886   0.517  0.6079  1.3090 -1.9821
   43MOL   H27313797   2.817   3.795   0.389 -0.7131 -0.0454  0.1782
   43MOL   C27413798   3.153   3.976   0.287  0.4511  0.1137 -0.1861
   43MOL   C27513799   3.044   4.040   0.195 -0.6069  0.7221  0.1781
   43MOL   C27613800   3.009   4.175   0.245  0.0624 -0.1066 -0.5164
   43MOL   C27713801   3.105   4.279   0.252  0.0059 -0.1323  0.7195
   43MOL   C27813802   3.075   4.413   0.292 -0.4175  0.0004 -0.6448
   43MOL   C27913803   2.940   4.443   0.326 -0.0718 -0.2812  0.9064
   43MOL   C28013804   2.842   4.335   0.328  0.9203 -1.0530 -0.2141
   43MOL   C28113805   2.876   4.206   0.280  0.8588  0.4441 -0.6717
   43MOL   H28213806   3.230   3.928   0.227 -1.2193 -0.1252 -2.2003
   43MOL   H28313807   3.211   4.045   0.347 -0.4119  1.0740 -0.4328
   43MOL   H28413808   2.953   3.980   0.198 -0.5872  0.7139  0.6716
   43MOL   H28513809   3.204   4.247   0.224 -0.9142 -1.7632 -0.7571
   43MOL   H28613810   3.148   4.492   0.298 -1.9833  1.4739 -0.5436
   43MOL   H28713811   2.912   4.543   0.356  0.0208  0.0503 -0.0848
   43MOL   H28813812   2.741   4.356   0.361  0.8154 -2.6749  0.4992
   43MOL   H28913813   2.804   4.127   0.293  0.8986  0.6727  1.0989
   43MOL   C29013814   3.074   4.041   0.044 -0.4329 -0.5546  0.2665
   43MOL   C29113815   3.068   3.906   8.086  0.0400  0.9701 -0.0116
   43MOL   C29213816   2.931   3.847   8.082  0.8131  0.5179 -0.0758
   43MOL   C29313817   2.835   3.913   8.004 -0.4004 -0.4488 -0.4650
   43MOL   C29413818   2.697   3.895   8.023 -0.4654 -0.8745  0.2225
   43MOL   C29513819   2.660   3.795   0.004  0.1400  0.0206 -0.0713
   43MOL   C29613820   2.749   3.728   0.085 -0.3570  0.3263 -0.1214
   43MOL   C29713821   2.890   3.748   0.068  0.2786  0.2768  0.3191
   43MOL   H29813822   3.162   4.102   0.023 -1.4642  1.3112  1.3224
   43MOL   H29913823   3.006   4.117   0.006 -1.4240 -0.6828  1.7614
   43MOL   H30013824   3.135   3.845   0.031  0.4793  1.4619 -0.0019
   43MOL   H30113825   2.869   3.986   7.932 -0.3122 -0.5169 -0.4931
   43MOL   H30213826   2.620   3.942   7.963 -0.6761  0.1539  1.2879
   43MOL   H30313827   2.556   3.766   0.007  0.2366 -0.3484 -0.2558
   43MOL   H30413828   2.716   3.649   0.152 -0.0937  0.5652  0.2938
   43MOL   H30513829   2.963   3.704   0.134  1.0884 -0.8865 -1.3354
   43MOL   C30613830   3.135   3.900   7.941  0.1585 -0.1047  0.6094
   43MOL   C30713831   3.120   3.754   7.877 -0.0006 -0.7501  0.3107
   43MOL   C30813832   3.181   3.741   7.736  0.4406 -0.0087  0.0251
   43MOL   C30913833   3.320   3.713   7.727  0.0215 -0.2425 -0.0391
   43MOL   C31013834   3.381   3.684   7.604  0.4937  0.0732 -0.2967
   43MOL   C31113835   3.314   3.700   7.482  0.6991 -0.6306  0.3272
   43MOL   C31213836   3.174   3.729   7.492 -0.5846 -0.5328 -0.9745
   43MOL   C31313837   3.107   3.756   7.614 -0.3448  0.5489 -0.6394
   43MOL   H31413838   3.240   3.924   7.958  0.4482 -1.9275  1.5345
   43MOL   H31513839   3.097   3.968   7.865  0.2046 -0.5762  0.1612
   43MOL   H31613840   3.014   3.726   7.880 -0.2158  0.0728  0.5450
   43MOL   H31713841   3.378   3.699   7.817  0.1121 -1.0544 -0.2145
   43MOL   H31813842   3.480   3.644   7.611  0.3763 -0.0621  0.6211
   43MOL   H31913843   3.353   3.686   7.382 -0.6403 -0.7094 -0.2014
   43MOL   H32013844   3.136   3.755   7.394 -1.5107  1.5382 -0.0664
   43MOL   H32113845   3.003   3.786   7.622 -0.5537 -0.8527  2.7370
   43MOL   H32213846   3.169   3.677   7.936  1.2629  0.0217  0.2782
   44MOL     C113847   2.995   3.927   6.040 -0.5690 -0.1301 -0.4080
   44MOL     C213848   2.935   4.035   6.126 -0.8913 -0.0457  0.2613
   44MOL     C313849   2.812   3.993   6.209 -0.0103  0.0615 -0.2745
   44MOL     C413850   2.821   3.881   6.297  0.0933 -0.7192  0.9657
   44MOL     C513851   2.709   3.837   6.376 -0.8215  0.4703 -0.3391
   44MOL     C613852   2.588   3.906   6.352 -0.5334  0.7062  0.4591
   44MOL     C713853   2.584   4.017   6.268  0.1531 -0.7044  0.1794
   44MOL     C813854   2.697   4.064   6.195 -0.3640  0.5905 -0.2582
   44MOL     H913855   3.020   3.840   6.100  0.9433 -0.5075 -1.5492
   44MOL    H1013856   2.921   3.900   5.964 -0.2733  0.3569 -0.8763
   44MOL    H1113857   2.907   4.105   6.048  0.2380  0.2708  0.1259
   44MOL    H1213858   2.915   3.829   6.304  0.2431 -0.6082 -0.1305
   44MOL    H1313859   2.709   3.756   6.448 -2.1011 -0.6059 -1.5420
   44MOL    H1413860   2.499   3.875   6.404  1.0045  0.7795  3.1919
   44MOL    H1513861   2.489   4.068   6.270 -0.1891 -1.3204 -0.4379
   44MOL    H1613862   2.690   4.147   6.127 -2.1728  0.5240 -0.1847
   44MOL    H1713863   3.080   3.964   5.983 -2.2700  1.1602 -2.2126
   44MOL    C1813864   3.034   4.109   6.224  0.3689  0.0927 -0.2985
   44MOL    C1913865   3.134   4.197   6.152 -0.7978  0.0241 -0.2622
   44MOL    C2013866   3.073   4.304   6.060  0.1171  0.1577  0.8485
   44MOL    C2113867   3.089   4.305   5.916 -0.1744  0.2203  0.3698
   44MOL    C2213868   3.013   4.390   5.835  0.0859 -0.6161  0.4513
   44MOL    C2313869   2.922   4.477   5.892 -0.0080 -0.1651  1.1213
   44MOL    C2413870   2.897   4.474   6.031  0.2774 -0.0323  0.1842
   44MOL    C2513871   2.981   4.398   6.116  0.0196  0.3126  0.4640
   44MOL    H2613872   3.080   4.041   6.295  1.0907  0.4040 -0.4602
   44MOL    H2713873   2.978   4.178   6.287 -0.8980  0.8827 -2.2367
   44MOL    H2813874   3.194   4.127   6.095 -0.4254 -0.1015  0.2865
   44MOL    H2913875   3.168   4.238   5.885 -0.4044  0.7488 -1.4587
   44MOL    H3013876   3.031   4.387   5.729 -0.8220 -0.2531  0.2885
   44MOL    H3113877   2.863   4.538   5.825  1.0113 -0.9577 -0.5164
   44MOL    H3213878   2.820   4.537   6.073  2.6889  2.1705  1.4415
   44MOL    H3313879   2.960   4.394   6.222 -2.4451 -0.8058 -0.0198
   44MOL    C3413880   3.225   4.275   6.248 -0.1692 -0.0087  0.1945
   44MOL    C3513881   3.309   4.192   6.342 -0.4080  0.4109  0.3042
   44MOL    C3613882   3.403   4.086   6.283  0.0827  0.3037 -0.3136
   44MOL    C3713883   3.386   3.958   6.336 -0.2696 -1.0763 -0.1554
   44MOL    C3813884   3.491   3.864   6.310  0.8044  0.0647  0.2445
   44MOL    C3913885   3.599   3.889   6.230  0.5623 -0.1380  0.3884
   44MOL    C4013886   3.608   4.019   6.172 -0.5956 -0.3628  0.0199
   44MOL    C4113887   3.511   4.117   6.200  0.3459 -0.4712  0.3438
   44MOL    H4213888   3.168   4.348   6.306  0.3668  1.7601 -1.4226
   44MOL    H4313889   3.284   4.342   6.184  0.1892 -1.1217 -0.6598
   44MOL    H4413890   3.237   4.144   6.409 -0.6728  1.5419  0.8303
   44MOL    H4513891   3.302   3.938   6.401 -1.9155  0.6169 -1.6883
   44MOL    H4613892   3.477   3.770   6.362 -1.6500 -0.4582 -1.3060
   44MOL    H4713893   3.670   3.810   6.212  0.2233 -0.4626  0.4802
   44MOL    H4813894   3.695   4.040   6.112 -0.5340  1.1013  0.5898
   44MOL    H4913895   3.524   4.219   6.167 -0.7769 -0.3753  0.1594
   44MOL    C5013896   3.379   4.278   6.448 -0.2702 -0.5563  0.1125
   44MOL    C5113897   3.482   4.213   6.539  0.2455  0.8089 -1.1243
   44MOL    C5213898   3.585   4.323   6.574  0.3485  0.1269 -0.9133
   44MOL    C5313899   3.694   4.342   6.484  0.2585 -0.3973  0.5721
   44MOL    C5413900   3.787   4.442   6.503 -0.4363  0.2769 -0.7445
   44MOL    C5513901   3.771   4.532   6.615  0.1576  0.0936  0.3400
   44MOL    C5613902   3.665   4.523   6.699  0.4870  0.0374 -0.8384
   44MOL    C5713903   3.565   4.421   6.681  1.1059  0.7696 -0.1205
   44MOL    H5813904   3.306   4.335   6.506 -0.7606 -1.1007  0.0253
   44MOL    H5913905   3.439   4.347   6.388 -0.2097 -0.2319  0.5396
   44MOL    H6013906   3.548   4.151   6.480 -0.0905 -2.0416  1.3996
   44MOL    H6113907   3.697   4.272   6.401  1.1231  0.9641 -0.5719
   44MOL    H6213908   3.861   4.456   6.426  2.0609 -0.3309  1.4819
   44MOL    H6313909   3.839   4.614   6.633 -0.0246  0.3016  0.0752
   44MOL    H6413910   3.647   4.581   6.788  2.4091 -2.0872  0.9929
   44MOL    H6513911   3.480   4.409   6.746  0.6415 -1.8009 -1.1006
   44MOL    C6613912   3.430   4.130   6.665  0.1241  0.3027 -0.4856
   44MOL    C6713913   3.524   4.044   6.758  0.6159  0.0877  0.5426
   44MOL    C6813914   3.463   4.018   6.899  0.0670 -0.2943  0.6056
   44MOL    C6913915   3.337   3.950   6.902  0.3119 -0.0341  0.1668
   44MOL    C7013916   3.279   3.904   7.021  0.1901  0.4552  0.0446
   44MOL    C7113917   3.358   3.906   7.141  0.4474  0.5020  0.2496
   44MOL    C7213918   3.482   3.969   7.140 -0.8092  0.9477 -0.6456
   44MOL    C7313919   3.539   4.015   7.018  0.1811 -0.9604  0.2834
   44MOL    H7413920   3.341   4.074   6.634  0.4564 -0.7653  0.4267
   44MOL    H7513921   3.381   4.199   6.734 -3.2517 -2.4603  0.0136
   44MOL    H7613922   3.609   4.110   6.773  1.0153 -0.1963 -0.4229
   44MOL    H7713923   3.285   3.944   6.808  1.6027  0.1054 -0.5532
   44MOL    H7813924   3.184   3.853   7.012 -0.3912  1.4562  0.5424
   44MOL    H7913925   3.310   3.864   7.228  3.8576  0.8708  2.3936
   44MOL    H8013926   3.544   3.978   7.227 -0.3999 -0.6157 -0.7583
   44MOL    H8113927   3.635   4.065   7.015 -1.0155  1.4338  0.0446
   44MOL    C8213928   3.571   3.914   6.688  0.1249 -0.6691 -0.2320
   44MOL    C8313929   3.684   3.830   6.760  0.0360  0.4266 -0.3989
   44MOL    C8413930   3.691   3.685   6.711 -0.8472 -0.1863 -0.4733
   44MOL    C8513931   3.712   3.656   6.575  0.5018 -0.1994 -0.4027
   44MOL    C8613932   3.743   3.523   6.533 -1.4318 -0.7657 -0.5330
   44MOL    C8713933   3.748   3.418   6.624  0.3623  0.6100 -0.3670
   44MOL    C8813934   3.720   3.448   6.761 -1.1373 -0.0198  0.3173
   44MOL    C8913935   3.689   3.579   6.809 -0.6034 -0.1309  0.1408
   44MOL    H9013936   3.594   3.939   6.585  1.3107  1.7299  0.5634
   44MOL    H9113937   3.482   3.850   6.691  0.6773 -1.4002  0.8869
   44MOL    H9213938   3.659   3.820   6.866 -1.2838  0.9667 -0.6489
   44MOL    H9313939   3.728   3.737   6.506  0.6629 -0.7137 -0.9735
   44MOL    H9413940   3.764   3.504   6.429  0.8143 -1.0419 -0.0480
   44MOL    H9513941   3.776   3.316   6.601 -0.2700  0.0950  1.0730
   44MOL    H9613942   3.744   3.365   6.825  1.4830 -0.7929 -1.5854
   44MOL    H9713943   3.655   3.601   6.909  1.0160  2.7133  0.1182
   44MOL    C9813944   3.820   3.891   6.748 -0.7947  0.1715 -0.0258
   44MOL    C9913945   3.925   3.876   6.869 -0.0378  0.1334 -0.2179
   44MOL   C10013946   3.891   3.938   7.007  0.9130 -0.1827  0.2000
   44MOL   C10113947   3.934   4.069   7.036 -0.2282  0.1203 -0.1967
   44MOL   C10213948   3.912   4.128   7.158  0.1569  0.2744 -0.4543
   44MOL   C10313949   3.854   4.051   7.258  0.0032  0.0885 -0.3014
   44MOL   C10413950   3.801   3.920   7.236  0.1886 -0.0972 -0.1656
   44MOL   C10513951   3.823   3.866   7.106  1.1905  0.4447  0.3327
   44MOL   H10613952   3.802   3.998   6.734 -0.6577  0.3103  0.8563
   44MOL   H10713953   3.864   3.871   6.650  0.2557 -0.3656  0.5577
   44MOL   H10813954   4.008   3.938   6.835  2.3830 -1.6006  2.3023
   44MOL   H10913955   3.968   4.118   6.946  1.9246  0.3203  0.7060
   44MOL   H11013956   3.943   4.226   7.189  2.1206 -0.0075 -1.4436
   44MOL   H11113957   3.863   4.089   7.359  3.6511 -1.8034  0.1579
   44MOL   H11213958   3.779   3.851   7.317 -0.4084 -0.3148 -0.5084
   44MOL   H11313959   3.792   3.765   7.087 -2.2376  1.4432  0.2247
   44MOL   C11413960   3.977   3.733   6.870  0.1912 -0.3587 -0.2328
   44MOL   C11513961   4.110   3.712   6.949 -0.5776 -0.2793 -0.2676
   44MOL   C11613962   4.119   3.568   7.004 -0.3608  0.6371  0.1956
   44MOL   C11713963   4.116   3.541   7.143 -0.2045  0.6057  0.1245
   44MOL   C11813964   4.130   3.413   7.196  1.0597 -0.3409 -0.5451
   44MOL   C11913965   4.156   3.308   7.099 -0.6258 -0.0289 -0.4818
   44MOL   C12013966   4.157   3.328   6.958 -0.8951  0.1402 -0.4811
   44MOL   C12113967   4.137   3.461   6.917  0.8817  0.7023 -0.1185
   44MOL   H12213968   3.993   3.697   6.768 -0.0915 -1.7634  0.2014
   44MOL   H12313969   3.902   3.675   6.924  0.5704 -1.7634 -1.1847
   44MOL   H12413970   4.097   3.777   7.035  2.2519  0.5144 -0.4020
   44MOL   H12513971   4.107   3.614   7.222 -0.0593 -2.7002  3.3133
   44MOL   H12613972   4.138   3.399   7.302  0.3568  0.5040 -0.3693
   44MOL   H12713973   4.178   3.207   7.129 -1.9154 -0.1579  0.0745
   44MOL   H12813974   4.165   3.241   6.894  0.4314  0.2461 -0.4655
   44MOL   H12913975   4.125   3.474   6.810 -0.8732  1.2587  0.1254
   44MOL   C13013976   4.233   3.761   6.877  1.3059  0.1338 -0.2629
   44MOL   C13113977   4.368   3.745   6.948 -0.3317 -0.4642  0.4145
   44MOL   C13213978   4.439   3.613   6.922  0.4113 -0.4104 -0.2968
   44MOL   C13313979   4.440   3.519   7.021  0.7668  0.2998  0.2710
   44MOL   C13413980   4.507   3.396   7.000  0.1131 -0.2343 -0.6032
   44MOL   C13513981   4.553   3.361   6.874  0.5647  0.4719 -0.1438
   44MOL   C13613982   4.538   3.453   6.771  0.3128  0.1326 -0.4092
   44MOL   C13713983   4.486   3.583   6.799  0.3379  0.0582 -0.0718
   44MOL   H13813984   4.221   3.863   6.840  2.1553  0.3293 -0.0006
   44MOL   H13913985   4.243   3.695   6.791 -0.6273 -0.9920  0.3423
   44MOL   H14013986   4.349   3.747   7.056 -0.8324 -1.0686  0.3438
   44MOL   H14113987   4.417   3.555   7.120 -0.6374  0.6984 -0.1902
   44MOL   H14213988   4.522   3.334   7.087 -0.8051 -0.6222 -0.7150
   44MOL   H14313989   4.600   3.264   6.863  1.4768  0.7262  1.3989
   44MOL   H14413990   4.563   3.407   6.677 -2.8143 -0.8170 -0.8142
   44MOL   H14513991   4.482   3.660   6.723 -0.8308 -0.0848 -0.1616
   44MOL   C14613992   4.450   3.870   6.918 -0.2616 -0.4256 -0.1335
   44MOL   C14713993   4.397   4.000   6.988 -0.1773 -0.2253  0.1203
   44MOL   C14813994   4.389   3.988   7.142 -0.2826  0.1561  0.1955
   44MOL   C14913995   4.265   4.002   7.200 -0.5957 -0.4300 -0.3211
   44MOL   C15013996   4.241   4.010   7.339  0.4184 -0.1038 -0.2490
   44MOL   C15113997   4.353   3.999   7.422 -0.5707 -0.5218 -0.0215
   44MOL   C15213998   4.480   3.979   7.368 -0.9556  0.0364  0.3361
   44MOL   C15313999   4.499   3.966   7.230 -0.0451 -0.2061  0.3288
   44MOL   H15414000   4.437   3.880   6.810 -1.1323 -0.7567 -0.0594
   44MOL   H15514001   4.556   3.854   6.940 -1.1524 -2.1088  3.3230
   44MOL   H15614002   4.295   4.028   6.963  0.0070 -0.6761 -1.1286
   44MOL   H15714003   4.180   4.036   7.143 -0.4427 -1.6369 -1.2689
   44MOL   H15814004   4.144   4.043   7.373 -1.5807 -2.6933 -3.1675
   44MOL   H15914005   4.333   4.010   7.528 -1.9731 -2.6893 -0.0246
   44MOL   H16014006   4.560   3.968   7.439  0.2896  2.3543 -0.6190
   44MOL   H16114007   4.597   3.948   7.187 -0.1833 -0.3021  0.0531
   44MOL   C16214008   4.494   4.123   6.946 -0.5378  0.2061  0.2334
   44MOL   C16314009   4.483   4.169   6.798  0.2701 -0.6613 -0.0978
   44MOL   C16414010   4.340   4.191   6.749  0.0941  0.0317  0.4681
   44MOL   C16514011   4.270   4.308   6.787  0.0312 -0.0020 -0.2977
   44MOL   C16614012   4.130   4.315   6.755 -0.7956 -0.6022 -0.1256
   44MOL   C16714013   4.066   4.210   6.691  0.6127  0.7447 -0.0543
   44MOL   C16814014   4.138   4.095   6.661  0.5683  0.5188 -0.2693
   44MOL   C16914015   4.277   4.087   6.674  0.5844 -0.0879  0.3813
   44MOL   H17014016   4.596   4.104   6.982 -0.3503  1.6503  0.5156
   44MOL   H17114017   4.460   4.205   7.009 -1.8837 -0.0886 -0.0985
   44MOL   H17214018   4.518   4.078   6.748  0.6914 -0.2878 -0.4881
   44MOL   H17314019   4.319   4.386   6.843  0.4704 -1.2010  1.0212
   44MOL   H17414020   4.079   4.408   6.774  1.7299  0.6685  0.7764
   44MOL   H17514021   3.963   4.220   6.663  0.5576  0.3786  0.0148
   44MOL   H17614022   4.086   4.013   6.614  1.4629 -1.0632  1.4193
   44MOL   H17714023   4.319   3.991   6.648 -0.9859 -0.3237 -1.3391
   44MOL   C17814024   4.580   4.275   6.762 -0.4388  0.2731 -0.5666
   44MOL   C17914025   4.586   4.308   6.613  0.3695  0.3244  0.2444
   44MOL   C18014026   4.644   4.447   6.591  0.0341  0.4112 -0.5898
   44MOL   C18114027   4.571   4.554   6.530 -0.1557  0.8266  0.0853
   44MOL   C18214028   4.634   4.680   6.516 -0.0041  0.0712 -0.6050
   44MOL   C18314029   4.765   4.700   6.568  0.1429  0.0378 -0.0716
   44MOL   C18414030   4.836   4.594   6.629  0.5821 -0.2005  0.0711
   44MOL   C18514031   4.771   4.469   6.642 -0.3454 -0.3103 -0.4232
   44MOL   H18614032   4.674   4.250   6.812  0.7356  0.1754 -2.7512
   44MOL   H18714033   4.552   4.368   6.811  0.1821  0.0563  0.2104
   44MOL   H18814034   4.483   4.323   6.583 -0.4548 -1.2747  2.1002
   44MOL   H18914035   4.469   4.541   6.496 -0.0443  0.6592 -0.1834
   44MOL   H19014036   4.577   4.767   6.489  1.0437  0.3990 -1.7977
   44MOL   H19114037   4.812   4.797   6.558  1.4437 -0.5822 -0.0484
   44MOL   H19214038   4.931   4.612   6.677  1.2318  0.7885 -1.5434
   44MOL   H19314039   4.822   4.383   6.684  1.4211  0.7543 -0.3076
   44MOL   C19414040   4.637   4.194   6.520  0.1294 -0.0006 -0.3715
   44MOL   C19514041   4.637   4.231   6.368 -0.3322 -0.1805 -0.5235
   44MOL   C19614042   4.781   4.218   6.311 -0.2138 -0.3039  0.4398
   44MOL   C19714043   4.833   4.091   6.299 -0.1987 -0.4057  0.1910
   44MOL   C19814044   4.972   4.072   6.263  0.4942  1.1791  0.3459
   44MOL   C19914045   5.041   4.184   6.217 -0.2505  0.6988 -0.5643
   44MOL   C20014046   4.980   4.308   6.219 -0.3844 -0.0100  1.1860
   44MOL   C20114047   4.853   4.331   6.265 -0.3298 -0.1823 -0.3518
   44MOL   H20214048   4.580   4.104   6.541  0.4018 -0.1631 -0.3234
   44MOL   H20314049   4.740   4.177   6.551  0.6557  2.9809 -0.2679
   44MOL   H20414050   4.623   4.338   6.354  0.2607  0.0411  0.5492
   44MOL   H20514051   4.780   3.997   6.309  0.2509 -0.6955 -0.1797
   44MOL   H20614052   5.019   3.976   6.250 -2.6034 -0.3684  0.2912
   44MOL   H20714053   5.146   4.172   6.199  0.1491  3.3361 -0.1495
   44MOL   H20814054   5.035   4.397   6.195 -0.7177  0.1363  0.9616
   44MOL   H20914055   4.809   4.429   6.262  0.3185  0.1602  0.6810
   44MOL   C21014056   4.531   4.170   6.280 -0.3675 -0.4670 -0.0944
   44MOL   C21114057   4.377   4.198   6.307 -0.5019  1.1730 -0.8465
   44MOL   C21214058   4.339   4.340   6.325  0.1736 -0.7736 -0.2619
   44MOL   C21314059   4.379   4.441   6.233  0.2410 -0.1793 -0.4179
   44MOL   C21414060   4.340   4.574   6.253  0.4748 -0.3049 -0.1241
   44MOL   C21514061   4.246   4.604   6.351  0.1359 -0.4325  0.4713
   44MOL   C21614062   4.196   4.504   6.439  0.1136  0.5545 -0.6243
   44MOL   C21714063   4.245   4.376   6.426  0.6097 -0.0679  0.0756
   44MOL   H21814064   4.559   4.065   6.278 -0.9984 -0.6611  0.7838
   44MOL   H21914065   4.558   4.212   6.183 -0.8376  0.8779  0.3454
   44MOL   H22014066   4.351   4.147   6.400  3.0359  1.0054  0.1093
   44MOL   H22114067   4.451   4.414   6.157 -1.3847  0.3496 -2.1758
   44MOL   H22214068   4.381   4.650   6.189  0.5946  0.4248  0.8104
   44MOL   H22314069   4.212   4.706   6.349 -0.8307 -0.7612 -0.3244
   44MOL   H22414070   4.123   4.522   6.517 -0.8982 -2.2509 -0.8930
   44MOL   H22514071   4.212   4.301   6.496 -1.7340  1.3733  0.5765
   44MOL   C22614072   4.294   4.136   6.199  0.1202  0.7338 -0.7086
   44MOL   C22714073   4.300   3.983   6.164  0.0998  0.0075  0.1637
   44MOL   C22814074   4.235   3.897   6.269 -0.2191  0.3366 -0.5340
   44MOL   C22914075   4.317   3.825   6.358  0.2066  0.6082 -0.0444
   44MOL   C23014076   4.256   3.742   6.454 -0.0252  0.5034  0.2544
   44MOL   C23114077   4.118   3.734   6.468 -0.5065 -0.6046  0.6270
   44MOL   C23214078   4.035   3.788   6.368  0.7823 -0.2353  0.3160
   44MOL   C23314079   4.093   3.875   6.277 -0.2319  0.3458  0.7610
   44MOL   H23414080   4.309   4.201   6.113 -1.1115  2.6792  0.5067
   44MOL   H23514081   4.188   4.151   6.219  0.2185  0.2397  0.2320
   44MOL   H23614082   4.408   3.974   6.170  0.2085  1.2077  0.0676
   44MOL   H23714083   4.423   3.849   6.359  0.3846 -0.1338 -0.4104
   44MOL   H23814084   4.321   3.701   6.530  0.0405 -0.9077 -0.5446
   44MOL   H23914085   4.063   3.676   6.540 -1.1934 -1.3325 -0.4735
   44MOL   H24014086   3.928   3.779   6.355  0.4374  0.4348  2.5911
   44MOL   H24114087   4.025   3.918   6.206 -0.4394 -0.5935  0.3891
   44MOL   C24214088   4.249   3.957   6.019 -0.4292 -0.5918  0.5238
   44MOL   C24314089   4.252   3.808   5.973 -0.1507 -0.3628  0.1654
   44MOL   C24414090   4.144   3.760   5.880 -0.0319  0.2291 -0.8837
   44MOL   C24514091   4.079   3.847   5.790  0.1345  0.0350 -0.9827
   44MOL   C24614092   3.985   3.806   5.695 -0.2881 -0.0342 -0.5355
   44MOL   C24714093   3.949   3.666   5.702 -0.3647  0.3452  0.2030
   44MOL   C24814094   4.002   3.577   5.795 -0.1179  0.2120  0.2131
   44MOL   C24914095   4.103   3.620   5.881 -0.7224 -0.6162  0.7585
   44MOL   H25014096   4.299   4.016   5.943 -0.6431 -2.6670 -1.2811
   44MOL   H25114097   4.148   3.998   6.028  0.3568  1.2704  0.9518
   44MOL   H25214098   4.209   3.752   6.057  2.0662  1.3117  2.4832
   44MOL   H25314099   4.115   3.948   5.786 -0.2428  0.3215  1.8197
   44MOL   H25414100   3.952   3.866   5.612 -0.1610 -1.8249 -1.9231
   44MOL   H25514101   3.878   3.631   5.629 -1.6500  0.1748  1.5035
   44MOL   H25614102   3.977   3.472   5.800  3.2551 -0.6605  0.2854
   44MOL   H25714103   4.135   3.551   5.958  0.9478 -1.2088 -0.4386
   44MOL   C25814104   4.387   3.745   5.935  0.6907  0.0795 -0.3642
   44MOL   C25914105   4.437   3.765   5.797 -0.8640 -0.6602  0.4548
   44MOL   C26014106   4.507   3.901   5.772  0.1115 -0.7597  0.3572
   44MOL   C26114107   4.629   3.935   5.830  0.1574  0.3943 -0.2997
   44MOL   C26214108   4.704   4.049   5.784 -0.1160 -0.4977  0.0118
   44MOL   C26314109   4.652   4.141   5.694  0.5410 -0.3684  0.2722
   44MOL   C26414110   4.518   4.120   5.649 -1.1357  0.2665 -0.3797
   44MOL   C26514111   4.450   3.998   5.686  0.1390 -0.0969  0.4752
   44MOL   H26614112   4.389   3.639   5.962  3.1022  0.7862  2.5304
   44MOL   H26714113   4.461   3.787   6.003 -0.1458  3.1358 -1.2810
   44MOL   H26814114   4.347   3.761   5.735 -0.9815  2.1735  0.3861
   44MOL   H26914115   4.679   3.868   5.899  2.1053 -0.4512 -2.4606
   44MOL   H27014116   4.799   4.065   5.832 -0.2610 -2.1336  0.8504
   44MOL   H27114117   4.720   4.218   5.661 -0.8357 -0.5881 -3.3359
   44MOL   H27214118   4.467   4.195   5.591 -1.6435  0.5244  0.3975
   44MOL   H27314119   4.353   3.978   5.642  0.9082  0.2499 -1.4424
   44MOL   C27414120   4.529   3.640   5.753 -0.1941 -0.5586 -0.1972
   44MOL   C27514121   4.449   3.516   5.719 -0.3398  0.4716  0.7056
   44MOL   C27614122   4.410   3.531   5.569 -0.2128  0.1719  0.3556
   44MOL   C27714123   4.510   3.538   5.469 -0.7946 -0.2989  0.3700
   44MOL   C27814124   4.470   3.543   5.333 -0.5583 -0.1188 -0.5194
   44MOL   C27914125   4.335   3.542   5.300  0.5791 -0.2107  0.2265
   44MOL   C28014126   4.233   3.544   5.398 -0.2327 -0.3183 -0.1130
   44MOL   C28114127   4.272   3.525   5.532 -0.5872  0.2501 -0.3188
   44MOL   H28214128   4.592   3.633   5.842  0.7151 -2.7688 -1.0029
   44MOL   H28314129   4.598   3.672   5.676 -0.8370 -0.7755 -0.8673
   44MOL   H28414130   4.361   3.525   5.784 -3.0712  0.3112 -2.8171
   44MOL   H28514131   4.617   3.535   5.486 -0.3681 -0.0335 -2.0325
   44MOL   H28614132   4.547   3.542   5.257 -0.4265  0.1304 -0.3909
   44MOL   H28714133   4.298   3.548   5.199  0.0692 -2.2179  0.2753
   44MOL   H28814134   4.128   3.538   5.376 -0.7109 -0.2265  2.0825
   44MOL   H28914135   4.194   3.513   5.606  0.1881 -1.8057  0.1938
   44MOL   C29014136   4.525   3.383   5.746  0.2724  0.8496  0.2250
   44MOL   C29114137   4.555   3.335   5.888 -0.5425 -0.0801  0.1117
   44MOL   C29214138   4.428   3.330   5.977 -0.4592  0.2946  0.5568
   44MOL   C29314139   4.304   3.307   5.919 -0.3864  0.9125 -0.6466
   44MOL   C29414140   4.191   3.302   5.999  0.5573 -0.4498 -0.2595
   44MOL   C29514141   4.198   3.336   6.136 -0.4235 -0.2677 -0.1790
   44MOL   C29614142   4.324   3.358   6.192  0.7748  0.5520  0.6814
   44MOL   C29714143   4.443   3.356   6.115 -0.2704 -0.1608  0.3468
   44MOL   H29814144   4.617   3.378   5.688  0.6165  5.1259  0.2819
   44MOL   H29914145   4.469   3.302   5.699 -0.6630 -0.2281  3.0776
   44MOL   H30014146   4.638   3.388   5.934  0.7284 -1.8056 -0.1543
   44MOL   H30114147   4.291   3.278   5.816  1.1190 -0.7726 -0.3742
   44MOL   H30214148   4.102   3.258   5.956  0.2203  0.1680 -0.2135
   44MOL   H30314149   4.107   3.334   6.194 -0.5423 -0.2411 -0.3607
   44MOL   H30414150   4.321   3.364   6.300  0.5889 -0.5951  0.7495
   44MOL   H30514151   4.534   3.393   6.159  0.0890 -3.0624  2.1996
   44MOL   C30614152   4.623   3.202   5.888  0.1996 -0.0417 -0.1088
   44MOL   C30714153   4.685   3.158   6.024 -0.6858  0.2203 -0.3976
   44MOL   C30814154   4.761   3.022   6.017 -0.5164 -0.3503  0.4042
   44MOL   C30914155   4.863   3.002   5.928 -0.6962  0.4644  0.1516
   44MOL   C31014156   4.950   2.891   5.939  0.9783 -0.7987  0.8250
   44MOL   C31114157   4.934   2.795   6.039 -0.3816 -0.1132 -0.2503
   44MOL   C31214158   4.822   2.807   6.120  0.1843  0.7752 -0.2836
   44MOL   C31314159   4.736   2.920   6.117 -0.1931 -0.2835  0.2307
   44MOL   H31414160   4.703   3.215   5.816  0.2429 -0.2498 -0.0988
   44MOL   H31514161   4.556   3.126   5.846  0.2244  0.7042 -1.5432
   44MOL   H31614162   4.614   3.148   6.106  1.8462 -1.5973  1.6854
   44MOL   H31714163   4.882   3.068   5.845  2.8837  2.0788  2.1375
   44MOL   H31814164   5.035   2.882   5.873  0.1345  0.2560 -0.4353
   44MOL   H31914165   4.996   2.707   6.045 -0.2403 -0.1976 -2.6146
   44MOL   H32014166   4.818   2.737   6.202 -0.9393  0.0342 -0.9579
   44MOL   H32114167   4.663   2.932   6.195  0.8387  1.1555  1.0070
   44MOL   H32214168   4.748   3.237   6.067  1.4609 -1.7928  0.2786
   45MOL     C114169   3.295   0.252   3.177 -0.0865 -0.1180 -0.1338
   45MOL     C214170   3.170   0.174   3.127 -1.0654  0.3196 -0.4282
   45MOL     C314171   3.214   0.035   3.079 -0.4995  0.8453 -0.4682
   45MOL     C414172   3.241   8.115   2.942 -0.0849  0.2234  0.0531
   45MOL     C514173   3.294   7.993   2.910  0.1439  0.7309 -0.2737
   45MOL     C614174   3.330   7.899   3.007  0.3730  0.3695  0.3874
   45MOL     C714175   3.314   7.931   3.144 -0.2593 -1.0614  0.5057
   45MOL     C814176   3.257   8.057   3.178  0.7321 -0.0612 -0.0350
   45MOL     H914177   3.348   0.199   3.256 -0.9440  0.8844  1.1163
   45MOL    H1014178   3.366   0.281   3.099  1.1837 -0.1806  0.9758
   45MOL    H1114179   3.141   0.226   3.036 -1.8744  1.3433  0.4024
   45MOL    H1214180   3.204   0.066   2.865 -0.0232 -0.6996 -0.7845
   45MOL    H1314181   3.299   7.972   2.804 -0.3743  0.6909 -0.2918
   45MOL    H1414182   3.372   7.803   2.983  0.8463  0.9718 -1.2028
   45MOL    H1514183   3.357   7.873   3.224  0.0493 -1.0077  0.3810
   45MOL    H1614184   3.252   8.088   3.282 -0.7904 -0.0305 -0.1087
   45MOL    H1714185   3.260   0.340   3.229 -0.6457 -0.5016  0.1474
   45MOL    C1814186   3.047   0.187   3.211 -0.3869  0.0336  0.4405
   45MOL    C1914187   2.949   0.076   3.185 -0.9029 -0.0049  0.3923
   45MOL    C2014188   2.831   0.082   3.280  0.2061 -0.6922 -0.1310
   45MOL    C2114189   2.850   0.048   3.420  0.2010 -0.7071  0.3709
   45MOL    C2214190   2.741   0.022   3.507  0.0045 -0.0665  0.2748
   45MOL    C2314191   2.615   0.025   3.457  0.4476  0.1641 -0.0000
   45MOL    C2414192   2.591   0.070   3.326  0.2754 -0.1976  0.2883
   45MOL    C2514193   2.699   0.102   3.237  0.0712  0.3994 -0.2491
   45MOL    H2614194   2.997   0.283   3.194 -0.9942 -0.1572  1.1502
   45MOL    H2714195   3.080   0.172   3.314 -1.9361 -1.2575  0.7707
   45MOL    H2814196   3.003   8.098   3.208 -0.2714  0.0620 -0.7755
   45MOL    H2914197   2.951   0.038   3.458  1.0267  1.4215 -1.1333
   45MOL    H3014198   2.760   8.102   3.607  1.3533  1.8575  0.7089
   45MOL    H3114199   2.531   0.009   3.523 -0.4153  2.1122 -0.5998
   45MOL    H3214200   2.493   0.061   3.280  0.2873 -2.0761  0.5889
   45MOL    H3314201   2.672   0.136   3.138  2.9151  0.3502 -1.0833
   45MOL    C3414202   2.906   0.072   3.035 -0.6839 -0.7469 -0.6272
   45MOL    C3514203   2.835   8.057   2.990  0.2636 -0.5364  0.0123
   45MOL    C3614204   2.742   8.084   2.878 -0.1637 -0.0949 -0.6245
   45MOL    C3714205   2.615   8.027   2.888  0.5452 -0.1926 -0.2720
   45MOL    C3814206   2.509   8.056   2.799 -0.2793 -0.5795  0.0211
   45MOL    C3914207   2.545   0.025   2.692  0.2342 -1.0272 -0.5591
   45MOL    C4014208   2.673   0.084   2.673 -0.0630 -0.4915  0.1371
   45MOL    C4114209   2.778   0.050   2.768 -0.1137  0.2232 -0.1781
   45MOL    H4214210   2.994   0.077   2.971  0.0849  2.5371  0.5805
   45MOL    H4314211   2.849   0.163   3.015 -0.4180 -0.4700 -0.1362
   45MOL    H4414212   2.777   8.015   3.072 -1.0560 -1.4598 -1.3691
   45MOL    H4514213   2.604   7.953   2.966 -1.4942 -0.1996 -0.5548
   45MOL    H4614214   2.414   8.004   2.794 -0.6924  0.0954  0.6808
   45MOL    H4714215   2.470   0.057   2.621 -0.7112  2.0775  1.7131
   45MOL    H4814216   2.687   0.144   2.585  0.5755 -0.7406  0.0679
   45MOL    H4914217   2.876   0.093   2.753 -0.0817  0.0655 -0.4231
   45MOL    C5014218   2.938   7.946   2.958  0.3488 -0.6806 -0.0893
   45MOL    C5114219   2.888   7.811   2.898 -0.3517  1.1097  0.0770
   45MOL    C5214220   3.006   7.750   2.828 -0.0675  0.2095  0.1436
   45MOL    C5314221   3.005   7.747   2.690 -0.4909 -0.6221 -0.4090
   45MOL    C5414222   3.105   7.691   2.611 -0.6501 -0.2766 -0.0907
   45MOL    C5514223   3.210   7.627   2.679  0.5538 -0.1554 -0.2426
   45MOL    C5614224   3.212   7.623   2.819  0.2098  0.3200 -0.2055
   45MOL    C5714225   3.108   7.682   2.898  0.3420  0.5209  0.0869
   45MOL    H5814226   3.011   7.944   3.039  0.7900  0.1461 -0.4589
   45MOL    H5914227   2.999   7.991   2.880 -0.2663 -0.3986 -0.4135
   45MOL    H6014228   2.813   7.842   2.825  0.0611  1.0490 -0.3782
   45MOL    H6114229   2.927   7.793   2.630  1.1531  2.9766  0.0712
   45MOL    H6214230   3.098   7.703   2.504 -0.4696  0.7509  0.0121
   45MOL    H6314231   3.288   7.581   2.620  1.4981  0.5863  0.4200
   45MOL    H6414232   3.282   7.568   2.879 -0.2793 -0.9635 -0.8004
   45MOL    H6514233   3.106   7.680   3.006  1.3829 -0.7846  0.0931
   45MOL    C6614234   2.827   7.713   2.996  0.6664  0.5825  0.3361
   45MOL    C6714235   2.799   7.570   2.941 -0.2742 -0.1553 -0.1998
   45MOL    C6814236   2.778   7.466   3.049  0.9829 -0.5502 -0.6161
   45MOL    C6914237   2.705   7.498   3.164  0.9424  0.2293 -0.5462
   45MOL    C7014238   2.687   7.400   3.265  0.1654 -1.2133  0.1757
   45MOL    C7114239   2.743   7.271   3.252 -0.1085  0.5582 -0.5491
   45MOL    C7214240   2.821   7.243   3.142  0.3274  0.5682  0.1248
   45MOL    C7314241   2.842   7.342   3.041 -0.1035  1.1306  0.8401
   45MOL    H7414242   2.733   7.754   3.034  0.2993  0.5164 -0.4961
   45MOL    H7514243   2.892   7.699   3.083 -3.4237 -1.8449  3.1992
   45MOL    H7614244   2.883   7.523   2.889 -0.0082  1.7766 -1.5700
   45MOL    H7714245   2.645   7.588   3.172  1.9327  1.0669 -2.2857
   45MOL    H7814246   2.613   7.419   3.342  0.7047  1.2835  0.1484
   45MOL    H7914247   2.723   7.199   3.330 -0.4828  1.5240  0.2549
   45MOL    H8014248   2.863   7.145   3.126  0.0436  0.2631  1.2294
   45MOL    H8114249   2.891   7.314   2.949 -2.9774 -1.0467 -0.0982
   45MOL    C8214250   2.684   7.588   2.837 -0.3638 -0.0646  0.4463
   45MOL    C8314251   2.628   7.471   2.754  0.5788  0.0607  0.8583
   45MOL    C8414252   2.737   7.400   2.674  0.2292  0.2656 -0.1206
   45MOL    C8514253   2.822   7.469   2.584 -0.5917  0.7572 -0.2659
   45MOL    C8614254   2.946   7.419   2.538  0.4565 -0.2553 -0.7468
   45MOL    C8714255   2.972   7.284   2.567 -0.3282 -0.9412  0.5473
   45MOL    C8814256   2.887   7.209   2.650 -0.5918  0.2004 -0.3059
   45MOL    C8914257   2.775   7.269   2.707  0.6277 -0.3430  0.0444
   45MOL    H9014258   2.718   7.666   2.768 -0.8788  0.2960  0.5965
   45MOL    H9114259   2.600   7.632   2.890 -1.3812 -0.0391 -1.1330
   45MOL    H9214260   2.565   7.511   2.675 -0.4461 -0.0621  1.5998
   45MOL    H9314261   2.787   7.567   2.554 -0.8157 -0.1528 -3.1256
   45MOL    H9414262   3.006   7.464   2.461 -1.7151 -0.5006 -2.6334
   45MOL    H9514263   3.055   7.226   2.529 -1.7388 -0.9140 -2.7464
   45MOL    H9614264   2.906   7.110   2.689  0.8123  0.0675 -1.2926
   45MOL    H9714265   2.730   7.195   2.772  4.7662 -3.5033 -0.3986
   45MOL    C9814266   2.536   7.378   2.841  0.1204 -0.5133  0.2044
   45MOL    C9914267   2.413   7.436   2.903 -0.0577 -0.4103  0.2118
   45MOL   C10014268   2.314   7.437   2.780 -0.0798 -0.8420 -0.1547
   45MOL   C10114269   2.217   7.339   2.764  0.0871 -0.4127  0.0019
   45MOL   C10214270   2.123   7.344   2.661 -0.1516 -0.5238  0.6143
   45MOL   C10314271   2.134   7.450   2.569  0.4284 -0.1871 -0.2472
   45MOL   C10414272   2.229   7.555   2.585  0.2936  0.6716  0.1028
   45MOL   C10514273   2.319   7.552   2.693 -0.5807 -0.1701  0.0526
   45MOL   H10614274   2.594   7.337   2.923 -0.0753  0.4061  0.8098
   45MOL   H10714275   2.512   7.295   2.775 -1.4749  2.5790 -3.3131
   45MOL   H10814276   2.421   7.538   2.941 -2.2967 -0.5388  1.1303
   45MOL   H10914277   2.208   7.254   2.831  0.4461  1.0367  1.9488
   45MOL   H11014278   2.047   7.269   2.644 -0.1200 -0.2184 -0.9369
   45MOL   H11114279   2.068   7.463   2.484 -0.4111 -0.1603  0.4098
   45MOL   H11214280   2.233   7.641   2.520  2.0822 -0.5032 -1.4113
   45MOL   H11314281   2.398   7.621   2.717 -0.4052 -0.8613  1.5125
   45MOL   C11414282   2.369   7.354   3.028  0.1572  0.1599  0.2957
   45MOL   C11514283   2.259   7.423   3.115  0.3709  0.4446 -0.1328
   45MOL   C11614284   2.145   7.318   3.150 -0.0943  0.5001 -0.3543
   45MOL   C11714285   2.041   7.290   3.063  0.3579 -0.0531  0.6197
   45MOL   C11814286   1.933   7.206   3.103 -0.9781 -0.2599 -0.6763
   45MOL   C11914287   1.941   7.134   3.223  0.5875  0.0707 -0.0295
   45MOL   C12014288   2.060   7.139   3.297  0.0655  1.2805  0.0724
   45MOL   C12114289   2.157   7.234   3.263 -0.5070 -0.2771  0.4223
   45MOL   H12214290   2.455   7.329   3.090  0.1564 -0.3248  0.1008
   45MOL   H12314291   2.338   7.254   2.997 -2.3118  1.1589 -0.5301
   45MOL   H12414292   2.215   7.501   3.053  0.4026 -0.0381 -0.7693
   45MOL   H12514293   2.017   7.355   2.979  0.3766 -0.1308  0.5548
   45MOL   H12614294   1.843   7.191   3.046 -0.0394 -2.4975 -1.5948
   45MOL   H12714295   1.858   7.071   3.252 -2.5216  2.8823 -2.4451
   45MOL   H12814296   2.081   7.076   3.383  0.1504 -1.3162 -1.7945
   45MOL   H12914297   2.244   7.236   3.328  0.1911 -0.2594 -0.5022
   45MOL   C13014298   2.323   7.505   3.232 -1.0740 -0.1826  0.2173
   45MOL   C13114299   2.231   7.584   3.328 -0.0107  0.1546 -0.1640
   45MOL   C13214300   2.303   7.618   3.458 -0.3199 -0.4263 -0.0284
   45MOL   C13314301   2.268   7.549   3.577 -0.1815 -0.0728 -0.0265
   45MOL   C13414302   2.343   7.571   3.693 -0.2472 -0.1324  0.1040
   45MOL   C13514303   2.443   7.667   3.696  0.1731  0.5525 -0.7984
   45MOL   C13614304   2.483   7.730   3.578 -1.2726  0.0307 -0.3148
   45MOL   C13714305   2.424   7.695   3.455 -0.5045  0.4874  0.3883
   45MOL   H13814306   2.389   7.571   3.176  0.5984 -2.0576 -0.0829
   45MOL   H13914307   2.378   7.445   3.305 -0.5806  0.5583  0.4599
   45MOL   H14014308   2.147   7.517   3.348  0.5150 -0.7103 -0.8696
   45MOL   H14114309   2.187   7.478   3.579 -0.6779  0.4342 -1.7935
   45MOL   H14214310   2.311   7.515   3.780  1.6258 -0.6087  0.5082
   45MOL   H14314311   2.489   7.681   3.793  1.5545 -1.4888 -1.1009
   45MOL   H14414312   2.561   7.805   3.582 -0.5838 -0.5743 -2.1074
   45MOL   H14514313   2.461   7.727   3.359  0.6300  0.5198  0.8260
   45MOL   C14614314   2.180   7.721   3.271 -0.2816  0.0462 -0.2430
   45MOL   C14714315   2.036   7.714   3.211 -0.6400 -0.4798  0.0783
   45MOL   C14814316   1.922   7.702   3.310 -0.2815 -0.3161  0.5715
   45MOL   C14914317   1.885   7.572   3.361  0.0776  0.6501  0.2500
   45MOL   C15014318   1.789   7.556   3.456  0.0987  0.1184 -0.4247
   45MOL   C15114319   1.742   7.668   3.526 -0.7828  0.6253 -0.0696
   45MOL   C15214320   1.781   7.797   3.486 -0.8409  0.1580  0.4065
   45MOL   C15314321   1.869   7.813   3.379 -0.2111 -0.0505  0.0829
   45MOL   H15414322   2.254   7.755   3.199  0.5614  1.3336  1.1899
   45MOL   H15514323   2.158   7.796   3.348  1.8416  0.9682 -0.4959
   45MOL   H15614324   2.030   7.620   3.157 -2.5964  0.4106 -1.3020
   45MOL   H15714325   1.919   7.480   3.316 -1.3730 -0.1784  0.8049
   45MOL   H15814326   1.749   7.462   3.492  0.5454  0.0662 -0.0646
   45MOL   H15914327   1.697   7.655   3.623 -1.5103 -2.3158 -0.7566
   45MOL   H16014328   1.745   7.883   3.540  0.9257  2.2372 -1.6022
   45MOL   H16114329   1.888   7.916   3.350  1.1519 -0.9886 -2.5026
   45MOL   C16214330   2.009   7.827   3.109 -0.3263  0.0113 -0.2543
   45MOL   C16314331   1.883   7.806   3.025 -0.1902  0.0260 -0.2783
   45MOL   C16414332   1.850   7.937   2.952  0.0407  0.2090  0.1213
   45MOL   C16514333   1.946   8.008   2.873 -1.0700 -0.0001 -0.9748
   45MOL   C16614334   1.917   0.018   2.817 -0.9069 -0.1873  0.5679
   45MOL   C16714335   1.794   0.073   2.837 -0.2593 -0.1750 -0.1581
   45MOL   C16814336   1.696   8.114   2.908  0.0751 -0.2790 -0.2553
   45MOL   C16914337   1.727   7.988   2.970  0.5198 -0.6473 -0.8658
   45MOL   H17014338   2.086   7.808   3.034 -0.6308 -1.4165 -0.2223
   45MOL   H17114339   2.014   7.927   3.152 -1.9051 -0.5718  1.3336
   45MOL   H17214340   1.804   7.789   3.099  0.6154 -0.1447  0.5490
   45MOL   H17314341   2.042   7.962   2.861 -0.0920  2.3430 -2.6407
   45MOL   H17414342   1.984   0.067   2.747 -2.7652 -0.9925 -1.8287
   45MOL   H17514343   1.767   0.166   2.788  1.2528  1.2862  1.7389
   45MOL   H17614344   1.594   0.035   2.917  1.1252  3.2976 -1.4785
   45MOL   H17714345   1.650   7.936   3.026  2.4630 -1.2901  1.2801
   45MOL   C17814346   1.885   7.689   2.929  0.0125 -0.2379 -0.1235
   45MOL   C17914347   1.741   7.623   2.912  0.8166  0.4083  0.0316
   45MOL   C18014348   1.712   7.570   2.771  0.1212  0.4292  0.1526
   45MOL   C18114349   1.634   7.652   2.683  0.0456 -0.7093 -0.1065
   45MOL   C18214350   1.614   7.612   2.549  0.6378  0.4817 -0.3587
   45MOL   C18314351   1.665   7.493   2.510 -0.2691  0.2420  0.3564
   45MOL   C18414352   1.738   7.412   2.599  0.4347  0.2425  0.2870
   45MOL   C18514353   1.761   7.446   2.731 -0.2678 -1.1855 -0.3515
   45MOL   H18614354   1.953   7.609   2.958  1.2214  1.2814  1.3154
   45MOL   H18714355   1.923   7.724   2.834  0.7571 -0.2401  0.1724
   45MOL   H18814356   1.674   7.709   2.923 -0.4907 -0.4686 -0.9539
   45MOL   H18914357   1.587   7.743   2.717 -0.9220 -1.1423 -0.2594
   45MOL   H19014358   1.556   7.662   2.472 -0.6484  3.6414  2.5090
   45MOL   H19114359   1.642   7.461   2.410  1.8036  0.1864 -0.1174
   45MOL   H19214360   1.765   7.315   2.560 -0.0548 -0.4045  1.5310
   45MOL   H19314361   1.813   7.379   2.797 -1.1981 -0.9594  0.6309
   45MOL   C19414362   1.713   7.516   3.024  0.0597  0.2697 -0.1412
   45MOL   C19514363   1.570   7.460   3.031  0.2306  0.6142  0.1780
   45MOL   C19614364   1.568   7.339   3.118  0.4923 -0.2708 -0.6779
   45MOL   C19714365   1.589   7.351   3.254 -0.1750  0.0382 -1.0808
   45MOL   C19814366   1.578   7.237   3.339  0.3186  0.5319  0.8368
   45MOL   C19914367   1.551   7.106   3.276  0.7220 -0.3915 -0.3485
   45MOL   C20014368   1.539   7.093   3.135  0.0003  1.2478  0.1840
   45MOL   C20114369   1.543   7.211   3.055  0.4958  0.2233 -0.5716
   45MOL   H20214370   1.732   7.562   3.122 -0.3884  2.0360 -0.8670
   45MOL   H20314371   1.783   7.434   3.012  0.6741  0.6053  1.0401
   45MOL   H20414372   1.544   7.419   2.934 -0.2457 -0.6573  0.8395
   45MOL   H20514373   1.608   7.449   3.296 -2.5574 -0.5458  1.4686
   45MOL   H20614374   1.589   7.241   3.446  1.1223 -0.5377  0.8011
   45MOL   H20714375   1.537   7.018   3.337 -0.7532  0.8306  1.0934
   45MOL   H20814376   1.523   6.998   3.086  0.0060  0.9153  0.8208
   45MOL   H20914377   1.518   7.203   2.950 -0.7030 -0.5482 -0.2313
   45MOL   C21014378   1.462   7.564   3.058 -0.5370  0.2497 -0.4600
   45MOL   C21114379   1.314   7.503   3.092  0.1442 -0.2670 -0.8597
   45MOL   C21214380   1.280   7.526   3.244 -0.2151 -0.4677  0.1396
   45MOL   C21314381   1.290   7.655   3.307 -0.2105 -0.3680 -0.2168
   45MOL   C21414382   1.247   7.673   3.442  0.0159 -0.1354 -0.2299
   45MOL   C21514383   1.201   7.562   3.517 -0.5346  0.1449  0.3212
   45MOL   C21614384   1.200   7.437   3.450  0.3374 -0.2564 -0.6986
   45MOL   C21714385   1.230   7.418   3.318  0.3214 -0.9062  0.3853
   45MOL   H21814386   1.457   7.642   2.983 -0.0063 -0.3621 -1.1403
   45MOL   H21914387   1.493   7.611   3.151  0.3096  1.9503 -1.5803
   45MOL   H22014388   1.309   7.394   3.081 -1.1276 -0.4200  1.0350
   45MOL   H22114389   1.335   7.738   3.253 -1.4520  1.1988  1.0825
   45MOL   H22214390   1.243   7.771   3.488 -1.8505  0.2354 -1.1316
   45MOL   H22314391   1.151   7.577   3.611 -0.6732  0.8968  0.1339
   45MOL   H22414392   1.159   7.346   3.491 -2.1043  0.9792 -0.2618
   45MOL   H22514393   1.217   7.316   3.283  0.5494 -0.1712 -1.9169
   45MOL   C22614394   1.197   7.553   3.005 -0.3287 -0.1600  0.0336
   45MOL   C22714395   1.223   7.529   2.855 -0.2280  0.1949  0.7415
   45MOL   C22814396   1.269   7.391   2.808  0.2744 -1.2313 -0.0533
   45MOL   C22914397   1.373   7.375   2.713 -0.7218 -0.6514  0.5571
   45MOL   C23014398   1.404   7.244   2.662  0.2107 -0.0053 -0.5239
   45MOL   C23114399   1.334   7.134   2.710 -0.1635  0.5036 -0.1684
   45MOL   C23214400   1.232   7.148   2.800  0.5242  0.3209  1.0268
   45MOL   C23314401   1.198   7.275   2.853 -0.0924  0.0146  0.0113
   45MOL   H23414402   1.187   7.658   3.032 -0.3882  0.7743 -3.3583
   45MOL   H23514403   1.102   7.504   3.024  0.2713 -1.3761 -0.0192
   45MOL   H23614404   1.302   7.592   2.815  0.2636 -0.1084  1.2358
   45MOL   H23714405   1.417   7.462   2.667  1.1584 -1.5795  0.5783
   45MOL   H23814406   1.474   7.231   2.581 -0.0692 -2.0374 -0.4607
   45MOL   H23914407   1.359   7.038   2.668  1.4849  1.5136 -1.5560
   45MOL   H24014408   1.167   7.064   2.820  0.4526 -0.5756 -2.5976
   45MOL   H24114409   1.111   7.281   2.917  0.5585 -1.0029  1.0115
   45MOL   C24214410   1.095   7.567   2.775 -0.7367 -0.2593 -0.1159
   45MOL   C24314411   1.057   7.713   2.805 -0.2408  0.2343  0.0721
   45MOL   C24414412   1.174   7.805   2.776 -0.5759  0.1307  0.6651
   45MOL   C24514413   1.228   7.885   2.883  0.7548  0.4169 -0.3526
   45MOL   C24614414   1.344   7.963   2.864  0.1147  0.7847  0.4747
   45MOL   C24714415   1.391   7.975   2.733 -0.2081  0.0305 -0.6317
   45MOL   C24814416   1.335   7.897   2.628 -0.4513  0.7624 -0.5026
   45MOL   C24914417   1.231   7.809   2.651 -0.4308  0.2829  0.2273
   45MOL   H25014418   1.018   7.495   2.805 -0.1409 -0.4968  0.8761
   45MOL   H25114419   1.114   7.563   2.668 -0.2724 -0.7464 -0.0148
   45MOL   H25214420   1.036   7.729   2.910  3.5020  0.9315  0.7652
   45MOL   H25314421   1.182   7.889   2.981  0.5348  2.2102 -0.5008
   45MOL   H25414422   1.391   8.007   2.951 -1.2203 -1.6897  2.5561
   45MOL   H25514423   1.481   8.034   2.726  0.9946 -1.5521  1.1370
   45MOL   H25614424   1.371   7.901   2.526  2.1096  0.0865  0.3262
   45MOL   H25714425   1.178   7.754   2.575  0.5271 -1.5909  0.8775
   45MOL   C25814426   0.927   7.751   2.740  0.0237 -0.2357  0.5969
   45MOL   C25914427   0.869   7.888   2.799 -0.2514 -0.1433  0.1051
   45MOL   C26014428   0.806   7.968   2.688  0.0196  0.2831  0.1633
   45MOL   C26114429   0.710   7.905   2.603  0.0190  0.2609  0.2978
   45MOL   C26214430   0.653   7.974   2.494 -0.2841  0.3094 -0.3219
   45MOL   C26314431   0.698   8.101   2.465 -0.6125 -0.7586 -0.3912
   45MOL   C26414432   0.787   0.056   2.549  0.1155 -0.5727  0.3934
   45MOL   C26514433   0.847   8.097   2.650 -0.2469 -0.3900 -0.3472
   45MOL   H26614434   0.852   7.674   2.753 -1.1026  0.9474  1.1333
   45MOL   H26714435   0.941   7.760   2.632 -2.4693  2.6790  0.4444
   45MOL   H26814436   0.958   7.941   2.834 -0.7217  0.7172  0.0118
   45MOL   H26914437   0.691   7.801   2.625  1.0164 -0.7025 -3.1078
   45MOL   H27014438   0.572   7.931   2.437  0.4661 -1.9716  0.2381
   45MOL   H27114439   0.663   0.040   2.377 -4.1770  0.6577  1.7714
   45MOL   H27214440   0.797   0.161   2.528 -1.4036 -0.9944 -2.6596
   45MOL   H27314441   0.921   0.027   2.715  2.2130 -1.5028 -2.2850
   45MOL   C27414442   0.773   7.876   2.921  0.5191  0.3381  0.1269
   45MOL   C27514443   0.835   7.852   3.058 -0.0209 -0.1753  0.0055
   45MOL   C27614444   0.921   7.969   3.118  0.1456  0.3478  0.0542
   45MOL   C27714445   1.001   7.954   3.233 -0.2135  0.0324 -0.5953
   45MOL   C27814446   1.087   8.054   3.275  0.0769  0.2753 -0.3802
   45MOL   C27914447   1.095   0.067   3.210  0.2263  0.4074  0.3154
   45MOL   C28014448   1.008   0.088   3.102 -0.1153  0.9287  0.0007
   45MOL   C28114449   0.923   8.100   3.059 -0.2196 -0.6042 -0.0237
   45MOL   H28214450   0.696   7.802   2.898  1.1998  0.2009 -1.7234
   45MOL   H28314451   0.721   7.972   2.928  1.3395  0.6545  2.2394
   45MOL   H28414452   0.908   7.772   3.047  0.2002  0.1945 -1.3157
   45MOL   H28514453   0.990   7.865   3.293  0.4745  0.4449  0.1573
   45MOL   H28614454   1.142   8.039   3.366 -0.0045  3.1791  0.2064
   45MOL   H28714455   1.155   0.148   3.246  1.4837 -0.5192  0.3449
   45MOL   H28814456   1.013   0.181   3.047 -0.3210  0.7449 -0.3348
   45MOL   H28914457   0.860   0.006   2.974  2.0488  1.1150 -1.3411
   45MOL   C29014458   0.717   7.834   3.155  0.1374  1.1806 -1.1005
   45MOL   C29114459   0.639   7.695   3.149  0.1647 -0.7317 -0.5326
   45MOL   C29214460   0.735   7.574   3.166  0.5120 -0.4301  0.3741
   45MOL   C29314461   0.763   7.494   3.054  0.7503 -0.2843 -0.6248
   45MOL   C29414462   0.845   7.381   3.065 -1.0130  0.3242  0.3941
   45MOL   C29514463   0.915   7.365   3.188 -0.0842  0.2815  0.3963
   45MOL   C29614464   0.895   7.446   3.296  0.2090 -0.8626 -0.5357
   45MOL   C29714465   0.803   7.552   3.285 -0.0083  0.4313  0.0694
   45MOL   H29814466   0.641   7.909   3.135 -0.7941  0.3056 -0.9270
   45MOL   H29914467   0.749   7.856   3.257 -0.5966 -0.6460 -0.4477
   45MOL   H30014468   0.591   7.691   3.051 -2.3190  1.9146  0.4952
   45MOL   H30114469   0.726   7.517   2.955 -0.6445  0.9254  0.1673
   45MOL   H30214470   0.866   7.330   2.972  0.6736 -0.8390  1.3780
   45MOL   H30314471   0.990   7.288   3.203 -0.1914 -0.0022 -0.4961
   45MOL   H30414472   0.956   7.435   3.384  0.8097 -0.6211 -0.9135
   45MOL   H30514473   0.801   7.623   3.367  1.0915  0.4282  0.0938
   45MOL   C30614474   0.523   7.681   3.249 -0.3682 -0.1174 -0.1838
   45MOL   C30714475   0.456   7.543   3.229 -0.0380 -0.3093  0.2366
   45MOL   C30814476   0.313   7.546   3.281  0.1191  0.2602 -0.2110
   45MOL   C30914477   0.296   7.506   3.415  0.2490  0.2200  0.1071
   45MOL   C31014478   0.167   7.493   3.471 -0.1738  0.1668  0.2302
   45MOL   C31114479   0.060   7.523   3.386 -0.1739  0.3363 -0.5824
   45MOL   C31214480   0.077   7.555   3.249 -0.3206 -0.5662 -0.5469
   45MOL   C31314481   0.204   7.567   3.193 -0.1720  0.4521  0.0748
   45MOL   H31414482   0.451   7.758   3.222 -1.3684 -1.0811 -0.3540
   45MOL   H31514483   0.555   7.690   3.352 -2.0871 -1.6733  0.5186
   45MOL   H31614484   0.519   7.468   3.276  0.8707  0.0803 -0.3372
   45MOL   H31714485   0.382   7.473   3.472 -0.4511  1.0440  1.6929
   45MOL   H31814486   0.159   7.461   3.573  0.4234  0.0661  0.2476
   45MOL   H31914487   8.077   7.501   3.428  0.0119  1.1393  0.3117
   45MOL   H32014488   8.109   7.582   3.185 -0.4574  0.1141 -0.0866
   45MOL   H32114489   0.211   7.592   3.088  1.5047  0.3106  0.1384
   45MOL   H32214490   0.450   7.525   3.122  0.0099  1.3370 -0.0550
   46MOL     C114491   1.356   5.891   7.724  0.3432 -0.9790 -0.0266
   46MOL     C214492   1.281   5.762   7.709 -0.5975  0.8973 -0.6826
   46MOL     C314493   1.378   5.643   7.726 -0.5011 -0.0938  0.0397
   46MOL     C414494   1.372   5.531   7.640 -0.0721  0.7043  0.2854
   46MOL     C514495   1.457   5.425   7.663 -0.5846 -0.0282  0.0552
   46MOL     C614496   1.541   5.423   7.773 -0.3880 -0.3184  0.0118
   46MOL     C714497   1.545   5.521   7.871 -0.1326 -0.0434 -0.2167
   46MOL     C814498   1.467   5.632   7.835 -0.7250 -0.1357  0.2590
   46MOL     H914499   1.290   5.975   7.700  0.1014 -1.4505 -1.0249
   46MOL    H1014500   1.387   5.908   7.827  0.5566  0.2200 -0.2765
   46MOL    H1114501   1.243   5.747   7.608 -2.8238  0.7498  0.1558
   46MOL    H1214502   1.309   5.525   7.552 -2.2469 -0.8135  1.9012
   46MOL    H1314503   1.452   5.342   7.594 -1.5653  1.5904 -1.9202
   46MOL    H1414504   1.619   5.348   7.763  0.9330  1.2293 -1.7368
   46MOL    H1514505   1.609   5.533   7.958 -0.4399  1.6161 -0.1934
   46MOL    H1614506   1.475   5.713   7.906 -0.3453 -0.6296  0.7788
   46MOL    H1714507   1.440   5.907   7.657 -0.0949 -1.5640 -0.7243
   46MOL    C1814508   1.151   5.754   7.795 -0.1987  0.3150 -0.2805
   46MOL    C1914509   1.024   5.806   7.724  0.0778 -0.7139  0.0509
   46MOL    C2014510   0.986   5.725   7.603  0.1820  0.8516  0.0514
   46MOL    C2114511   0.919   5.603   7.617 -0.2473 -0.8025  0.0674
   46MOL    C2214512   0.899   5.524   7.504 -0.5775 -0.0045  0.0954
   46MOL    C2314513   0.934   5.571   7.375  0.0180  0.0511 -0.3894
   46MOL    C2414514   0.987   5.697   7.360 -0.5677  0.2517 -0.0072
   46MOL    C2514515   1.017   5.769   7.475  0.3189  0.1619  0.0438
   46MOL    H2614516   1.174   5.802   7.891  0.5575 -1.5118  0.4670
   46MOL    H2714517   1.134   5.652   7.829  0.3678 -0.3126 -1.8385
   46MOL    H2814518   1.058   5.902   7.685 -0.2202  0.6039  2.9513
   46MOL    H2914519   0.890   5.550   7.707  0.2412 -0.1920  0.5866
   46MOL    H3014520   0.852   5.426   7.503 -1.4597  0.4128 -0.0946
   46MOL    H3114521   0.908   5.506   7.293 -0.2587 -0.8263  0.3836
   46MOL    H3214522   1.006   5.737   7.262  1.6653  1.1249  0.7552
   46MOL    H3314523   1.071   5.860   7.457  1.9600 -0.3175  2.2990
   46MOL    C3414524   0.907   5.832   7.821 -0.1258 -0.4042  0.2421
   46MOL    C3514525   0.929   5.937   7.930  0.1651 -0.4125  0.2590
   46MOL    C3614526   0.973   6.073   7.870 -0.1378 -0.1809 -0.6592
   46MOL    C3714527   0.886   6.146   7.783 -1.1255  0.6998  0.0771
   46MOL    C3814528   0.922   6.274   7.739 -0.7903 -0.5400 -0.5001
   46MOL    C3914529   1.055   6.320   7.768  0.3656 -0.0791 -1.0014
   46MOL    C4014530   1.144   6.244   7.852  0.1023 -0.3657  0.5859
   46MOL    C4114531   1.101   6.124   7.902  1.1078  0.2849 -1.2769
   46MOL    H4214532   0.882   5.738   7.870 -0.4920  0.4129  1.6520
   46MOL    H4314533   0.823   5.865   7.761 -0.1763  1.0574  1.0825
   46MOL    H4414534   1.004   5.904   8.001 -1.0698  0.0872  1.8324
   46MOL    H4514535   0.781   6.125   7.776 -0.8135 -0.7908 -0.4216
   46MOL    H4614536   0.864   6.337   7.673  0.1222  2.0350  1.0739
   46MOL    H4714537   1.085   6.414   7.724  0.4099 -0.4798 -1.8541
   46MOL    H4814538   1.240   6.291   7.865 -0.3821 -0.2335  4.0152
   46MOL    H4914539   1.164   6.064   7.967 -2.0356 -2.7398 -0.8668
   46MOL    C5014540   0.796   5.953   8.012  0.4528 -1.4030  0.5287
   46MOL    C5114541   0.805   6.064   0.009 -0.3153  0.7801  0.5472
   46MOL    C5214542   0.663   6.099   0.057  0.1809 -0.1088  0.0967
   46MOL    C5314543   0.603   6.226   0.036 -0.7748  0.3920  0.8140
   46MOL    C5414544   0.476   6.265   0.086 -0.6471 -0.2493 -0.4635
   46MOL    C5514545   0.400   6.174   0.157 -0.4229 -0.3542  0.3524
   46MOL    C5614546   0.454   6.045   0.179  0.7200  0.1040  0.2688
   46MOL    C5714547   0.582   6.008   0.130 -0.4337  0.2441  0.3962
   46MOL    H5814548   0.771   5.861   8.065 -0.8465 -0.3008  1.8926
   46MOL    H5914549   0.711   5.963   7.944  0.1490  2.0226  1.3209
   46MOL    H6014550   0.835   6.160   8.082 -0.2351 -0.2893 -1.9263
   46MOL    H6114551   0.666   6.293   8.093  0.1176  0.7188  2.1473
   46MOL    H6214552   0.434   6.361   0.061  1.3058  0.7807  0.1601
   46MOL    H6314553   0.302   6.196   0.197 -1.2097  0.9596 -2.2031
   46MOL    H6414554   0.385   5.974   0.221 -0.1431  0.1316 -1.0606
   46MOL    H6514555   0.615   5.905   0.133  2.8359  1.1918 -0.9894
   46MOL    C6614556   0.892   6.006   0.128  0.3577 -0.0140  0.7209
   46MOL    C6714557   0.877   6.077   0.263  0.1025 -0.7848  0.0203
   46MOL    C6814558   0.949   6.009   0.370  0.0454 -0.2702 -0.4169
   46MOL    C6914559   0.892   5.977   0.495  0.7554  0.1583  0.0428
   46MOL    C7014560   0.959   5.907   0.596  0.5109 -0.2247 -0.4894
   46MOL    C7114561   1.088   5.867   0.574 -0.1999  0.6558  0.3014
   46MOL    C7214562   1.153   5.898   0.450  0.2252  0.8026  0.1523
   46MOL    C7314563   1.085   5.972   0.348  0.0625  0.4250 -0.5650
   46MOL    H7414564   0.996   5.999   0.095 -0.2808 -2.3320 -0.8904
   46MOL    H7514565   0.858   5.903   0.137  0.3316 -0.1797 -1.1191
   46MOL    H7614566   0.773   6.065   0.294  0.4436 -1.7020  0.7790
   46MOL    H7714567   0.788   5.998   0.515  1.3225  2.0504  1.1442
   46MOL    H7814568   0.905   5.889   0.687 -0.1260  1.3325 -0.5406
   46MOL    H7914569   1.135   5.818   0.658  1.1774  1.1965 -0.1386
   46MOL    H8014570   1.254   5.869   0.426  0.3471  0.1618  1.4046
   46MOL    H8114571   1.137   6.001   0.258  0.6466  2.3388  0.3534
   46MOL    C8214572   0.910   6.236   0.261  0.5181  0.6200 -0.2356
   46MOL    C8314573   0.863   6.317   0.383  0.2392 -0.3289 -0.4741
   46MOL    C8414574   0.972   6.387   0.459  0.6969 -0.7171  0.0666
   46MOL    C8514575   0.979   6.381   0.601 -0.9538  0.7142 -0.7551
   46MOL    C8614576   1.095   6.431   0.663 -1.0142  0.1030  0.3605
   46MOL    C8714577   1.202   6.481   0.582 -0.0615 -0.4675 -0.0805
   46MOL    C8814578   1.184   6.507   0.441  0.7987 -0.5896 -0.1780
   46MOL    C8914579   1.065   6.458   0.383 -0.2799 -0.5545  0.1640
   46MOL    H9014580   0.885   6.283   0.166 -0.2052 -0.0866 -0.4070
   46MOL    H9114581   1.019   6.232   0.256  0.5409 -2.2753  1.2409
   46MOL    H9214582   0.823   6.241   0.450 -0.8334 -0.5314 -1.3278
   46MOL    H9314583   0.906   6.332   0.663 -0.9849  0.0020 -1.3392
   46MOL    H9414584   1.108   6.411   0.768  1.0543 -0.5088  0.0034
   46MOL    H9514585   1.291   6.511   0.635 -0.6305 -0.4423  0.8870
   46MOL    H9614586   1.265   6.553   0.387 -1.2542  3.2672 -0.1556
   46MOL    H9714587   1.040   6.466   0.278  1.0347 -0.8562 -0.1803
   46MOL    C9814588   0.750   6.418   0.348 -0.3777 -0.2432 -0.4306
   46MOL    C9914589   0.645   6.423   0.465  0.0849 -0.2372 -0.0332
   46MOL   C10014590   0.563   6.548   0.451  0.0552 -0.0972 -0.5714
   46MOL   C10114591   0.495   6.581   0.332  0.3459 -0.5712 -0.1055
   46MOL   C10214592   0.445   6.708   0.304  0.6207 -0.0514 -0.3718
   46MOL   C10314593   0.465   6.809   0.401  0.2924 -0.0067  0.5823
   46MOL   C10414594   0.536   6.776   0.519  0.5111 -0.1379 -0.3433
   46MOL   C10514595   0.582   6.647   0.547  0.7060  0.0906  0.3976
   46MOL   H10614596   0.690   6.393   0.260 -0.3485 -1.9344  0.0109
   46MOL   H10714597   0.792   6.517   0.333 -1.3474  0.3696  0.8640
   46MOL   H10814598   0.695   6.426   0.561 -1.4431 -0.2624  0.7859
   46MOL   H10914599   0.476   6.508   0.255 -0.7315  0.0153 -0.4105
   46MOL   H11014600   0.381   6.719   0.217 -1.4552  0.6700  1.2091
   46MOL   H11114601   0.434   6.911   0.384  1.8330 -0.0626 -2.7793
   46MOL   H11214602   0.549   6.850   0.596  1.2966 -0.9580  0.3265
   46MOL   H11314603   0.643   6.628   0.634  1.8576  0.6827 -0.2734
   46MOL   C11414604   0.560   6.295   0.469  0.2684  0.5464 -0.4244
   46MOL   C11514605   0.499   6.251   0.613 -0.5004  0.2825 -0.5466
   46MOL   C11614606   0.604   6.235   0.731 -0.1779  0.0705  0.1558
   46MOL   C11714607   0.648   6.348   0.809  0.1408 -0.0473  0.6015
   46MOL   C11814608   0.732   6.328   0.918  0.1072 -0.1301 -0.6357
   46MOL   C11914609   0.785   6.200   0.954 -0.6767 -0.4047  0.5685
   46MOL   C12014610   0.751   6.098   0.870 -0.7177  0.0158 -0.5351
   46MOL   C12114611   0.659   6.108   0.759  0.0407 -0.8062 -0.1316
   46MOL   H12214612   0.621   6.207   0.446 -0.8169  0.1166 -1.7712
   46MOL   H12314613   0.484   6.301   0.391 -0.0838 -1.3190 -0.2406
   46MOL   H12414614   0.452   6.153   0.604 -1.0946  0.4573  0.5034
   46MOL   H12514615   0.616   6.448   0.784 -1.4116 -0.4684  0.8452
   46MOL   H12614616   0.766   6.405   0.986  1.0691 -1.8785  0.9271
   46MOL   H12714617   0.844   6.176   1.042 -0.2181 -2.0660 -0.1859
   46MOL   H12814618   0.798   6.004   0.893  0.2322  0.6172  0.0273
   46MOL   H12914619   0.635   6.021   0.700 -0.1593 -0.9134  0.1086
   46MOL   C13014620   0.383   6.335   0.654 -0.3574 -0.0670 -0.0191
   46MOL   C13114621   0.239   6.277   0.615 -0.1122 -0.1972 -0.3340
   46MOL   C13214622   0.202   6.135   0.663 -0.6592 -0.2534 -0.2131
   46MOL   C13314623   0.190   6.036   0.564 -0.7064 -0.7916 -0.5120
   46MOL   C13414624   0.154   5.902   0.610 -0.4766 -0.2010 -0.1075
   46MOL   C13514625   0.136   5.879   0.749  0.0567 -0.1839  0.2218
   46MOL   C13614626   0.150   5.977   0.845  0.4588  0.2983  0.3057
   46MOL   C13714627   0.190   6.106   0.801 -0.4481  0.4406 -0.2976
   46MOL   H13814628   0.397   6.439   0.625 -0.2584 -0.9446 -3.2545
   46MOL   H13914629   0.380   6.326   0.763  0.8514 -0.1840  0.0092
   46MOL   H14014630   0.245   6.258   0.508  0.6540  0.4525 -0.4097
   46MOL   H14114631   0.207   6.052   0.459  1.6977  1.9021  0.2307
   46MOL   H14214632   0.157   5.811   0.551  4.2532  0.6996 -1.5113
   46MOL   H14314633   0.105   5.781   0.781  0.3891 -0.4957 -0.3936
   46MOL   H14414634   0.128   5.952   0.948 -1.0971  1.6099  0.3095
   46MOL   H14514635   0.213   6.182   0.874  2.1861 -0.4637 -0.1297
   46MOL   C14614636   0.132   6.378   0.639  0.2585 -0.1070 -0.6906
   46MOL   C14714637   0.087   6.472   0.530  0.2900  0.1322  0.4181
   46MOL   C14814638   0.057   6.394   0.396 -0.1385 -0.6030  0.4674
   46MOL   C14914639   8.076   6.295   0.391  0.3745 -0.2528  0.4410
   46MOL   C15014640   8.040   6.234   0.269 -0.5356  0.0326  0.0290
   46MOL   C15114641   8.104   6.267   0.149  1.2142  0.5602 -0.0623
   46MOL   C15214642   0.099   6.358   0.157  0.0637 -0.4087  0.0567
   46MOL   C15314643   0.133   6.419   0.281  0.0471 -0.0590 -0.4353
   46MOL   H15414644   0.165   6.434   0.727 -0.1189 -0.0951 -0.5566
   46MOL   H15514645   0.051   6.320   0.683  1.4198 -1.4484 -0.2971
   46MOL   H15614646   0.164   6.546   0.506  2.0641 -0.9667  2.4413
   46MOL   H15714647   8.025   6.260   0.479 -0.6077  0.4591  0.1548
   46MOL   H15814648   7.956   6.165   0.263  0.7080 -1.6410  1.5039
   46MOL   H15914649   8.080   6.221   0.055 -2.0234  1.1765  0.3910
   46MOL   H16014650   0.154   6.383   0.067 -1.5901  2.9118 -0.1236
   46MOL   H16114651   0.221   6.481   0.289 -0.1852 -0.1933  4.0487
   46MOL   C16214652   8.073   6.552   0.572  0.1484 -0.1377  0.0805
   46MOL   C16314653   8.035   6.672   0.480  0.5016  0.5195  0.4779
   46MOL   C16414654   7.884   6.703   0.474  0.7834  0.2289  0.6515
   46MOL   C16514655   7.811   6.718   0.355 -0.1248 -0.1623  0.5885
   46MOL   C16614656   7.673   6.728   0.363 -0.6539 -0.2370 -0.3916
   46MOL   C16714657   7.596   6.727   0.485 -0.5974  0.9077 -0.4559
   46MOL   C16814658   7.674   6.720   0.603 -0.2652  0.1864 -0.4024
   46MOL   C16914659   7.816   6.712   0.599  0.0464 -0.4035 -0.1410
   46MOL   H17014660   8.104   6.588   0.670 -1.8340 -0.0000  0.6833
   46MOL   H17114661   7.989   6.484   0.590 -0.9890  0.4771 -2.7027
   46MOL   H17214662   8.057   6.642   0.377  0.8163  0.2380  0.6258
   46MOL   H17314663   7.858   6.728   0.258  0.5733 -0.0244  0.9370
   46MOL   H17414664   7.625   6.740   0.266  0.9445 -1.6486 -1.3939
   46MOL   H17514665   7.488   6.733   0.480 -0.8171 -1.1602  0.9191
   46MOL   H17614666   7.636   6.716   0.704  0.3633  0.0054 -0.1693
   46MOL   H17714667   7.866   6.716   0.694 -2.3621  0.2356  1.1509
   46MOL   C17814668   0.005   6.801   0.498  0.0511  0.1024 -0.6764
   46MOL   C17914669   0.007   6.904   0.383 -0.7749 -0.4586 -0.2657
   46MOL   C18014670   0.051   7.043   0.427  0.8045 -0.3590 -0.0254
   46MOL   C18114671   0.172   7.071   0.491  0.0013 -0.4799  0.5019
   46MOL   C18214672   0.216   7.202   0.518 -0.0041  0.3510 -0.9671
   46MOL   C18314673   0.129   7.306   0.480  0.1268  0.4475  0.5067
   46MOL   C18414674   0.011   7.284   0.407  0.0415 -0.2202 -0.4685
   46MOL   C18514675   8.084   7.149   0.384 -0.2878  0.0667  0.0285
   46MOL   H18614676   0.110   6.776   0.517  0.8011  2.1276 -1.8975
   46MOL   H18714677   8.088   6.853   0.588  0.9688 -1.6304  0.6646
   46MOL   H18814678   8.024   6.932   0.343 -0.4386  1.0964 -0.0168
   46MOL   H18914679   0.244   6.996   0.521  0.8971 -0.3140 -1.2162
   46MOL   H19014680   0.309   7.231   0.564 -0.4612  0.8049 -0.3021
   46MOL   H19114681   0.166   7.407   0.491 -0.4618  0.8625 -1.2516
   46MOL   H19214682   8.066   7.361   0.361  2.9507  3.3379  1.5051
   46MOL   H19314683   7.992   7.129   0.331  0.0906 -0.7081 -0.3540
   46MOL   C19414684   0.098   6.844   0.278 -0.0028 -0.0444  0.1248
   46MOL   C19514685   0.102   6.926   0.145 -0.1021 -0.2452  0.4181
   46MOL   C19614686   0.209   6.855   0.063 -0.0150  0.3789 -0.2702
   46MOL   C19714687   0.334   6.916   0.040  0.0710  0.5992 -0.2923
   46MOL   C19814688   0.434   6.843   8.086 -0.2212  0.0466 -0.6755
   46MOL   C19914689   0.411   6.716   8.041 -0.1573 -0.3505  0.7623
   46MOL   C20014690   0.285   6.661   8.062  0.1732  0.1940 -0.0101
   46MOL   C20114691   0.176   6.726   0.014 -0.5142  0.2312  0.3506
   46MOL   H20214692   0.082   6.738   0.257 -0.2871  0.0918 -0.3577
   46MOL   H20314693   0.197   6.843   0.323  0.9049  0.5788 -1.7867
   46MOL   H20414694   0.156   7.013   0.184  1.1615 -0.8994  0.1489
   46MOL   H20514695   0.360   7.012   0.081 -0.3603  0.7289 -0.3220
   46MOL   H20614696   0.532   6.887   8.074 -0.6148  1.0856 -0.1681
   46MOL   H20714697   0.489   6.653   8.001  1.0022  0.5751  1.5058
   46MOL   H20814698   0.274   6.564   8.017  2.1051  0.1198 -0.3655
   46MOL   H20914699   0.081   6.675   0.023 -0.5029  0.0857 -0.3697
   46MOL   C21014700   8.081   6.956   0.071  0.7007  0.3697 -0.8240
   46MOL   C21114701   8.097   7.005   8.047 -0.5559  0.3021 -0.0266
   46MOL   C21214702   8.064   6.905   7.937 -1.7152 -0.2875 -0.1788
   46MOL   C21314703   7.927   6.882   7.905 -0.2397  0.3906  0.2752
   46MOL   C21414704   7.891   6.773   7.824  0.7014 -0.3690 -0.0672
   46MOL   C21514705   7.982   6.694   7.765  0.2607  0.1403  0.0915
   46MOL   C21614706   0.000   6.720   7.784 -0.0978 -0.1898  0.1532
   46MOL   C21714707   0.046   6.825   7.871 -0.1142  0.2839  0.4025
   46MOL   H21814708   8.040   7.034   0.135 -0.7896 -1.8277  1.0433
   46MOL   H21914709   8.017   6.867   0.076 -0.5803  1.3732  1.3433
   46MOL   H22014710   0.088   7.021   8.026 -0.9879  1.5210 -1.4142
   46MOL   H22114711   7.853   6.953   7.941 -0.5564  0.2543 -0.1000
   46MOL   H22214712   7.786   6.758   7.807  0.6878 -1.3377  0.8085
   46MOL   H22314713   7.950   6.615   7.698 -0.2359 -0.7003  1.2935
   46MOL   H22414714   0.071   6.658   7.731  0.4863 -1.9319  2.8983
   46MOL   H22514715   0.152   6.839   7.886 -0.1716  2.7156 -1.2110
   46MOL   C22614716   8.037   7.145   8.013  0.4853 -0.0282  0.4190
   46MOL   C22714717   8.107   7.260   8.094  0.0630 -0.1882 -0.3764
   46MOL   C22814718   0.144   7.270   8.085  0.5248  0.1893  0.3014
   46MOL   C22914719   0.218   7.296   0.093 -0.0511 -0.0129  0.3396
   46MOL   C23014720   0.361   7.295   0.092 -0.9809  0.3040 -0.0071
   46MOL   C23114721   0.420   7.284   8.084  0.3807 -0.3972 -0.3074
   46MOL   C23214722   0.350   7.261   7.970  0.3496  0.1156  0.9554
   46MOL   C23314723   0.211   7.252   7.971 -0.1050  0.6185  0.3527
   46MOL   H23414724   7.929   7.136   8.023  0.2806  1.0831 -0.7483
   46MOL   H23514725   8.050   7.168   7.908  0.7486 -1.3538  0.1522
   46MOL   H23614726   8.096   7.222   0.081 -2.5290 -0.0885 -0.5794
   46MOL   H23714727   0.162   7.324   0.181 -0.7667 -0.6755  0.1015
   46MOL   H23814728   0.423   7.318   0.177 -1.7453 -1.8378  1.1476
   46MOL   H23914729   0.526   7.302   8.078  0.5480  0.3561  3.4370
   46MOL   H24014730   0.394   7.259   7.872 -0.3229 -0.9868  0.6684
   46MOL   H24114731   0.166   7.235   7.874  0.0612  1.5614  0.1128
   46MOL   C24214732   8.038   7.403   8.084  0.5431 -0.1173 -0.1295
   46MOL   C24314733   7.882   7.406   8.097 -0.5876  0.0286  0.0869
   46MOL   C24414734   7.835   7.354   0.118  0.2935  0.1495 -0.2376
   46MOL   C24514735   7.781   7.228   0.136 -0.0960  0.8076 -0.3108
   46MOL   C24614736   7.732   7.192   0.267  0.2317 -0.2326 -0.1835
   46MOL   C24714737   7.729   7.282   0.373  0.0982  0.6031  0.3186
   46MOL   C24814738   7.783   7.406   0.349  0.0637 -0.6782  0.1168
   46MOL   C24914739   7.849   7.439   0.228 -0.1613 -0.7325 -0.2170
   46MOL   H25014740   8.068   7.439   7.985 -2.0516  1.9363 -0.2231
   46MOL   H25114741   8.084   7.463   0.047 -0.3968  0.2926  0.1248
   46MOL   H25214742   7.852   7.336   8.019 -2.2860 -0.5083  1.1787
   46MOL   H25314743   7.778   7.151   0.061 -3.2571  0.2075  0.3465
   46MOL   H25414744   7.679   7.097   0.272  0.0697 -0.1081  0.5865
   46MOL   H25514745   7.673   7.255   0.461 -2.5353  1.1149 -1.1323
   46MOL   H25614746   7.786   7.478   0.429 -2.9698 -0.7012  0.3315
   46MOL   H25714747   7.878   7.542   0.220 -1.4178 -0.3369  0.1554
   46MOL   C25814748   7.825   7.545   8.071  0.5031 -0.2222 -0.3106
   46MOL   C25914749   7.671   7.545   8.087 -0.5090 -0.4031  0.4787
   46MOL   C26014750   7.621   7.688   8.093  0.4371  0.2156 -0.5502
   46MOL   C26114751   7.639   7.778   7.985  0.1067  0.1792  0.5431
   46MOL   C26214752   7.600   7.912   8.006  0.0479  0.2487 -0.2114
   46MOL   C26314753   7.537   7.950   0.007  0.8888  1.1133  0.0334
   46MOL   C26414754   7.512   7.857   0.114 -0.3272 -0.3297  0.4456
   46MOL   C26514755   7.555   7.728   0.100 -0.2455  0.6583 -0.1326
   46MOL   H26614756   7.861   7.585   7.977 -0.2178 -1.9519 -1.3641
   46MOL   H26714757   7.863   7.623   0.022 -0.0401 -0.3888  0.2063
   46MOL   H26814758   7.642   7.497   0.066  2.0387  0.4532  1.7679
   46MOL   H26914759   7.675   7.757   7.886 -1.5377  1.6355 -0.3751
   46MOL   H27014760   7.617   7.984   7.928 -0.1318 -0.9439 -1.3746
   46MOL   H27114761   7.505   8.053   0.012 -1.8473  0.2111  3.0520
   46MOL   H27214762   7.483   7.894   0.212 -0.4123 -0.5737  0.5132
   46MOL   H27314763   7.562   7.655   0.179 -0.4056  0.7580 -0.0255
   46MOL   C27414764   7.608   7.466   7.975 -0.4167  0.2423 -0.0146
   46MOL   C27514765   7.462   7.421   8.021  0.1623 -0.4811 -0.2036
   46MOL   C27614766   7.368   7.387   7.902  0.2730 -0.6671 -0.6418
   46MOL   C27714767   7.271   7.487   7.861  0.5496  1.1844 -0.2136
   46MOL   C27814768   7.175   7.451   7.761 -0.1161  0.7837  0.8736
   46MOL   C27914769   7.191   7.323   7.696  0.8810 -0.8411 -0.8997
   46MOL   C28014770   7.287   7.232   7.741  0.2033  0.0067 -0.1432
   46MOL   C28114771   7.368   7.258   7.851 -0.3383  0.0554 -0.6005
   46MOL   H28214772   7.654   7.369   7.957 -0.1503  0.7991 -2.4389
   46MOL   H28314773   7.609   7.523   7.882  0.8433 -2.8172 -1.9504
   46MOL   H28414774   7.413   7.507   8.067  1.1526  0.0417 -0.1270
   46MOL   H28514775   7.263   7.589   7.898 -1.9297  1.1320 -0.5327
   46MOL   H28614776   7.094   7.518   7.734 -0.3533 -0.1577 -0.7880
   46MOL   H28714777   7.131   7.289   7.612  0.9398  2.8332 -2.5620
   46MOL   H28814778   7.292   7.133   7.698 -0.2743 -0.4984  0.9457
   46MOL   H28914779   7.448   7.192   7.881  0.6601  0.1822 -2.8293
   46MOL   C29014780   7.462   7.310   0.016 -0.9521 -0.2054 -0.6386
   46MOL   C29114781   7.336   7.265   0.087 -0.0816 -0.2647 -0.0609
   46MOL   C29214782   7.337   7.124   0.145 -0.9528 -0.0210 -0.5330
   46MOL   C29314783   7.262   7.023   0.078  0.0862 -0.8587  0.0746
   46MOL   C29414784   7.274   6.887   0.122  0.0000 -0.4072 -0.7275
   46MOL   C29514785   7.343   6.861   0.239 -0.4481 -0.0342 -0.6887
   46MOL   C29614786   7.411   6.969   0.312  0.7505  0.3006 -0.4588
   46MOL   C29714787   7.406   7.101   0.266 -0.9471 -0.5315  0.6053
   46MOL   H29814788   7.525   7.345   0.099  0.4170 -2.7607 -0.5328
   46MOL   H29914789   7.513   7.222   8.091 -0.1189 -0.4471  0.9273
   46MOL   H30014790   7.253   7.265   0.016  0.7962 -1.9276 -1.1374
   46MOL   H30114791   7.193   7.038   8.111  1.5367 -0.7117 -1.1604
   46MOL   H30214792   7.218   6.803   0.082 -2.8372  0.8707  0.4499
   46MOL   H30314793   7.344   6.759   0.273 -2.5186 -0.2986 -1.4006
   46MOL   H30414794   7.454   6.955   0.410 -0.7875 -1.7525 -0.0356
   46MOL   H30514795   7.435   7.184   0.328 -0.7419 -1.4875  1.8077
   46MOL   C30614796   7.298   7.377   0.192 -0.3406  0.4982 -0.1028
   46MOL   C30714797   7.162   7.362   0.273 -0.4707  0.3640 -0.1145
   46MOL   C30814798   7.156   7.469   0.377 -0.0152  1.0867 -0.1468
   46MOL   C30914799   7.245   7.466   0.487  0.0101  0.3773  0.1136
   46MOL   C31014800   7.235   7.564   0.592 -0.4246 -0.4127  0.4257
   46MOL   C31114801   7.135   7.663   0.575  0.4434 -0.2202  0.2112
   46MOL   C31214802   7.038   7.654   0.471 -0.0137 -0.1783 -0.5382
   46MOL   C31314803   7.048   7.560   0.368 -0.1136 -0.0969 -0.4679
   46MOL   H31414804   7.300   7.473   0.140 -0.7380  0.6148  0.0962
   46MOL   H31514805   7.375   7.381   0.269 -0.5658 -1.0273  0.2172
   46MOL   H31614806   7.156   7.265   0.322  0.6947  0.9586  1.2782
   46MOL   H31714807   7.322   7.390   0.485 -1.1959 -0.8297 -0.8323
   46MOL   H31814808   7.299   7.569   0.679 -3.1830  2.2518  2.4188
   46MOL   H31914809   7.129   7.743   0.647 -0.3026  0.0838 -0.1801
   46MOL   H32014810   6.952   7.718   0.466  0.2864  0.2080 -0.7997
   46MOL   H32114811   6.980   7.559   0.284 -0.2075 -0.6906 -0.3846
   46MOL   H32214812   7.086   7.365   0.195 -1.7050 -0.0888  1.0489
   47MOL     C114813   6.024   5.574   3.116 -0.0938  0.4679 -0.1453
   47MOL     C214814   6.021   5.706   3.033  0.1547 -0.4007 -0.6570
   47MOL     C314815   6.163   5.751   3.005  0.0889  0.2319  0.1738
   47MOL     C414816   6.221   5.753   2.879 -0.0560 -0.0298  0.8743
   47MOL     C514817   6.354   5.799   2.857 -0.6545 -0.1848 -0.0591
   47MOL     C614818   6.429   5.847   2.964 -0.7829  0.1270 -0.7039
   47MOL     C714819   6.374   5.836   3.097 -0.3571  0.1038 -0.4584
   47MOL     C814820   6.240   5.793   3.114  0.2776 -0.5212  0.0333
   47MOL     H914821   6.086   5.501   3.064  2.2144  0.8905  1.8797
   47MOL    H1014822   6.085   5.590   3.206  1.2431 -0.5052 -0.8500
   47MOL    H1114823   5.970   5.775   3.101 -0.2637  1.1640 -2.5190
   47MOL    H1214824   6.171   5.728   2.787  2.0900  0.8752 -0.5843
   47MOL    H1314825   6.378   5.817   2.753 -2.9992  0.0977 -0.5600
   47MOL    H1414826   6.526   5.888   2.940 -0.0030 -1.3847 -0.1701
   47MOL    H1514827   6.428   5.859   3.187  0.2422  0.5737 -0.9346
   47MOL    H1614828   6.204   5.802   3.216  0.2093  0.2914 -0.0597
   47MOL    H1714829   5.935   5.529   3.159 -1.1009  1.3429 -1.2830
   47MOL    C1814830   5.930   5.700   2.907  0.3556 -0.1627 -0.6009
   47MOL    C1914831   5.782   5.662   2.934  0.1512  1.0141 -0.2473
   47MOL    C2014832   5.707   5.767   3.019  0.2891  0.5916  0.3552
   47MOL    C2114833   5.657   5.734   3.150 -0.5461  0.8025 -0.0452
   47MOL    C2214834   5.590   5.836   3.224 -0.2391  0.4243 -0.1622
   47MOL    C2314835   5.566   5.964   3.166 -0.5755 -0.0412 -0.1891
   47MOL    C2414836   5.612   5.990   3.036 -0.9221 -0.6339 -1.1506
   47MOL    C2514837   5.679   5.892   2.963 -0.0008  0.0159  0.0321
   47MOL    H2614838   5.970   5.628   2.835 -1.7318 -0.2317 -1.7532
   47MOL    H2714839   5.932   5.794   2.852 -0.0771  1.7500  2.5294
   47MOL    H2814840   5.781   5.571   2.994 -0.4752  1.4256  0.3812
   47MOL    H2914841   5.681   5.634   3.186 -3.4624 -0.2210 -0.8014
   47MOL    H3014842   5.567   5.823   3.329  1.7374 -0.8125  0.1346
   47MOL    H3114843   5.513   6.044   3.217  3.8051  1.2760  2.5850
   47MOL    H3214844   5.593   6.085   2.989  1.1874 -0.6238 -2.0808
   47MOL    H3314845   5.714   5.922   2.865 -0.9423 -0.6129 -0.5047
   47MOL    C3414846   5.710   5.630   2.798 -0.6022  0.5022 -0.1162
   47MOL    C3514847   5.566   5.571   2.804  0.3570 -0.1443 -0.3145
   47MOL    C3614848   5.499   5.571   2.670  0.4782  0.3916  0.2470
   47MOL    C3714849   5.372   5.630   2.655  0.1008 -0.2108  0.2045
   47MOL    C3814850   5.310   5.619   2.524  0.3199  0.1861 -0.0197
   47MOL    C3914851   5.377   5.585   2.411 -0.7539 -0.4459 -0.2870
   47MOL    C4014852   5.508   5.536   2.428  0.1241  0.4611  0.5305
   47MOL    C4114853   5.562   5.521   2.554 -0.2708  0.9650 -0.1915
   47MOL    H4214854   5.784   5.559   2.760  0.2131  1.3658 -0.1640
   47MOL    H4314855   5.708   5.727   2.749  0.8726  1.5491  1.8095
   47MOL    H4414856   5.515   5.633   2.878 -0.8497 -2.3985  0.8036
   47MOL    H4514857   5.328   5.662   2.748  0.4443  0.1657  0.2425
   47MOL    H4614858   5.208   5.653   2.513  0.5515  1.3959  1.3438
   47MOL    H4714859   5.336   5.600   2.312 -2.0148 -0.4571  0.2176
   47MOL    H4814860   5.578   5.509   2.350 -0.9029 -0.3504 -0.1142
   47MOL    H4914861   5.663   5.485   2.551 -0.7837 -0.6040  0.8712
   47MOL    C5014862   5.568   5.430   2.858  0.0086 -1.0216 -0.5321
   47MOL    C5114863   5.445   5.399   2.944  0.0372  0.5114  0.2174
   47MOL    C5214864   5.434   5.247   2.957  0.1985 -0.1896  0.6177
   47MOL    C5314865   5.537   5.171   3.014  0.0738 -0.5347 -0.2021
   47MOL    C5414866   5.537   5.029   3.007  0.1186 -0.4330 -0.5839
   47MOL    C5514867   5.420   4.966   2.960  0.3069  0.2693 -0.5119
   47MOL    C5614868   5.311   5.047   2.914 -0.2085  0.0155  0.0337
   47MOL    C5714869   5.313   5.184   2.917 -0.1075  0.6685 -0.3266
   47MOL    H5814870   5.662   5.421   2.913 -1.1297  2.3971  2.0965
   47MOL    H5914871   5.578   5.361   2.774 -0.5190 -3.0269  0.9890
   47MOL    H6014872   5.349   5.433   2.904  0.9786  1.1669 -1.4854
   47MOL    H6114873   5.624   5.211   3.064 -0.7261  0.1548  0.6656
   47MOL    H6214874   5.620   4.982   3.057  0.1967 -0.1627 -0.4585
   47MOL    H6314875   5.417   4.858   2.965  1.1862  0.1220 -2.5983
   47MOL    H6414876   5.225   4.996   2.873 -0.6214  1.0985 -0.4767
   47MOL    H6514877   5.230   5.244   2.882  1.3786  2.2082 -1.2880
   47MOL    C6614878   5.436   5.465   3.087 -0.1959 -0.4241  0.6999
   47MOL    C6714879   5.326   5.410   3.180  0.1076 -0.1439  0.1759
   47MOL    C6814880   5.361   5.423   3.332  0.1236 -0.0949 -0.2524
   47MOL    C6914881   5.406   5.544   3.384 -0.3582 -0.4144 -0.4190
   47MOL    C7014882   5.442   5.555   3.529  0.4750  0.1643  0.4989
   47MOL    C7114883   5.432   5.438   3.610 -0.0265  0.7353  0.1394
   47MOL    C7214884   5.396   5.318   3.553  0.3118 -0.0685 -0.2734
   47MOL    C7314885   5.359   5.310   3.416 -0.0007 -0.4959  0.0107
   47MOL    H7414886   5.414   5.571   3.100  0.4262 -0.2385  0.2667
   47MOL    H7514887   5.527   5.437   3.140  0.2282  0.1902  0.3058
   47MOL    H7614888   5.300   5.305   3.162 -1.0060  0.0699  0.4883
   47MOL    H7714889   5.410   5.626   3.314 -1.8246  0.0316  0.0138
   47MOL    H7814890   5.471   5.649   3.573  1.3659 -0.2725  0.8409
   47MOL    H7914891   5.447   5.457   3.715  2.9617  3.9266 -0.7499
   47MOL    H8014892   5.401   5.228   3.611 -2.2669 -0.3485 -0.4481
   47MOL    H8114893   5.327   5.221   3.364 -0.6299  0.5606 -1.4435
   47MOL    C8214894   5.185   5.460   3.144  0.0333  0.2977 -0.3682
   47MOL    C8314895   5.067   5.421   3.239 -0.0688 -0.2411  0.3301
   47MOL    C8414896   4.962   5.530   3.232 -0.2464  1.1018 -0.1064
   47MOL    C8514897   4.980   5.638   3.319  0.0592  0.0477 -0.2604
   47MOL    C8614898   4.890   5.743   3.320 -0.7929  0.2505  0.5483
   47MOL    C8714899   4.782   5.748   3.228  0.4332  0.0405 -0.2601
   47MOL    C8814900   4.759   5.636   3.144  0.0729 -0.3174  0.2722
   47MOL    C8914901   4.852   5.532   3.146 -0.2452  0.4722  0.1829
   47MOL    H9014902   5.164   5.428   3.042  1.0339 -1.7559  0.0420
   47MOL    H9114903   5.199   5.567   3.130 -1.2221  0.0573 -4.0322
   47MOL    H9214904   5.103   5.428   3.342  2.1810 -0.4569 -0.4080
   47MOL    H9314905   5.064   5.658   3.384 -1.1495 -0.7166  1.5829
   47MOL    H9414906   4.900   5.824   3.391  0.3367  0.4687  0.1512
   47MOL    H9514907   4.716   5.834   3.224  1.3728  0.8051  0.2560
   47MOL    H9614908   4.683   5.630   3.067  1.3943 -1.9048 -0.9379
   47MOL    H9714909   4.842   5.451   3.077 -1.7196 -0.0297  0.9672
   47MOL    C9814910   5.012   5.277   3.212 -0.4447 -0.8629  0.5521
   47MOL    C9914911   4.992   5.189   3.340  0.9361 -1.0203  0.2055
   47MOL   C10014912   4.913   5.250   3.453  0.0733 -0.4064  0.6590
   47MOL   C10114913   4.978   5.260   3.573 -0.7335 -0.3716  0.8644
   47MOL   C10214914   4.930   5.340   3.673 -0.5066  0.8041 -0.4000
   47MOL   C10314915   4.804   5.401   3.653  0.4705 -0.3734 -0.2499
   47MOL   C10414916   4.728   5.371   3.542 -0.2401 -1.1480 -0.4310
   47MOL   C10514917   4.785   5.302   3.436  0.3614 -0.0415  0.9313
   47MOL   H10614918   5.082   5.218   3.152 -0.3566 -1.1713  0.9585
   47MOL   H10714919   4.915   5.279   3.162 -0.6263  1.0620  0.9495
   47MOL   H10814920   5.091   5.169   3.383  0.5258 -0.3922  1.4827
   47MOL   H10914921   5.076   5.216   3.585 -0.8683 -0.8647  0.2012
   47MOL   H11014922   4.978   5.356   3.769 -1.4386  0.4409  0.1314
   47MOL   H11114923   4.763   5.464   3.730  0.7406 -1.7805  1.0776
   47MOL   H11214924   4.630   5.414   3.530  1.0550  1.3656 -2.7529
   47MOL   H11314925   4.729   5.289   3.345  1.6018  0.7871  0.0446
   47MOL   C11414926   4.925   5.057   3.308 -0.1490  0.1276  0.5514
   47MOL   C11514927   5.014   4.929   3.300  0.5079  0.0700 -0.0626
   47MOL   C11614928   5.127   4.915   3.404 -0.2230  0.0229  0.0164
   47MOL   C11714929   5.097   4.891   3.538  0.1024 -0.5035  0.4643
   47MOL   C11814930   5.200   4.887   3.638  0.6891  0.0467 -0.0672
   47MOL   C11914931   5.336   4.909   3.597  0.1142 -0.2606  0.6778
   47MOL   C12014932   5.367   4.924   3.456  0.1969 -0.2658  0.6872
   47MOL   C12114933   5.260   4.934   3.359 -0.6145  0.3061  0.0212
   47MOL   H12214934   4.887   5.063   3.206  1.7120 -0.1671 -0.1748
   47MOL   H12314935   4.844   5.041   3.379 -0.7716  0.8053  0.0078
   47MOL   H12414936   5.063   4.949   3.204  1.7143  1.6575  0.8552
   47MOL   H12514937   4.994   4.879   3.568 -0.1830  1.6489  0.3767
   47MOL   H12614938   5.171   4.885   3.742  0.1787  2.4233 -0.1373
   47MOL   H12714939   5.421   4.920   3.661 -1.4123  1.2981  2.4999
   47MOL   H12814940   5.467   4.938   3.418  0.5768 -1.7298  1.1264
   47MOL   H12914941   5.282   4.965   3.258  0.2937  1.1620  0.4693
   47MOL   C13014942   4.920   4.805   3.297  0.8844 -0.3038 -0.3563
   47MOL   C13114943   4.819   4.791   3.186 -0.0006  1.2022  0.0489
   47MOL   C13214944   4.882   4.759   3.054 -0.6401  0.8918  0.4441
   47MOL   C13314945   4.961   4.646   3.039  0.4614  0.4306  0.7151
   47MOL   C13414946   5.002   4.607   2.913  0.7558  0.1137  0.4529
   47MOL   C13514947   4.988   4.687   2.803 -0.0484 -0.2300 -0.0461
   47MOL   C13614948   4.917   4.809   2.823  0.2232 -0.0146 -0.3368
   47MOL   C13714949   4.858   4.842   2.946 -0.8078  0.3209  0.2515
   47MOL   H13814950   4.864   4.806   3.391 -2.5761  0.3117 -2.3070
   47MOL   H13914951   4.966   4.706   3.298 -0.8243 -1.1179 -0.5073
   47MOL   H14014952   4.776   4.890   3.175 -0.3517  1.3111  2.2424
   47MOL   H14114953   4.976   4.571   3.115 -0.3709 -1.7328 -1.1857
   47MOL   H14214954   5.067   4.520   2.912 -2.1937 -2.1574 -0.6598
   47MOL   H14314955   5.033   4.663   2.707 -1.5868 -1.5002 -0.4683
   47MOL   H14414956   4.900   4.876   2.740  0.5051  1.8902  1.1100
   47MOL   H14514957   4.792   4.926   2.960  0.0129  0.4683  3.5549
   47MOL   C14614958   4.702   4.693   3.233  0.4445  0.8065  0.4116
   47MOL   C14714959   4.612   4.636   3.119 -0.3563 -0.6490 -0.6857
   47MOL   C14814960   4.545   4.515   3.162  0.3273  0.6506 -0.2074
   47MOL   C14914961   4.546   4.393   3.088 -0.3557  0.1377 -0.1624
   47MOL   C15014962   4.457   4.288   3.115 -0.1964 -0.3075  0.1256
   47MOL   C15114963   4.380   4.292   3.229  0.3181 -0.2508 -0.4744
   47MOL   C15214964   4.383   4.406   3.313  0.7430  0.3668 -0.0098
   47MOL   C15314965   4.458   4.518   3.273 -0.1702  0.1034  0.4503
   47MOL   H15414966   4.635   4.728   3.311 -1.6814  1.5044 -1.6829
   47MOL   H15514967   4.760   4.607   3.267  2.0014  1.3546 -0.7695
   47MOL   H15614968   4.678   4.591   3.045 -1.1973 -1.8639 -0.7242
   47MOL   H15714969   4.618   4.371   3.010 -0.8206 -1.6477 -0.1264
   47MOL   H15814970   4.462   4.200   3.053 -2.2315 -1.0082  0.9293
   47MOL   H15914971   4.317   4.205   3.242  1.9049 -1.4531 -0.6149
   47MOL   H16014972   4.315   4.403   3.397  2.1701  0.2756  1.1570
   47MOL   H16114973   4.445   4.608   3.331 -0.6549 -0.4240  1.1631
   47MOL   C16214974   4.518   4.736   3.061  0.9297 -0.8595 -0.8614
   47MOL   C16314975   4.427   4.699   2.943 -0.3372 -0.3979  0.6318
   47MOL   C16414976   4.294   4.780   2.931 -0.1286  0.3027  0.0033
   47MOL   C16514977   4.290   4.918   2.909 -0.2253  0.2553 -0.5586
   47MOL   C16614978   4.171   4.994   2.888 -0.4661 -0.1318 -0.3677
   47MOL   C16714979   4.050   4.929   2.886  0.8519 -0.2333  0.0989
   47MOL   C16814980   4.046   4.787   2.919  0.0646 -0.4290  0.2038
   47MOL   C16914981   4.167   4.717   2.954  0.4245  0.2233 -0.2241
   47MOL   H17014982   4.560   4.835   3.043 -0.3070 -0.2766 -0.6259
   47MOL   H17114983   4.445   4.760   3.138 -0.2976 -0.6096 -2.0886
   47MOL   H17214984   4.378   4.610   2.983 -0.1093 -1.7702 -2.0418
   47MOL   H17314985   4.380   4.977   2.906 -0.9520  1.3395 -3.0924
   47MOL   H17414986   4.170   5.102   2.891  0.2807 -0.0889 -1.4561
   47MOL   H17514987   3.966   4.995   2.869  0.8547 -0.0545  0.7534
   47MOL   H17614988   3.944   4.752   2.926 -1.3025  3.1910 -0.6227
   47MOL   H17714989   4.164   4.614   2.987  0.9778 -0.2898 -1.7512
   47MOL   C17814990   4.505   4.684   2.809 -0.1984  0.5233  0.6728
   47MOL   C17914991   4.457   4.571   2.709 -0.2017  0.0581 -0.3927
   47MOL   C18014992   4.316   4.604   2.653 -0.3222  0.3730  0.4237
   47MOL   C18114993   4.217   4.509   2.663 -0.1128  0.0655 -0.4575
   47MOL   C18214994   4.093   4.539   2.619  0.4743  0.4450 -0.6324
   47MOL   C18314995   4.060   4.672   2.581 -0.2311  0.0080 -0.1344
   47MOL   C18414996   4.158   4.768   2.570 -0.0867 -0.3452  0.2774
   47MOL   C18514997   4.290   4.737   2.608  0.5476 -0.0260 -0.2354
   47MOL   H18614998   4.609   4.670   2.838 -0.6319  1.4467  2.7254
   47MOL   H18714999   4.492   4.781   2.759 -0.2870  0.3446  0.3426
   47MOL   H18815000   4.438   4.479   2.764  0.0535  0.1205 -0.2014
   47MOL   H18915001   4.228   4.408   2.699 -2.3768  0.0054  0.1634
   47MOL   H19015002   4.021   4.459   2.628  0.3284  0.7194  0.7842
   47MOL   H19115003   3.962   4.701   2.545  0.1314 -0.2004 -1.3194
   47MOL   H19215004   4.133   4.870   2.545 -0.4271 -0.8391 -1.4555
   47MOL   H19315005   4.366   4.812   2.595 -0.7717  1.1169 -1.5356
   47MOL   C19415006   4.554   4.547   2.589  0.0538 -0.3953  0.1841
   47MOL   C19515007   4.663   4.442   2.623  0.5950  0.0999  0.7291
   47MOL   C19615008   4.603   4.311   2.673  0.1476 -0.4392  0.3316
   47MOL   C19715009   4.663   4.240   2.783  0.1875  0.2515  0.4727
   47MOL   C19815010   4.609   4.114   2.820  0.4373  0.0087 -0.5962
   47MOL   C19915011   4.496   4.064   2.750 -0.0030 -0.4086  0.2137
   47MOL   C20015012   4.438   4.136   2.648  0.1423 -0.2751 -1.0875
   47MOL   C20115013   4.492   4.257   2.603 -0.1896 -0.2160 -0.0856
   47MOL   H20215014   4.598   4.641   2.555  0.7289 -1.0609 -0.7805
   47MOL   H20315015   4.491   4.509   2.509 -2.4184  0.5682  1.6189
   47MOL   H20415016   4.723   4.484   2.704  2.0297  1.4901 -0.9969
   47MOL   H20515017   4.741   4.290   2.840  2.2629 -1.0722 -1.1860
   47MOL   H20615018   4.646   4.051   2.899 -0.5321 -0.8350 -0.8089
   47MOL   H20715019   4.457   3.967   2.779  0.4651 -0.0713  2.0542
   47MOL   H20815020   4.349   4.093   2.602 -0.7320 -1.0160  1.2510
   47MOL   H20915021   4.434   4.307   2.527  0.4325  0.0081 -0.4241
   47MOL   C21015022   4.764   4.408   2.509 -0.0413 -0.2354  0.2713
   47MOL   C21115023   4.830   4.532   2.432  0.4387  0.1936  0.0259
   47MOL   C21215024   4.975   4.515   2.404 -0.6989 -0.4507  0.4828
   47MOL   C21315025   5.023   4.396   2.345  0.4819  0.5179 -0.4534
   47MOL   C21415026   5.158   4.379   2.311  0.2984  0.0401 -0.5248
   47MOL   C21515027   5.247   4.481   2.335  0.0023  0.1099 -0.7491
   47MOL   C21615028   5.206   4.599   2.400  0.6604 -0.6309 -0.7696
   47MOL   C21715029   5.069   4.610   2.443 -0.1835 -0.2355 -0.8873
   47MOL   H21815030   4.716   4.333   2.447 -2.1384  0.7246  0.6830
   47MOL   H21915031   4.852   4.354   2.544  0.3471 -0.1570 -0.5645
   47MOL   H22015032   4.820   4.612   2.505  1.1310  0.3486 -0.0450
   47MOL   H22115033   4.950   4.320   2.322  1.4863 -0.9704  1.2331
   47MOL   H22215034   5.189   4.288   2.262  0.3368 -0.9493  1.3033
   47MOL   H22315035   5.351   4.473   2.310  0.5174  4.5100 -0.5441
   47MOL   H22415036   5.277   4.676   2.429 -0.1633 -0.0733 -0.2094
   47MOL   H22515037   5.039   4.707   2.480 -1.6234 -1.3233  0.9010
   47MOL   C22615038   4.753   4.558   2.296  0.4583 -0.1744 -0.9895
   47MOL   C22715039   4.766   4.697   2.230  0.8205  0.1320 -0.5036
   47MOL   C22815040   4.742   4.806   2.336  0.2217 -0.8277  0.2811
   47MOL   C22915041   4.611   4.840   2.386 -0.1225 -0.3831 -0.6586
   47MOL   C23015042   4.591   4.945   2.481  0.3446  0.9625 -0.0360
   47MOL   C23115043   4.704   5.007   2.544  0.2098 -0.1966  0.1612
   47MOL   C23215044   4.836   4.983   2.491 -0.0882 -0.6287 -0.1366
   47MOL   C23315045   4.852   4.883   2.390  1.4218  0.0329 -0.2606
   47MOL   H23415046   4.650   4.533   2.322  1.0256 -1.3005  0.2207
   47MOL   H23515047   4.770   4.481   2.221  1.3925 -1.5515  0.6082
   47MOL   H23615048   4.681   4.717   2.165  1.5138 -2.7596 -2.3912
   47MOL   H23715049   4.523   4.791   2.349 -1.5634  1.3035  0.4577
   47MOL   H23815050   4.492   4.981   2.504 -0.1140  0.5505 -1.2880
   47MOL   H23915051   4.676   5.075   2.622  3.6462 -0.1393  1.4181
   47MOL   H24015052   4.915   5.037   2.541  0.3121 -2.0195  0.7772
   47MOL   H24115053   4.954   4.870   2.358  2.0946  1.2534  1.3458
   47MOL   C24215054   4.892   4.712   2.142  0.1965  0.2040 -0.1668
   47MOL   C24315055   4.891   4.672   1.999 -0.0011  0.2331  0.0158
   47MOL   C24415056   5.028   4.706   1.938 -0.4834  0.1457  0.3151
   47MOL   C24515057   5.142   4.627   1.963 -0.4544  0.0242  0.6487
   47MOL   C24615058   5.264   4.655   1.900 -0.1440 -0.4979 -0.6055
   47MOL   C24715059   5.272   4.755   1.803 -0.0765  0.3160 -0.0466
   47MOL   C24815060   5.161   4.837   1.777 -0.1190 -0.2733  0.0104
   47MOL   C24915061   5.042   4.816   1.849  0.3912  0.4088 -0.2519
   47MOL   H25015062   4.987   4.675   2.182  0.6566  0.2532 -1.2180
   47MOL   H25115063   4.911   4.819   2.129 -0.1521  0.2946  0.0362
   47MOL   H25215064   4.823   4.744   1.952  2.0976  1.2250 -1.5618
   47MOL   H25315065   5.139   4.537   2.023 -2.7440 -0.6656 -0.4395
   47MOL   H25415066   5.354   4.595   1.905  0.6710  0.6432 -1.3448
   47MOL   H25515067   5.355   4.780   1.738 -0.9554 -0.0988 -1.3420
   47MOL   H25615068   5.156   4.914   1.701  0.9935 -1.1292 -0.9582
   47MOL   H25715069   4.962   4.886   1.829  0.3480  0.7054  0.9691
   47MOL   C25815070   4.836   4.527   1.973 -0.6057 -0.1656 -0.1476
   47MOL   C25915071   4.846   4.460   1.836 -0.8071  0.6516 -0.0989
   47MOL   C26015072   4.829   4.311   1.836  1.0353  0.8442 -0.5477
   47MOL   C26115073   4.921   4.235   1.769 -0.7384 -0.1969  0.1157
   47MOL   C26215074   4.916   4.091   1.775  0.2980  0.2209  0.1400
   47MOL   C26315075   4.805   4.033   1.837 -0.3004  0.0463 -0.1188
   47MOL   C26415076   4.703   4.111   1.894  0.3959  0.5827 -0.2437
   47MOL   C26515077   4.716   4.251   1.900 -0.4903  0.1666  1.2365
   47MOL   H26615078   4.729   4.519   1.992 -0.7775  0.8990 -0.6004
   47MOL   H26715079   4.891   4.455   2.033  0.0735 -0.2598 -0.8706
   47MOL   H26815080   4.951   4.474   1.808 -1.0451 -0.6647 -1.8224
   47MOL   H26915081   5.001   4.275   1.708 -0.2549 -1.4875 -0.1090
   47MOL   H27015082   4.987   4.031   1.720  2.1556  0.5919  2.0213
   47MOL   H27115083   4.791   3.926   1.846 -0.1677  0.0289 -0.1216
   47MOL   H27215084   4.614   4.061   1.931  0.4129  0.9971  0.3697
   47MOL   H27315085   4.640   4.307   1.953  1.5180  2.7757  1.5032
   47MOL   C27415086   4.752   4.535   1.739 -0.4555  0.8166  0.1174
   47MOL   C27515087   4.836   4.597   1.634 -0.3068 -0.1732  0.2786
   47MOL   C27615088   4.918   4.498   1.560 -0.0735  0.4809  0.5218
   47MOL   C27715089   4.853   4.416   1.465 -0.4810  0.5493 -0.4252
   47MOL   C27815090   4.933   4.311   1.406  0.8625  0.1837  0.2152
   47MOL   C27915091   5.072   4.314   1.416  0.1640  0.0647 -0.1266
   47MOL   C28015092   5.141   4.414   1.490  0.5879  0.1474 -0.3340
   47MOL   C28115093   5.061   4.503   1.564 -0.9802 -0.6092  0.0275
   47MOL   H28215094   4.692   4.615   1.783  1.2017  1.1458  1.8565
   47MOL   H28315095   4.688   4.462   1.690  0.8210 -0.3039  0.1034
   47MOL   H28415096   4.903   4.664   1.689 -0.2027  0.5546 -0.7287
   47MOL   H28515097   4.746   4.416   1.453 -0.5793  0.8865  0.4485
   47MOL   H28615098   4.881   4.240   1.344 -0.9584 -0.3711  2.3263
   47MOL   H28715099   5.131   4.231   1.380 -0.0992 -0.2736  0.2148
   47MOL   H28815100   5.248   4.425   1.495  0.5107  1.0158 -0.5093
   47MOL   H28915101   5.119   4.573   1.620 -1.9399  1.5254 -1.5675
   47MOL   C29015102   4.747   4.678   1.538  0.0510 -0.1389 -0.0051
   47MOL   C29115103   4.828   4.756   1.429 -1.1171 -0.5143 -0.7022
   47MOL   C29215104   4.737   4.835   1.336  0.2209 -0.3461  0.1838
   47MOL   C29315105   4.711   4.774   1.212  0.3706  0.4840  0.0062
   47MOL   C29415106   4.631   4.838   1.114 -0.8062 -0.0968  0.0280
   47MOL   C29515107   4.577   4.968   1.142  0.5127 -0.0767  0.2546
   47MOL   C29615108   4.602   5.029   1.262 -0.0736  0.2521  0.2239
   47MOL   C29715109   4.679   4.960   1.359 -0.2083 -0.7954 -0.0128
   47MOL   H29815110   4.683   4.736   1.604 -0.7753 -0.7999 -0.2176
   47MOL   H29915111   4.679   4.603   1.498 -0.6945  1.1972 -1.3084
   47MOL   H30015112   4.884   4.680   1.374 -0.9113  0.5328 -1.9632
   47MOL   H30115113   4.760   4.681   1.189 -3.8143 -1.7961 -0.2721
   47MOL   H30215114   4.615   4.805   1.012  0.4440 -1.0716  0.1272
   47MOL   H30315115   4.524   5.016   1.061  0.4014 -0.5080  0.0734
   47MOL   H30415116   4.560   5.125   1.288 -2.5388 -1.0219  1.1114
   47MOL   H30515117   4.695   5.013   1.453  0.1807 -0.5379 -0.2190
   47MOL   C30615118   4.938   4.847   1.486  0.1318  0.9569  0.2830
   47MOL   C30715119   5.018   4.921   1.375 -0.1004  0.1996 -0.6000
   47MOL   C30815120   5.094   5.045   1.435  0.0595 -0.3222 -0.7336
   47MOL   C30915121   5.224   5.026   1.494  0.0810 -0.3783  0.2672
   47MOL   C31015122   5.299   5.136   1.535 -0.0126 -0.2778 -0.6473
   47MOL   C31115123   5.242   5.268   1.528  0.8001  0.3291 -0.4101
   47MOL   C31215124   5.114   5.286   1.479  0.5631  0.3865 -0.2185
   47MOL   C31315125   5.037   5.173   1.438 -0.2757 -0.3650 -0.1703
   47MOL   H31415126   5.011   4.791   1.545 -1.4218  1.1275  2.4176
   47MOL   H31515127   4.890   4.909   1.561  1.7842 -0.6871  2.7569
   47MOL   H31615128   4.947   4.962   1.304  0.8812  2.0079 -0.5472
   47MOL   H31715129   5.271   4.931   1.510 -0.5277 -0.7106  0.1003
   47MOL   H31815130   5.401   5.127   1.568  0.1732  0.4925 -1.0062
   47MOL   H31915131   5.296   5.360   1.546  0.4539  0.6121 -0.8216
   47MOL   H32015132   5.088   5.390   1.482  2.8588  1.0115 -1.1364
   47MOL   H32115133   4.940   5.188   1.394 -0.2431  1.6266  0.3997
   47MOL   H32215134   5.091   4.852   1.332  0.1408 -0.7007  1.1621
   48MOL     C115135   6.988   1.045   5.836  0.5022  0.4200 -0.2229
   48MOL     C215136   6.841   1.109   5.831 -0.5730 -0.7025 -0.0792
   48MOL     C315137   6.757   1.067   5.711  0.1324 -0.1156 -0.4242
   48MOL     C415138   6.740   0.938   5.674 -0.2692  0.3996 -0.7421
   48MOL     C515139   6.659   0.908   5.567  0.2254  0.0859 -0.5466
   48MOL     C615140   6.580   1.001   5.506  0.6159  0.0344 -0.3257
   48MOL     C715141   6.580   1.133   5.549 -0.5671  0.2714  0.2790
   48MOL     C815142   6.674   1.169   5.656  0.2640  0.0372  0.9181
   48MOL     H915143   7.057   1.105   5.896  1.2217  1.0843 -1.6916
   48MOL    H1015144   6.988   0.948   5.887  1.3309  0.6759  0.2677
   48MOL    H1115145   6.868   1.213   5.813  0.4777 -1.0394 -0.5286
   48MOL    H1215146   6.809   0.865   5.713  0.0841  1.6774  1.1154
   48MOL    H1315147   6.661   0.804   5.539 -0.4584  0.0405 -0.4228
   48MOL    H1415148   6.530   0.972   5.414 -1.2295  3.5651 -0.4930
   48MOL    H1515149   6.524   1.214   5.506 -1.4000  0.1755  1.1627
   48MOL    H1615150   6.686   1.268   5.698  2.6606 -0.2830  1.0563
   48MOL    H1715151   7.021   1.038   5.733 -2.5409 -0.6844 -1.1704
   48MOL    C1815152   6.772   1.095   5.966 -0.0479  0.2691 -0.0565
   48MOL    C1915153   6.859   1.140   6.084 -0.8044 -0.1046  0.7344
   48MOL    C2015154   6.912   1.274   6.080 -0.0439 -0.5340  0.3443
   48MOL    C2115155   6.828   1.383   6.043  0.2326 -0.1085 -0.6663
   48MOL    C2215156   6.872   1.516   6.058 -0.1900  0.1258  0.5382
   48MOL    C2315157   6.996   1.542   6.124  0.4484 -0.2338 -0.1348
   48MOL    C2415158   7.080   1.435   6.160 -0.2734 -0.5148 -0.1792
   48MOL    C2515159   7.038   1.302   6.135 -0.4622 -0.0361  0.9938
   48MOL    H2615160   6.728   0.996   5.971  2.0651 -0.6667  0.1082
   48MOL    H2715161   6.686   1.162   5.972  0.8732  1.5511 -0.8380
   48MOL    H2815162   6.933   1.059   6.081 -1.6070 -0.7613 -2.7729
   48MOL    H2915163   6.732   1.377   5.994  0.3293 -1.4270 -0.7254
   48MOL    H3015164   6.819   1.593   6.004  0.6745 -0.7710 -1.6531
   48MOL    H3115165   7.035   1.641   6.146 -0.6400  0.5219 -1.5346
   48MOL    H3215166   7.177   1.438   6.207 -0.2035 -1.6234 -0.2430
   48MOL    H3315167   7.110   1.225   6.161  0.8094  0.3197 -1.3587
   48MOL    C3415168   6.781   1.128   6.218  0.0415 -0.7219 -0.3572
   48MOL    C3515169   6.734   0.988   6.255  0.1429  0.0138 -0.5375
   48MOL    C3615170   6.834   0.872   6.229  0.5972 -0.1983 -0.0495
   48MOL    C3715171   6.790   0.753   6.176  0.1240  0.1978  0.0746
   48MOL    C3815172   6.877   0.638   6.162 -0.7309  0.1924 -0.6225
   48MOL    C3915173   7.008   0.648   6.212  0.0076  0.3515  0.4725
   48MOL    C4015174   7.055   0.771   6.262 -0.1089 -0.1437 -0.0207
   48MOL    C4115175   6.963   0.875   6.287  0.5412  0.3600 -0.5465
   48MOL    H4215176   6.700   1.200   6.226  0.1713 -0.7033  0.8136
   48MOL    H4315177   6.857   1.156   6.291  1.9212 -1.6833 -1.8769
   48MOL    H4415178   6.654   0.969   6.184 -0.4145 -0.5012  0.2222
   48MOL    H4515179   6.685   0.745   6.155  0.0018 -1.0526  1.0840
   48MOL    H4615180   6.846   0.540   6.128 -0.4553 -0.7896  1.8570
   48MOL    H4715181   7.076   0.567   6.191 -1.0415 -0.3733 -0.1682
   48MOL    H4815182   7.160   0.793   6.272  0.0790 -0.8072 -0.5414
   48MOL    H4915183   6.996   0.966   6.337  1.9838 -0.5969  0.2782
   48MOL    C5015184   6.682   0.980   6.404 -0.7315  0.2656  0.1605
   48MOL    C5115185   6.543   1.047   6.429  0.3721 -0.1043  0.5589
   48MOL    C5215186   6.430   0.972   6.355  0.5617  0.0137  0.2273
   48MOL    C5315187   6.423   0.833   6.364  0.0829  0.2990  0.1836
   48MOL    C5415188   6.336   0.755   6.283 -0.5092 -0.8236 -0.7298
   48MOL    C5515189   6.265   0.824   6.180 -0.0511  0.6633 -0.2339
   48MOL    C5615190   6.272   0.958   6.173  0.4132 -0.3268  0.3602
   48MOL    C5715191   6.346   1.039   6.263  1.2790  0.0678 -0.2681
   48MOL    H5815192   6.757   1.028   6.468 -0.2864 -0.9113  0.5310
   48MOL    H5915193   6.679   0.877   6.440  0.8857  0.4211  0.7995
   48MOL    H6015194   6.542   1.142   6.375  0.3611 -0.2868  0.2404
   48MOL    H6115195   6.479   0.779   6.439  0.0392  0.5578  0.4001
   48MOL    H6215196   6.329   0.647   6.289 -1.3012 -0.7725 -0.7503
   48MOL    H6315197   6.202   0.766   6.115 -1.6043  1.1433  0.8231
   48MOL    H6415198   6.209   1.004   6.099  2.9458  1.1475 -0.9542
   48MOL    H6515199   6.346   1.147   6.253 -0.9768  0.0559 -0.7854
   48MOL    C6615200   6.509   1.069   6.576  0.1656 -0.1955  0.8321
   48MOL    C6715201   6.599   1.173   6.650  0.3082 -0.3220 -0.4913
   48MOL    C6815202   6.563   1.309   6.589  0.0276  0.1822  0.0044
   48MOL    C6915203   6.445   1.378   6.617  0.2562 -0.2416 -0.3866
   48MOL    C7015204   6.415   1.500   6.555 -0.2010 -0.0562 -0.0641
   48MOL    C7115205   6.499   1.547   6.458  0.5538 -0.1862  0.0597
   48MOL    C7215206   6.626   1.492   6.435 -0.8103  0.0589  0.6035
   48MOL    C7315207   6.654   1.364   6.496  0.2341 -0.4832 -0.3397
   48MOL    H7415208   6.532   0.974   6.624  1.4041 -0.7044 -0.7144
   48MOL    H7515209   6.401   1.078   6.589  0.0361 -0.2804 -0.1741
   48MOL    H7615210   6.701   1.144   6.626  0.6816 -0.6929  1.4755
   48MOL    H7715211   6.388   1.331   6.696 -0.0243 -0.2523 -0.5947
   48MOL    H7815212   6.314   1.535   6.570 -0.2560  1.8361 -4.0212
   48MOL    H7915213   6.472   1.628   6.392 -0.1094 -0.3070  0.1824
   48MOL    H8015214   6.689   1.533   6.357 -2.1920 -0.7414 -0.9578
   48MOL    H8115215   6.750   1.319   6.479  0.1443 -0.4109 -1.0317
   48MOL    C8215216   6.584   1.172   6.805 -0.2870 -0.2884  0.5250
   48MOL    C8315217   6.674   1.277   6.875  0.1328 -0.0670 -0.4890
   48MOL    C8415218   6.620   1.323   7.010 -0.5089  0.5992  0.3789
   48MOL    C8515219   6.628   1.241   7.126  0.1581  0.2690 -0.2287
   48MOL    C8615220   6.582   1.286   7.247  0.1393  0.0152 -0.3986
   48MOL    C8715221   6.553   1.424   7.263  0.8167 -0.9455  0.5276
   48MOL    C8815222   6.553   1.513   7.149 -0.6669 -0.6660 -0.5160
   48MOL    C8915223   6.587   1.460   7.024 -0.7401  0.2801 -0.4993
   48MOL    H9015224   6.600   1.074   6.850 -1.1708 -0.0378  1.4089
   48MOL    H9115225   6.481   1.201   6.825 -0.7208 -2.0693  0.9398
   48MOL    H9215226   6.667   1.358   6.802 -2.6934 -0.7081 -0.9965
   48MOL    H9315227   6.658   1.137   7.117  1.6169  0.5072  1.5748
   48MOL    H9415228   6.578   1.216   7.329 -1.4047  1.3414  0.7022
   48MOL    H9515229   6.530   1.473   7.356 -1.0416  2.5714 -1.6894
   48MOL    H9615230   6.532   1.619   7.160  0.2686 -0.1763 -3.1404
   48MOL    H9715231   6.580   1.526   6.939 -0.9169 -0.1517 -0.8236
   48MOL    C9815232   6.824   1.243   6.886  0.7371  0.7212  0.2895
   48MOL    C9915233   6.913   1.366   6.903  0.1748 -0.1791  0.6904
   48MOL   C10015234   7.056   1.329   6.923 -0.1100 -0.0328 -0.1573
   48MOL   C10115235   7.129   1.360   7.043 -0.7401 -0.3667 -0.6624
   48MOL   C10215236   7.268   1.340   7.060 -0.3024  0.1077  0.8302
   48MOL   C10315237   7.335   1.270   6.952 -0.3188 -0.6272 -0.8295
   48MOL   C10415238   7.265   1.222   6.844  0.5069 -0.0513  0.5249
   48MOL   C10515239   7.126   1.245   6.831  0.9805 -0.5074  0.6484
   48MOL   H10615240   6.853   1.194   6.794 -1.1724  0.7788 -0.3732
   48MOL   H10715241   6.847   1.164   6.958 -1.1693  0.6054  0.8013
   48MOL   H10815242   6.881   1.420   6.992 -0.3476  1.4203 -0.4435
   48MOL   H10915243   7.086   1.411   7.128 -0.9791  0.2514 -1.1549
   48MOL   H11015244   7.321   1.368   7.150  2.1281  0.8355 -0.7703
   48MOL   H11115245   7.442   1.259   6.962 -0.0181  1.4714 -1.6490
   48MOL   H11215246   7.314   1.155   6.775 -0.5389 -2.6827  2.2371
   48MOL   H11315247   7.074   1.187   6.756  2.2946 -0.8385 -0.0179
   48MOL   C11415248   6.894   1.469   6.789 -0.2022  0.4704 -0.3915
   48MOL   C11515249   6.993   1.584   6.775  0.6837 -0.8672  0.3772
   48MOL   C11615250   6.950   1.676   6.660  0.0862 -0.0650  0.2757
   48MOL   C11715251   7.019   1.681   6.536  0.1225  0.5212 -0.5988
   48MOL   C11815252   6.966   1.752   6.429 -0.0935 -0.7575 -0.5075
   48MOL   C11915253   6.836   1.805   6.428 -0.2984  0.0861 -0.0235
   48MOL   C12015254   6.770   1.794   6.545  0.2442  0.1307 -0.3803
   48MOL   C12115255   6.828   1.742   6.666 -0.2298 -0.0291  0.3516
   48MOL   H12215256   6.794   1.513   6.779 -1.2213 -1.7565 -0.2429
   48MOL   H12315257   6.897   1.409   6.699  0.6507  2.0129 -1.4160
   48MOL   H12415258   7.094   1.559   6.743  0.6026 -1.3767  0.5163
   48MOL   H12515259   7.112   1.628   6.520  0.9087  1.3960  0.9424
   48MOL   H12615260   7.021   1.768   6.338  1.4648  1.6903  0.8111
   48MOL   H12715261   6.793   1.848   6.338 -2.4801 -0.1934  0.8790
   48MOL   H12815262   6.669   1.833   6.550 -0.0900 -0.7928  0.2417
   48MOL   H12915263   6.769   1.740   6.756 -1.7688  0.6405 -0.6232
   48MOL   C13015264   7.003   1.657   6.909  0.4890 -0.1444  0.2648
   48MOL   C13115265   7.128   1.745   6.933 -1.1288 -0.4637  0.5135
   48MOL   C13215266   7.133   1.809   7.071 -0.7462  0.5318  0.5524
   48MOL   C13315267   7.110   1.950   7.088 -0.1516  1.1729 -0.6435
   48MOL   C13415268   7.123   2.010   7.217  0.5095  0.4806  1.1411
   48MOL   C13515269   7.141   1.934   7.333 -0.6482 -0.1029  0.2920
   48MOL   C13615270   7.151   1.796   7.314 -0.3013 -0.1069  0.6420
   48MOL   C13715271   7.160   1.736   7.187 -0.4218 -0.1667 -0.5367
   48MOL   H13815272   6.999   1.589   6.994  1.1475 -1.2657 -0.5889
   48MOL   H13915273   6.918   1.723   6.929 -0.2435 -0.9663 -0.0889
   48MOL   H14015274   7.111   1.827   6.864 -1.0146  0.1811  1.2562
   48MOL   H14115275   7.095   2.016   7.003  0.4367  0.5490 -1.2379
   48MOL   H14215276   7.108   2.117   7.223  0.5977  0.6404 -1.1727
   48MOL   H14315277   7.148   1.964   7.437 -1.0475 -1.7065  0.7852
   48MOL   H14415278   7.140   1.731   7.400 -0.5020 -1.5221 -0.4426
   48MOL   H14515279   7.174   1.629   7.188  4.6631  0.4192  0.6268
   48MOL   C14615280   7.260   1.677   6.885  0.1591  0.1916  0.0412
   48MOL   C14715281   7.394   1.727   6.939  0.2499 -0.4884 -0.4562
   48MOL   C14815282   7.500   1.627   6.929 -0.0650 -0.6958  0.0615
   48MOL   C14915283   7.550   1.582   7.048 -0.0759  0.4500  0.0146
   48MOL   C15015284   7.648   1.488   7.047  0.1831  0.3268  0.4744
   48MOL   C15115285   7.702   1.436   6.933  0.3208 -0.3823  0.2643
   48MOL   C15215286   7.637   1.465   6.810 -0.4489  0.7948  0.1396
   48MOL   C15315287   7.532   1.558   6.809 -0.2166 -0.5768 -0.2063
   48MOL   H15415288   7.258   1.689   6.777  1.4427  0.7220  0.0725
   48MOL   H15515289   7.264   1.570   6.907 -2.0082  0.4579  1.9702
   48MOL   H15615290   7.378   1.745   7.045 -3.3018 -0.3630 -0.9742
   48MOL   H15715291   7.516   1.618   7.144  1.3710 -0.4260  0.8617
   48MOL   H15815292   7.681   1.449   7.142  1.4657  1.2416  0.4085
   48MOL   H15915293   7.784   1.369   6.954  0.3337  0.2577  2.3095
   48MOL   H16015294   7.675   1.414   6.722 -0.5523 -1.0348  1.1423
   48MOL   H16115295   7.471   1.573   6.721  1.6835 -0.2794 -1.5126
   48MOL   C16215296   7.428   1.866   6.874 -0.3521  0.0769  0.2884
   48MOL   C16315297   7.558   1.937   6.942  0.0441 -0.3895  0.8151
   48MOL   C16415298   7.606   2.043   6.837 -0.1474 -0.5497  0.9536
   48MOL   C16515299   7.720   2.019   6.764  0.0963 -0.3647  0.0414
   48MOL   C16615300   7.770   2.119   6.681 -0.1073  0.1239  0.0611
   48MOL   C16715301   7.707   2.244   6.674  0.3425  0.9578 -0.0383
   48MOL   C16815302   7.591   2.267   6.747  0.0241  0.7062 -0.4641
   48MOL   C16915303   7.540   2.167   6.832 -0.3449  0.2232 -0.6376
   48MOL   H17015304   7.346   1.938   6.868  0.0776  0.7104  1.9316
   48MOL   H17115305   7.470   1.838   6.777 -0.3717 -1.4107  0.7043
   48MOL   H17215306   7.644   1.871   6.952  0.1043 -0.2623  1.1271
   48MOL   H17315307   7.771   1.925   6.773 -0.4830 -0.9306 -2.2186
   48MOL   H17415308   7.856   2.110   6.617  1.1513  1.0098  1.5865
   48MOL   H17515309   7.751   2.320   6.611  1.2694  1.3354  1.0355
   48MOL   H17615310   7.548   2.365   6.745  1.8185  1.5431  0.4253
   48MOL   H17715311   7.450   2.185   6.889  1.6876  2.5455  1.9428
   48MOL   C17815312   7.520   1.995   7.080 -0.2557  0.3079  0.0498
   48MOL   C17915313   7.610   2.102   7.141  0.3883 -0.2775 -0.7764
   48MOL   C18015314   7.553   2.145   7.279  0.2814 -1.5233 -0.4715
   48MOL   C18115315   7.513   2.283   7.286 -0.0459  0.4584  0.5397
   48MOL   C18215316   7.464   2.344   7.398  0.7483 -0.1849  0.0419
   48MOL   C18315317   7.451   2.260   7.514 -0.2994 -0.7104  0.0597
   48MOL   C18415318   7.479   2.121   7.512  0.5356  0.0239  0.1345
   48MOL   C18515319   7.540   2.063   7.394 -0.4029  1.0152 -0.2235
   48MOL   H18615320   7.508   1.914   7.152 -2.0376  0.3265 -0.1988
   48MOL   H18715321   7.418   2.034   7.073 -0.4089  0.2638  1.6756
   48MOL   H18815322   7.611   2.195   7.082 -0.7157  0.7205  0.7576
   48MOL   H18915323   7.517   2.354   7.205  0.8173 -0.0968  0.0922
   48MOL   H19015324   7.436   2.448   7.393 -2.6652 -1.1241 -2.3430
   48MOL   H19115325   7.410   2.303   7.604  0.9563 -0.0047  0.3190
   48MOL   H19215326   7.466   2.069   7.606  0.6314  0.7133  0.5334
   48MOL   H19315327   7.578   1.963   7.379 -4.1736 -0.3257 -1.2843
   48MOL   C19415328   7.748   2.050   7.144 -0.3197  0.8636  0.4006
   48MOL   C19515329   7.835   2.071   7.268 -0.7199 -0.1902 -0.0730
   48MOL   C19615330   7.959   1.993   7.244  0.5309  0.8177  0.0789
   48MOL   C19715331   7.984   1.882   7.316 -0.6090 -0.0266 -0.7980
   48MOL   C19815332   8.099   1.800   7.299 -0.7735 -0.1228 -0.6645
   48MOL   C19915333   0.079   1.837   7.208  0.1313  0.0606  0.6862
   48MOL   C20015334   0.065   1.959   7.138 -0.6674  0.2987 -0.0269
   48MOL   C20115335   8.061   2.034   7.153  0.1368  0.7993 -0.3146
   48MOL   H20215336   7.794   2.071   7.048 -2.6698  1.2887 -0.6757
   48MOL   H20315337   7.737   1.942   7.140 -1.3220  0.9852 -0.3060
   48MOL   H20415338   7.787   2.027   7.355 -1.3170  2.0886  0.7824
   48MOL   H20515339   7.926   1.831   7.391  1.7731  0.1122  1.1768
   48MOL   H20615340   8.113   1.708   7.355  2.0636  0.1556 -0.8300
   48MOL   H20715341   0.159   1.765   7.196 -0.8999 -1.4661  2.6078
   48MOL   H20815342   0.141   1.991   7.069  0.2743  0.9519  1.3020
   48MOL   H20915343   8.056   2.121   7.089 -1.8748  0.0971 -1.1486
   48MOL   C21015344   7.866   2.224   7.307 -0.3210  0.5038 -0.5593
   48MOL   C21115345   7.869   2.246   7.458  0.2741 -0.3124  0.0100
   48MOL   C21215346   7.979   2.174   7.526  0.5147 -0.5206 -0.0258
   48MOL   C21315347   8.112   2.211   7.514 -0.6432  0.1077 -0.3090
   48MOL   C21415348   0.099   2.149   7.591  0.5709  0.0162 -0.0568
   48MOL   C21515349   0.066   2.035   7.672  0.2186 -0.0230 -0.3348
   48MOL   C21615350   8.043   2.007   7.696 -0.9750 -0.9445 -0.5400
   48MOL   C21715351   7.943   2.075   7.620 -0.1869  0.3778  1.0047
   48MOL   H21815352   7.781   2.281   7.269 -0.7512 -1.3241 -2.4443
   48MOL   H21915353   7.959   2.254   7.258 -0.1401  0.2255 -0.3914
   48MOL   H22015354   7.770   2.219   7.495 -0.2381  0.4867 -0.7481
   48MOL   H22115355   0.025   2.296   7.453  0.9930 -0.1086  0.0954
   48MOL   H22215356   0.204   2.174   7.581  1.0507 -1.3654  1.3320
   48MOL   H22315357   0.143   1.989   7.732 -1.8318 -1.6884  1.0785
   48MOL   H22415358   8.019   1.928   7.767  0.3072  1.0084  2.1447
   48MOL   H22515359   7.841   2.042   7.634 -0.2499 -0.8374 -1.9246
   48MOL   C22615360   7.872   2.394   7.483  0.3165 -1.0656  0.6176
   48MOL   C22715361   7.854   2.439   7.632 -0.3709 -0.3128  0.6623
   48MOL   C22815362   7.890   2.584   7.651  0.1325 -0.5449  0.3634
   48MOL   C22915363   7.808   2.677   7.573  0.5820 -0.5188  0.0281
   48MOL   C23015364   7.852   2.814   7.562 -0.6945  0.1446  0.4449
   48MOL   C23115365   7.954   2.860   7.644  1.0224  0.5586  0.0405
   48MOL   C23215366   8.034   2.765   7.715 -0.6382 -0.8161 -0.1529
   48MOL   C23315367   8.002   2.630   7.727  0.3898  0.2510  0.1125
   48MOL   H23415368   7.787   2.442   7.435  1.2709  0.6120  0.5607
   48MOL   H23515369   7.967   2.436   7.449  0.5502 -1.2373  1.0514
   48MOL   H23615370   7.932   2.395   7.694  0.3296 -1.1293 -0.7747
   48MOL   H23715371   7.722   2.645   7.515 -1.0399 -0.3097  2.2794
   48MOL   H23815372   7.795   2.885   7.503  0.8639  2.0872  1.1923
   48MOL   H23915373   7.989   2.961   7.629 -0.1141  0.8549 -0.6491
   48MOL   H24015374   0.004   2.803   7.770 -0.9363 -1.5126  0.8093
   48MOL   H24115375   8.075   2.565   7.773 -0.8547 -0.2876  1.3697
   48MOL   C24215376   7.718   2.407   7.698  0.1782  0.2699  0.2466
   48MOL   C24315377   7.710   2.417   7.854  0.6209  0.3178 -0.5815
   48MOL   C24415378   7.814   2.330   7.917  0.0633  0.2093 -0.2844
   48MOL   C24515379   7.799   2.193   7.928 -0.5852  0.2768  0.2693
   48MOL   C24615380   7.901   2.113   7.981  1.1455  0.3745  0.1150
   48MOL   C24715381   8.020   2.179   8.020  0.0814 -0.0262  1.0673
   48MOL   C24815382   8.045   2.316   8.008 -0.5342  0.5503  0.0888
   48MOL   C24915383   7.931   2.389   7.960  0.2574  0.3765 -0.3400
   48MOL   H25015384   7.708   2.300   7.678 -1.3593  0.2325  1.1269
   48MOL   H25115385   7.635   2.454   7.646  0.3984 -0.7010 -1.0225
   48MOL   H25215386   7.613   2.372   7.874  0.1068  2.0504  0.9621
   48MOL   H25315387   7.705   2.145   7.903 -0.5707 -0.2925  1.2799
   48MOL   H25415388   7.886   2.009   8.006  0.7441  0.5863  0.7606
   48MOL   H25515389   8.100   2.120   8.062  0.2746 -0.9595 -0.6079
   48MOL   H25615390   0.025   2.356   8.041 -0.3520 -0.5542  0.9528
   48MOL   H25715391   7.945   2.496   7.948  2.1341  0.1886 -0.0549
   48MOL   C25815392   7.704   2.568   7.913  0.3050  0.3287 -0.0084
   48MOL   C25915393   7.563   2.636   7.902  0.1097 -0.3467  0.2231
   48MOL   C26015394   7.461   2.545   7.974  0.1836  1.1792 -0.5718
   48MOL   C26115395   7.468   2.525   0.000 -0.4735  0.3276 -0.3212
   48MOL   C26215396   7.381   2.443   0.063  1.1253 -0.4941 -0.4307
   48MOL   C26315397   7.275   2.381   8.111  0.7687  0.5045 -0.4680
   48MOL   C26415398   7.255   2.416   7.977  0.6731 -0.3904  0.3755
   48MOL   C26515399   7.345   2.498   7.905 -0.2480 -0.5075 -0.4746
   48MOL   H26615400   7.775   2.631   7.859  1.3570  0.2871  1.3187
   48MOL   H26715401   7.737   2.587   8.015 -1.9248  2.8970  0.2751
   48MOL   H26815402   7.533   2.642   7.797 -0.7008  2.3617  0.5703
   48MOL   H26915403   7.552   2.570   0.050 -0.6503  1.3307 -0.9029
   48MOL   H27015404   7.404   2.426   0.168 -0.8261 -1.8852 -0.1930
   48MOL   H27115405   7.211   2.308   0.043  2.3808  0.0027  1.0470
   48MOL   H27215406   7.177   2.368   7.919 -1.1197  0.0309  2.3980
   48MOL   H27315407   7.321   2.531   7.805 -0.1378  0.0663 -0.3130
   48MOL   C27415408   7.548   2.780   7.956 -0.5785  0.0870 -0.3413
   48MOL   C27515409   7.557   2.894   7.859  0.1925  0.3363 -0.1106
   48MOL   C27615410   7.468   2.874   7.734 -0.2652  0.2970 -0.2932
   48MOL   C27715411   7.339   2.819   7.740  0.0530 -0.6614  0.4493
   48MOL   C27815412   7.264   2.795   7.623  0.0277 -0.0920 -0.2760
   48MOL   C27915413   7.321   2.816   7.497  0.5810 -0.0920 -0.0192
   48MOL   C28015414   7.450   2.870   7.489  0.6256 -0.1282 -0.2521
   48MOL   C28115415   7.520   2.906   7.606  0.1714  0.0810  0.2082
   48MOL   H28215416   7.616   2.794   8.040 -1.3169  0.0085  0.2744
   48MOL   H28315417   7.449   2.784   8.001  0.0401  1.0615  0.9782
   48MOL   H28415418   7.662   2.882   7.833  0.3474 -1.5355  1.2961
   48MOL   H28515419   7.299   2.794   7.837 -0.7114  0.4585  0.4315
   48MOL   H28615420   7.159   2.775   7.630  0.0497  0.3890  1.6944
   48MOL   H28715421   7.277   2.797   7.400  0.2276  1.6674 -0.2200
   48MOL   H28815422   7.502   2.885   7.396 -0.1763  3.4044 -0.2260
   48MOL   H28915423   7.615   2.954   7.590  0.3694 -1.1793 -2.9219
   48MOL   C29015424   7.538   3.034   7.927 -0.6746 -0.1065 -0.1443
   48MOL   C29115425   7.591   3.161   7.856 -0.3052 -0.6124  0.1046
   48MOL   C29215426   7.553   3.288   7.937 -0.0840 -1.0199  0.3097
   48MOL   C29315427   7.613   3.320   8.063  0.6577  0.6393 -0.0996
   48MOL   C29415428   7.585   3.447   0.005  1.0537  0.2060 -0.3417
   48MOL   C29515429   7.482   3.529   8.064 -0.3422  0.1497 -0.1946
   48MOL   C29615430   7.419   3.492   7.942 -0.6804  0.4370  0.1012
   48MOL   C29715431   7.458   3.373   7.878 -0.3618  0.2518 -1.1551
   48MOL   H29815432   7.599   3.027   8.018  1.6764  1.6941 -1.5048
   48MOL   H29915433   7.434   3.050   7.956 -0.1638  0.7088  1.3358
   48MOL   H30015434   7.546   3.160   7.757  1.7180  0.8197 -0.8684
   48MOL   H30115435   7.672   3.245   8.112  0.2553 -0.1086 -0.7473
   48MOL   H30215436   7.629   3.477   0.099 -0.8212 -0.3198  0.7270
   48MOL   H30315437   7.469   3.625   8.112  0.3003 -0.1738  0.6429
   48MOL   H30415438   7.340   3.546   7.892 -0.4799  0.2728 -0.4026
   48MOL   H30515439   7.405   3.345   7.788  0.3358 -2.2602 -0.8194
   48MOL   C30615440   7.740   3.158   7.820  0.4522 -0.5249  0.2532
   48MOL   C30715441   7.780   3.267   7.719  0.4888  0.1012  0.0939
   48MOL   C30815442   7.742   3.238   7.569 -0.1868 -0.6871 -0.0104
   48MOL   C30915443   7.832   3.164   7.487  0.6822  0.3962 -0.8114
   48MOL   C31015444   7.792   3.115   7.361 -0.0972  0.6258  0.4253
   48MOL   C31115445   7.665   3.156   7.304 -0.7741  0.2721 -0.1886
   48MOL   C31215446   7.579   3.233   7.382  0.2876 -0.5153 -0.2166
   48MOL   C31315447   7.615   3.270   7.514  0.4415  0.0495  0.6315
   48MOL   H31415448   7.776   3.065   7.774 -0.0528 -0.3712 -0.4570
   48MOL   H31515449   7.794   3.174   7.913  0.9605 -0.4513 -0.0506
   48MOL   H31615450   7.886   3.293   7.728  0.6321 -0.8004  1.0623
   48MOL   H31715451   7.934   3.146   7.516  1.5026  2.6867 -2.1059
   48MOL   H31815452   7.859   3.060   7.296 -1.5390 -0.3532 -0.2365
   48MOL   H31915453   7.639   3.134   7.202  0.6301 -0.6288 -0.3680
   48MOL   H32015454   7.477   3.258   7.359  0.4044 -0.7904 -1.0325
   48MOL   H32115455   7.546   3.328   7.573 -0.1161  0.7887 -0.7295
   48MOL   H32215456   7.730   3.358   7.752  1.6493  0.6711  0.3340
   49MOL     C115457   0.388   3.814   6.217 -0.2422 -0.1104 -0.6542
   49MOL     C215458   0.334   3.890   6.096 -0.2993 -0.4099 -0.3375
   49MOL     C315459   0.438   3.892   5.978  1.1213 -0.0680  0.2650
   49MOL     C415460   0.531   3.789   5.961 -0.6844  0.1395  0.7678
   49MOL     C515461   0.624   3.788   5.853  0.2827  0.3505 -0.9823
   49MOL     C615462   0.632   3.902   5.771  0.1419  0.5450 -0.0699
   49MOL     C715463   0.542   4.009   5.785 -0.0904 -0.4056  0.7608
   49MOL     C815464   0.441   4.004   5.886  0.2800  0.7628  0.2428
   49MOL     H915465   0.381   3.706   6.211 -0.9860 -0.3409  3.2207
   49MOL    H1015466   0.492   3.825   6.245 -0.3662  2.6861 -1.1439
   49MOL    H1115467   0.319   3.990   6.135 -0.7840 -0.6184  0.0165
   49MOL    H1215468   0.542   3.704   6.027  0.9493  0.5055  0.9812
   49MOL    H1315469   0.697   3.709   5.843 -0.7141 -0.6936 -0.2048
   49MOL    H1415470   0.698   3.890   5.687  1.1840  0.9572  0.6873
   49MOL    H1515471   0.540   4.093   5.718  0.8134  1.2708  2.7900
   49MOL    H1615472   0.371   4.086   5.893  1.4443  1.6359  1.9184
   49MOL    H1715473   0.329   3.830   6.307  0.8407 -2.6735  0.5526
   49MOL    C1815474   0.198   3.838   6.036  0.0411  0.5074  0.0057
   49MOL    C1915475   0.080   3.847   6.132 -0.0628 -0.1199 -1.1886
   49MOL    C2015476   0.057   3.994   6.166 -0.5864 -0.1535  0.3544
   49MOL    C2115477   0.057   4.035   6.304 -0.1895 -0.7156  0.5307
   49MOL    C2215478   0.040   4.170   6.335 -0.4521  0.2401 -0.1018
   49MOL    C2315479   0.013   4.260   6.226 -0.2389  0.1298  0.0526
   49MOL    C2415480   0.005   4.218   6.095  0.8110 -0.4676  0.2236
   49MOL    C2515481   0.033   4.085   6.062 -0.1241  0.7483 -0.0142
   49MOL    H2615482   0.213   3.735   6.003 -0.3599  1.0482 -1.9625
   49MOL    H2715483   0.178   3.898   5.947 -0.6084  0.5203  0.1615
   49MOL    H2815484   0.109   3.788   6.219 -0.7369  0.1289 -0.7899
   49MOL    H2915485   0.066   3.978   6.395 -1.3750  0.1756  1.2255
   49MOL    H3015486   0.025   4.216   6.431  0.3589  0.8995 -0.2851
   49MOL    H3115487   0.013   4.366   6.244  2.3596  0.1995 -0.2285
   49MOL    H3215488   8.114   4.281   6.008  0.2208 -0.5900  0.1751
   49MOL    H3315489   0.023   4.054   5.959  1.9788  1.0905 -0.3455
   49MOL    C3415490   8.070   3.786   6.069  0.1398  0.5817  0.3802
   49MOL    C3515491   7.937   3.765   6.142 -0.0842 -0.1611 -0.3051
   49MOL    C3615492   7.953   3.665   6.260  0.6139 -0.4831  0.0186
   49MOL    C3715493   7.930   3.528   6.245 -0.1439 -0.2922 -0.3475
   49MOL    C3815494   7.936   3.440   6.357  1.1553 -0.2570  0.2979
   49MOL    C3915495   7.955   3.487   6.485  0.0426  0.1074  0.5449
   49MOL    C4015496   7.959   3.623   6.503  0.4030  0.1912 -0.3250
   49MOL    C4115497   7.967   3.716   6.392 -0.2953 -0.1051 -0.7050
   49MOL    H4215498   8.099   3.691   6.023  0.2327 -0.0860  1.8025
   49MOL    H4315499   8.042   3.847   5.983  0.2642 -1.8368 -1.4569
   49MOL    H4415500   7.876   3.713   6.067  2.2386 -3.6265  0.0516
   49MOL    H4515501   7.913   3.481   6.149  0.7260 -0.3198 -0.4901
   49MOL    H4615502   7.930   3.332   6.345 -1.9752 -0.2010  0.7995
   49MOL    H4715503   7.953   3.404   6.555 -2.2765 -1.2034 -1.0062
   49MOL    H4815504   7.970   3.657   6.605  3.5053 -2.0097  0.1325
   49MOL    H4915505   7.969   3.820   6.421  0.4811 -0.0076 -1.0901
   49MOL    C5015506   7.853   3.892   6.188 -0.5596  0.9648  0.5222
   49MOL    C5115507   7.803   3.992   6.083  0.0001  0.2765 -0.8754
   49MOL    C5215508   7.720   3.922   5.978 -0.2867  0.4484 -0.1622
   49MOL    C5315509   7.595   3.868   6.006  0.4165 -0.3232 -0.1270
   49MOL    C5415510   7.530   3.798   5.898 -0.8804  0.2321 -0.4353
   49MOL    C5515511   7.585   3.789   5.772  0.5906 -0.2547  0.7186
   49MOL    C5615512   7.704   3.856   5.740  0.1335 -0.0310  0.6200
   49MOL    C5715513   7.770   3.928   5.843 -0.3697 -0.1028  0.1078
   49MOL    H5815514   7.913   3.955   6.253  0.6333  0.4800 -0.0987
   49MOL    H5915515   7.771   3.854   6.249 -0.3722 -1.2154 -0.5193
   49MOL    H6015516   7.895   4.028   6.036 -0.3026  0.3417 -1.4213
   49MOL    H6115517   7.549   3.875   6.103 -1.2696  0.9227 -0.9817
   49MOL    H6215518   7.437   3.750   5.927  0.2539 -2.3344 -0.9005
   49MOL    H6315519   7.530   3.739   5.694 -0.3672 -1.8559  2.3903
   49MOL    H6415520   7.740   3.861   5.638 -1.4847  2.6059  0.1275
   49MOL    H6515521   7.862   3.979   5.821  2.1270 -3.9331  1.2331
   49MOL    C6615522   7.720   4.101   6.161  0.2090  0.4976 -0.6075
   49MOL    C6715523   7.659   4.216   6.081  0.0993  1.0815  0.5484
   49MOL    C6815524   7.557   4.296   6.161  0.2772 -0.0649  0.1998
   49MOL    C6915525   7.586   4.375   6.273  0.6590  0.4829 -0.1965
   49MOL    C7015526   7.475   4.428   6.343  0.5396  0.2257  0.1795
   49MOL    C7115527   7.342   4.419   6.301 -0.4387 -0.2519 -0.2369
   49MOL    C7215528   7.320   4.350   6.180  0.0335 -0.2848 -0.3985
   49MOL    C7315529   7.425   4.292   6.118 -0.3575  0.0503 -0.4416
   49MOL    H7415530   7.791   4.144   6.232  1.5715 -2.3291 -0.2056
   49MOL    H7515531   7.641   4.061   6.225 -0.8149  3.1111 -0.1642
   49MOL    H7615532   7.608   4.187   5.990  2.8898 -0.0838 -0.6925
   49MOL    H7715533   7.683   4.393   6.318 -0.0484 -2.6552  2.7926
   49MOL    H7815534   7.488   4.486   6.433 -1.3465  0.1374  0.5406
   49MOL    H7915535   7.265   4.472   6.355 -0.8565  1.1692 -2.1902
   49MOL    H8015536   7.217   4.335   6.152  0.2322  0.6982 -1.7177
   49MOL    H8115537   7.407   4.236   6.027  1.0182 -0.2735 -0.5275
   49MOL    C8215538   7.766   4.311   6.031  0.1595  0.1904 -0.1009
   49MOL    C8315539   7.736   4.374   5.894 -1.0933 -0.3526 -0.2765
   49MOL    C8415540   7.775   4.521   5.899 -0.5096  0.3648 -0.3648
   49MOL    C8515541   7.708   4.612   5.818 -0.0552 -0.9680  0.3623
   49MOL    C8615542   7.748   4.749   5.814  0.1449  0.0899 -0.8394
   49MOL    C8715543   7.857   4.796   5.895 -0.3987  0.6668 -0.0470
   49MOL    C8815544   7.925   4.707   5.982  0.0512  0.1141  0.8654
   49MOL    C8915545   7.885   4.567   5.974  0.1331  0.5954 -0.5528
   49MOL    H9015546   7.868   4.272   6.018  0.5048  1.7292 -2.2527
   49MOL    H9115547   7.778   4.376   6.118  0.5976 -1.9957  1.5280
   49MOL    H9215548   7.629   4.369   5.876 -0.5614 -1.9374 -3.3141
   49MOL    H9315549   7.632   4.576   5.750 -1.1055 -0.9590  1.5258
   49MOL    H9415550   7.702   4.820   5.746  0.0450  1.3010  0.4794
   49MOL    H9515551   7.880   4.901   5.882  0.5638  0.6300  1.3450
   49MOL    H9615552   8.017   4.736   6.031  0.4438  0.2921  0.0329
   49MOL    H9715553   7.955   4.502   6.025  0.7131 -1.1813 -3.5041
   49MOL    C9815554   7.817   4.310   5.772 -0.4842 -0.1381 -0.0829
   49MOL    C9915555   7.768   4.339   5.633  0.1703 -0.2902 -0.4564
   49MOL   C10015556   7.881   4.301   5.533  0.0361  0.9548 -0.0669
   49MOL   C10115557   7.916   4.162   5.521  0.2146 -0.1083  0.6802
   49MOL   C10215558   8.020   4.129   5.429  0.0922 -0.3741  0.4058
   49MOL   C10315559   8.083   4.231   5.353 -0.0613 -0.2864 -0.7457
   49MOL   C10415560   8.054   4.366   5.365 -0.7960 -1.0753 -0.7296
   49MOL   C10515561   7.959   4.403   5.462  0.1054  0.2440 -0.1822
   49MOL   H10615562   7.821   4.202   5.790  2.7232  0.2610  2.1436
   49MOL   H10715563   7.921   4.341   5.777 -0.3668 -0.6580  0.9810
   49MOL   H10815564   7.749   4.446   5.627  2.2148  0.2137  1.3351
   49MOL   H10915565   7.869   4.085   5.581 -1.7798  0.0743 -0.6053
   49MOL   H11015566   8.053   4.029   5.406  1.7136  0.5237 -1.2966
   49MOL   H11115567   0.033   4.206   5.271 -0.2786 -0.4779 -0.8592
   49MOL   H11215568   8.093   4.440   5.297  0.7262 -0.8025  0.4248
   49MOL   H11315569   7.936   4.508   5.466 -0.3437  0.0848  2.1840
   49MOL   C11415570   7.637   4.263   5.599  1.0851  0.4894  0.2953
   49MOL   C11515571   7.557   4.283   5.467 -0.5426 -0.4645 -0.7524
   49MOL   C11615572   7.637   4.360   5.360 -0.1983  0.4907  0.0113
   49MOL   C11715573   7.626   4.499   5.369  0.6152  0.0364 -0.1721
   49MOL   C11815574   7.680   4.580   5.267  0.4909  0.7096 -0.1743
   49MOL   C11915575   7.747   4.519   5.162 -0.8530  0.9376  0.7381
   49MOL   C12015576   7.762   4.377   5.151 -0.6626  0.3213 -0.6612
   49MOL   C12115577   7.710   4.298   5.256 -0.4460  0.2076  0.1186
   49MOL   H12215578   7.561   4.272   5.676 -0.0756 -0.0173 -0.7647
   49MOL   H12315579   7.657   4.156   5.602 -1.8582 -0.1752 -1.4796
   49MOL   H12415580   7.477   4.354   5.489  0.5981  1.3409 -2.2606
   49MOL   H12515581   7.576   4.545   5.453 -0.2590  1.2001 -1.3151
   49MOL   H12615582   7.659   4.686   5.265  1.4671  0.9465  1.2632
   49MOL   H12715583   7.800   4.576   5.087  1.1167  0.3175  1.6192
   49MOL   H12815584   7.826   4.322   5.084 -0.3896 -1.9044  1.3473
   49MOL   H12915585   7.738   4.194   5.256  2.1721  0.8764  0.8971
   49MOL   C13015586   7.484   4.161   5.417  0.0744  0.3650  0.3037
   49MOL   C13115587   7.383   4.197   5.303 -0.2966 -0.4943  0.0472
   49MOL   C13215588   7.412   4.111   5.183 -0.8126  0.0141  0.2616
   49MOL   C13315589   7.429   3.973   5.197 -0.4251 -0.6589 -0.5735
   49MOL   C13415590   7.440   3.887   5.087 -0.1213 -0.7441 -0.8314
   49MOL   C13515591   7.470   3.957   4.965  0.0964 -0.5014 -0.1210
   49MOL   C13615592   7.481   4.098   4.954  0.4070  0.3037  0.1854
   49MOL   C13715593   7.444   4.174   5.063 -0.0901  0.3428 -0.6057
   49MOL   H13815594   7.439   4.102   5.496 -0.9899 -0.3881 -0.8369
   49MOL   H13915595   7.565   4.095   5.384  0.7482  1.0077  0.6447
   49MOL   H14015596   7.393   4.302   5.277 -3.4387 -0.3320 -0.6946
   49MOL   H14115597   7.406   3.924   5.291 -1.9252  2.4980  0.7672
   49MOL   H14215598   7.442   3.780   5.099  1.1162 -0.4175  2.3429
   49MOL   H14315599   7.490   3.900   4.876  2.9554  0.5184 -0.1727
   49MOL   H14415600   7.504   4.146   4.860 -0.8033  1.1372  0.3193
   49MOL   H14515601   7.443   4.282   5.060  0.0811  0.3376 -0.7821
   49MOL   C14615602   7.234   4.198   5.338  0.5013  0.5045 -0.1097
   49MOL   C14715603   7.182   4.224   5.482 -0.0592 -0.5377 -0.1830
   49MOL   C14815604   7.230   4.355   5.542 -0.4504  0.5592  0.4376
   49MOL   C14915605   7.212   4.478   5.480  0.5787  0.3824 -0.5118
   49MOL   C15015606   7.255   4.594   5.544  0.1804  1.1433  0.8421
   49MOL   C15115607   7.312   4.586   5.671 -0.6386  0.4716  0.4360
   49MOL   C15215608   7.330   4.461   5.735  0.2335 -0.4468  0.2096
   49MOL   C15315609   7.292   4.345   5.669 -0.3622 -0.6253 -0.3553
   49MOL   H15415610   7.204   4.094   5.331 -0.0218  0.7345 -1.4225
   49MOL   H15515611   7.180   4.264   5.269 -0.2959  0.1529  0.1791
   49MOL   H15615612   7.227   4.153   5.552  2.1345  1.2501  0.2810
   49MOL   H15715613   7.159   4.485   5.386  0.6747 -3.4434 -0.9122
   49MOL   H15815614   7.243   4.687   5.490  0.3394 -0.5610 -2.1845
   49MOL   H15915615   7.342   4.680   5.716  3.5811 -0.0569 -1.0415
   49MOL   H16015616   7.369   4.464   5.836 -1.6282  0.1099  0.9211
   49MOL   H16115617   7.305   4.248   5.714 -0.2450 -1.2719 -1.7632
   49MOL   C16215618   7.031   4.212   5.496  0.1088 -0.5800  0.3084
   49MOL   C16315619   6.983   4.066   5.532 -0.6725  0.5420 -0.5176
   49MOL   C16415620   7.042   4.004   5.660  0.1046  0.7793 -0.5712
   49MOL   C16515621   7.024   4.064   5.785 -0.4063 -0.3071 -0.1299
   49MOL   C16615622   7.076   4.000   5.901  0.9402  0.1299  0.2609
   49MOL   C16715623   7.145   3.876   5.893 -0.0366  0.0716 -0.9997
   49MOL   C16815624   7.160   3.809   5.771 -0.3239 -0.6439  0.2335
   49MOL   C16915625   7.113   3.879   5.656  0.1256 -0.0483  0.2107
   49MOL   H17015626   6.978   4.242   5.406 -2.2168  0.7807  2.0810
   49MOL   H17115627   7.002   4.280   5.576  0.1350 -1.0633  0.7321
   49MOL   H17215628   7.029   3.998   5.460 -0.6677  0.1907 -0.1832
   49MOL   H17315629   6.986   4.160   5.813  0.3141  0.2548 -1.0436
   49MOL   H17415630   7.074   4.059   5.992 -0.4284  1.1373 -0.4180
   49MOL   H17515631   7.183   3.829   5.982 -0.9688  1.0043 -0.0876
   49MOL   H17615632   7.219   3.719   5.758 -0.5824 -0.8745  0.6710
   49MOL   H17715633   7.122   3.826   5.562 -3.5352  1.0910 -0.8713
   49MOL   C17815634   6.831   4.055   5.519 -0.8137  0.0515  0.1759
   49MOL   C17915635   6.777   4.015   5.372 -1.2135  0.7422 -0.0786
   49MOL   C18015636   6.833   3.884   5.318  0.2021 -0.4006 -0.0893
   49MOL   C18115637   6.893   3.888   5.191  0.0636 -0.3252  0.1807
   49MOL   C18215638   6.945   3.770   5.136  0.6865 -0.0708 -0.1241
   49MOL   C18315639   6.933   3.648   5.205  0.1389 -0.3364  0.5218
   49MOL   C18415640   6.881   3.647   5.336 -0.7724  0.1184  0.6444
   49MOL   C18515641   6.827   3.761   5.390  0.4031  0.6859 -0.8944
   49MOL   H18615642   6.776   4.143   5.554  0.4130  0.1969  1.7532
   49MOL   H18715643   6.789   3.986   5.592  4.5416 -2.1125  1.4066
   49MOL   H18815644   6.809   4.097   5.307  0.7334  0.2131  0.1576
   49MOL   H18915645   6.915   3.977   5.134  2.6537  1.0222  3.1035
   49MOL   H19015646   6.999   3.781   5.043 -1.4996 -1.4548 -1.6032
   49MOL   H19115647   6.959   3.559   5.149 -1.3742  0.0711 -0.8805
   49MOL   H19215648   6.877   3.548   5.379  0.8159  0.2262  1.0689
   49MOL   H19315649   6.772   3.753   5.482 -0.9325 -2.5750 -1.9160
   49MOL   C19415650   6.623   4.031   5.369  0.2949 -0.1028  0.2314
   49MOL   C19515651   6.556   3.994   5.233  0.6683 -0.4593  0.0393
   49MOL   C19615652   6.511   3.847   5.243  0.4108  0.2611  0.3858
   49MOL   C19715653   6.417   3.804   5.341 -0.6926 -0.0350  0.3327
   49MOL   C19815654   6.384   3.664   5.356 -0.5631  0.6354  0.6640
   49MOL   C19915655   6.444   3.571   5.268 -0.5006 -0.4465  0.1439
   49MOL   C20015656   6.536   3.616   5.169  0.1839 -0.7416 -0.2362
   49MOL   C20115657   6.577   3.754   5.160 -0.2166  0.1469 -0.2608
   49MOL   H20215658   6.609   4.137   5.389  1.5117 -0.0453  0.8503
   49MOL   H20315659   6.569   3.992   5.456  1.9115 -2.6263  0.1695
   49MOL   H20415660   6.633   4.003   5.157 -1.1592  0.1001 -1.7692
   49MOL   H20515661   6.380   3.871   5.416  0.3253  1.0006 -0.0753
   49MOL   H20615662   6.314   3.629   5.431  0.3285 -1.5468  0.5092
   49MOL   H20715663   6.407   3.470   5.275 -1.3741 -0.4824 -4.1552
   49MOL   H20815664   6.572   3.540   5.101  0.9492  0.3819 -1.0970
   49MOL   H20915665   6.653   3.786   5.091  0.2960  1.4584  0.8777
   49MOL   C21015666   6.429   4.090   5.205 -0.4094  0.0742 -0.1725
   49MOL   C21115667   6.459   4.242   5.188 -0.0668  0.4295 -0.1266
   49MOL   C21215668   6.589   4.270   5.107  0.3567  0.8760  0.2440
   49MOL   C21315669   6.597   4.251   4.965 -0.7811  0.3675  0.1757
   49MOL   C21415670   6.706   4.296   4.892  0.3921  0.1688 -0.3759
   49MOL   C21515671   6.809   4.362   4.959 -0.4954  0.6025 -0.1198
   49MOL   C21615672   6.809   4.376   5.092  0.2424  0.4692 -0.8356
   49MOL   C21715673   6.698   4.335   5.170 -0.8316  0.8177  0.4932
   49MOL   H21815674   6.359   4.066   5.285 -0.1456  1.4505  0.4828
   49MOL   H21915675   6.371   4.063   5.117 -0.9270 -2.3645  0.8890
   49MOL   H22015676   6.479   4.270   5.292  1.4022 -1.2011  0.0454
   49MOL   H22115677   6.516   4.198   4.917 -0.0127 -2.7133  2.1309
   49MOL   H22215678   6.699   4.291   4.784 -1.5849 -2.8475 -0.1662
   49MOL   H22315679   6.894   4.388   4.898  0.2710  2.5316  1.6893
   49MOL   H22415680   6.892   4.427   5.139  1.0045 -1.0683 -0.4923
   49MOL   H22515681   6.694   4.354   5.277  0.6880  1.8727  0.3906
   49MOL   C22615682   6.330   4.316   5.127 -0.2146 -0.8944  0.8017
   49MOL   C22715683   6.337   4.472   5.142 -0.3516 -0.0541  0.3527
   49MOL   C22815684   6.359   4.532   5.002 -0.7521 -0.2795 -0.9013
   49MOL   C22915685   6.244   4.577   4.925  0.6895  0.2287 -0.3994
   49MOL   C23015686   6.251   4.651   4.805 -0.5548 -0.0975  0.1559
   49MOL   C23115687   6.380   4.697   4.773  0.2843 -0.3183  0.1191
   49MOL   C23215688   6.495   4.659   4.847  0.3850  0.3859  0.3443
   49MOL   C23315689   6.486   4.575   4.959 -0.6920 -0.2803  0.1144
   49MOL   H23415690   6.264   4.281   5.206  0.5428 -0.5727  1.5954
   49MOL   H23515691   6.289   4.277   5.034  0.9319  0.5564 -0.3513
   49MOL   H23615692   6.436   4.487   5.183 -0.2557 -0.8761  0.4287
   49MOL   H23715693   6.150   4.536   4.959  0.2463  0.3662 -1.4362
   49MOL   H23815694   6.160   4.681   4.755  0.1577  1.8044 -0.0338
   49MOL   H23915695   6.388   4.756   4.683  0.2250  1.5393  1.2907
   49MOL   H24015696   6.590   4.679   4.798  0.5979 -0.0111  0.5925
   49MOL   H24115697   6.580   4.546   5.005  0.4406  0.5697 -1.6307
   49MOL   C24215698   6.227   4.538   5.222 -0.4087  0.0032 -0.6393
   49MOL   C24315699   6.232   4.693   5.246 -0.2835  0.3029  0.5439
   49MOL   C24415700   6.102   4.747   5.306  0.1384  0.2972  0.1088
   49MOL   C24515701   6.009   4.815   5.227  0.3422  0.0208  0.0014
   49MOL   C24615702   5.891   4.868   5.279 -0.7107 -0.8543  0.2709
   49MOL   C24715703   5.856   4.841   5.411  0.2396 -0.6126  0.6979
   49MOL   C24815704   5.945   4.774   5.491  0.4684 -0.5894  0.4249
   49MOL   C24915705   6.066   4.724   5.439  0.6057 -0.5373 -0.0401
   49MOL   H25015706   6.225   4.500   5.324  2.4089  0.6534 -0.2991
   49MOL   H25115707   6.131   4.514   5.177 -0.4865 -0.8393 -0.0248
   49MOL   H25215708   6.241   4.744   5.149  1.7100 -0.6678  0.2024
   49MOL   H25315709   6.032   4.830   5.123 -3.5573  0.1720 -0.9149
   49MOL   H25415710   5.823   4.929   5.223 -0.7765 -1.0915  0.0895
   49MOL   H25515711   5.766   4.874   5.460  1.1741 -0.7322  2.5364
   49MOL   H25615712   5.925   4.743   5.593 -0.6998  0.6153  0.5854
   49MOL   H25715713   6.122   4.662   5.508 -0.5872 -1.5511  0.0418
   49MOL   C25815714   6.355   4.723   5.336 -0.1265  0.0450 -0.0726
   49MOL   C25915715   6.350   4.866   5.411 -0.1373 -0.5692  0.1635
   49MOL   C26015716   6.446   4.872   5.537  0.1885  0.3676  0.6930
   49MOL   C26115717   6.584   4.891   5.510  0.3161 -0.4053 -0.4461
   49MOL   C26215718   6.672   4.904   5.617 -0.2466 -0.2966 -0.1744
   49MOL   C26315719   6.627   4.895   5.743  0.4826  0.5229  0.1006
   49MOL   C26415720   6.491   4.880   5.773 -0.0505 -0.3908  0.2679
   49MOL   C26515721   6.399   4.870   5.670  0.4356 -1.0093 -0.2092
   49MOL   H26615722   6.445   4.721   5.273 -0.5041  1.6173 -0.6918
   49MOL   H26715723   6.370   4.653   5.417 -0.1819  1.8093  1.4874
   49MOL   H26815724   6.258   4.874   5.468 -0.4498  1.0106 -0.5219
   49MOL   H26915725   6.626   4.895   5.410  0.5080 -0.5754 -0.3713
   49MOL   H27015726   6.776   4.926   5.595 -0.3821  1.9865  1.2336
   49MOL   H27115727   6.701   4.904   5.821 -0.1084  0.5598  0.6620
   49MOL   H27215728   6.450   4.859   5.871 -2.1199  0.6267 -0.3550
   49MOL   H27315729   6.295   4.854   5.696  0.7855 -0.9709  1.2386
   49MOL   C27415730   6.362   4.996   5.327  0.4481 -0.3360  0.5936
   49MOL   C27515731   6.292   5.128   5.380  0.0874  0.1968 -1.1520
   49MOL   C27615732   6.365   5.254   5.347 -1.0546 -0.0064  0.3318
   49MOL   C27715733   6.460   5.312   5.429  0.7480 -0.3103 -0.3851
   49MOL   C27815734   6.516   5.432   5.391 -0.3905  0.1293 -0.4390
   49MOL   C27915735   6.482   5.493   5.268 -0.0092  0.4055  0.5984
   49MOL   C28015736   6.395   5.433   5.178 -0.0244  0.0972  0.0118
   49MOL   C28115737   6.335   5.316   5.223  0.2160  0.1712  0.0769
   49MOL   H28215738   6.307   4.965   5.238  0.3477 -0.7954  0.8137
   49MOL   H28315739   6.463   5.027   5.302 -0.1345  1.2344  0.1552
   49MOL   H28415740   6.300   5.114   5.488 -1.2641  3.3795 -0.5819
   49MOL   H28515741   6.482   5.271   5.526 -0.4488  1.8075  0.8224
   49MOL   H28615742   6.593   5.480   5.449 -0.3713 -1.8033  1.1973
   49MOL   H28715743   6.539   5.577   5.231 -0.4585 -0.6113 -2.5933
   49MOL   H28815744   6.390   5.472   5.077  1.4779  0.6498  0.1361
   49MOL   H28915745   6.258   5.269   5.164 -0.7841  1.3220  0.4390
   49MOL   C29015746   6.136   5.114   5.347  0.0597 -0.0843 -0.2807
   49MOL   C29115747   6.055   5.238   5.402  0.3302  0.0843  0.4270
   49MOL   C29215748   5.933   5.267   5.311  0.7734  0.4423 -0.2899
   49MOL   C29315749   5.800   5.219   5.336 -0.5923  1.0990 -0.3270
   49MOL   C29415750   5.693   5.240   5.242 -0.6822  0.8047 -0.0343
   49MOL   C29515751   5.720   5.327   5.133  0.4646 -0.0586  0.3048
   49MOL   C29615752   5.843   5.382   5.108 -0.0400 -0.1304  0.4593
   49MOL   C29715753   5.953   5.349   5.195 -0.2427 -0.6936  0.3012
   49MOL   H29815754   6.100   5.017   5.380 -1.4337  0.2339 -0.9154
   49MOL   H29915755   6.132   5.117   5.238  0.3269 -0.5668 -0.3011
   49MOL   H30015756   6.111   5.330   5.385  1.4162 -0.2629  2.0687
   49MOL   H30115757   5.796   5.157   5.425  0.5699  1.5930  0.0767
   49MOL   H30215758   5.592   5.204   5.253 -0.1586 -0.5501  0.4355
   49MOL   H30315759   5.633   5.347   5.071  1.0266  2.5277  0.2700
   49MOL   H30415760   5.858   5.445   5.022  0.5019 -0.2179  0.4887
   49MOL   H30515761   6.052   5.382   5.169  0.3826 -1.2174  1.9211
   49MOL   C30615762   6.012   5.235   5.545  0.0963 -0.0257 -0.1797
   49MOL   C30715763   5.942   5.360   5.603 -0.3583 -0.2009  0.7874
   49MOL   C30815764   5.903   5.331   5.748  0.5641  0.6362 -0.2010
   49MOL   C30915765   5.777   5.270   5.774 -0.7252  0.2819  0.0942
   49MOL   C31015766   5.755   5.217   5.905  0.4038  0.0793  0.0675
   49MOL   C31115767   5.855   5.223   6.006  0.2346 -1.3183  0.2104
   49MOL   C31215768   5.974   5.289   5.978 -0.3256  0.3208  0.1950
   49MOL   C31315769   5.997   5.343   5.849 -0.7040  0.5189 -0.2179
   49MOL   H31415770   6.097   5.221   5.611 -0.4120  2.4074  1.0329
   49MOL   H31515771   5.944   5.151   5.563  1.0511 -1.0230 -1.0859
   49MOL   H31615772   5.859   5.393   5.541  1.1031  1.3396 -0.3754
   49MOL   H31715773   5.698   5.266   5.701 -1.0754 -0.5753  0.5239
   49MOL   H31815774   5.668   5.158   5.929 -0.9300  2.6035  1.7047
   49MOL   H31915775   5.833   5.185   6.105  1.3449 -1.3663  0.4436
   49MOL   H32015776   6.037   5.287   6.065 -0.1916  0.2782  0.0977
   49MOL   H32115777   6.095   5.381   5.827 -0.5775 -0.2033 -0.9406
   49MOL   H32215778   6.017   5.439   5.604  1.4049 -1.8272 -0.4570
   50MOL     C115779   0.785   4.667   5.239 -0.1586 -1.0425  0.0296
   50MOL     C215780   0.867   4.597   5.133 -0.2109  0.2109  0.1277
   50MOL     C315781   1.005   4.557   5.204  0.2741  0.7540  0.0625
   50MOL     C415782   1.004   4.455   5.310  0.0362 -0.7214  0.2383
   50MOL     C515783   1.127   4.412   5.361  0.1569  0.4365 -0.8993
   50MOL     C615784   1.245   4.472   5.322  0.0072  0.0006  0.0982
   50MOL     C715785   1.245   4.581   5.233  0.2693  0.0696  1.0793
   50MOL     C815786   1.126   4.626   5.174  0.0294 -0.2585  0.1869
   50MOL     H915787   0.749   4.620   5.330 -2.5353 -0.5646 -0.6384
   50MOL    H1015788   0.838   4.758   5.265 -0.9815 -0.6844  0.4635
   50MOL    H1115789   0.906   4.664   5.057 -2.0951  0.9881 -0.1891
   50MOL    H1215790   0.911   4.415   5.348 -1.5047  1.0159 -1.6021
   50MOL    H1315791   1.126   4.332   5.433  0.1609  0.0934 -1.2777
   50MOL    H1415792   1.340   4.441   5.364  0.6997  0.9875 -0.7305
   50MOL    H1515793   1.342   4.623   5.207 -0.1622  1.2602  1.3746
   50MOL    H1615794   1.119   4.706   5.102 -0.2999 -1.0626 -0.6684
   50MOL    H1715795   0.698   4.703   5.184 -0.4722 -1.1073  0.4879
   50MOL    C1815796   0.795   4.485   5.057 -0.6867 -0.1976  0.3713
   50MOL    C1915797   0.681   4.551   4.967  0.3956 -0.1071  0.2626
   50MOL    C2015798   0.734   4.647   4.863 -0.0193 -0.3671 -0.0283
   50MOL    C2115799   0.838   4.608   4.776 -0.0708  0.2885  0.2300
   50MOL    C2215800   0.902   4.700   4.690  0.5526  0.6507 -0.7217
   50MOL    C2315801   0.864   4.829   4.691  0.0642 -0.8210 -0.3459
   50MOL    C2415802   0.755   4.871   4.771 -0.3442  0.0063 -0.4027
   50MOL    C2515803   0.699   4.784   4.866  0.3217  0.0162  0.2697
   50MOL    H2615804   0.755   4.410   5.126 -1.7366 -1.3964 -1.5131
   50MOL    H2715805   0.860   4.425   4.994 -0.9894 -0.3735  0.2258
   50MOL    H2815806   0.608   4.606   5.026 -1.5050  1.4745 -3.4397
   50MOL    H2915807   0.887   4.512   4.785  2.0458  1.2434 -0.7755
   50MOL    H3015808   0.987   4.666   4.632  1.1492 -0.1794  0.6314
   50MOL    H3115809   0.917   4.891   4.620 -3.4021  0.9759 -1.4950
   50MOL    H3215810   0.726   4.975   4.767 -0.1472  0.1947  2.4251
   50MOL    H3315811   0.626   4.812   4.939 -0.0767 -0.5323  0.0814
   50MOL    C3415812   0.610   4.439   4.891 -0.0644 -0.4447  0.3817
   50MOL    C3515813   0.520   4.354   4.981  0.3179 -0.4177 -0.0174
   50MOL    C3615814   0.392   4.430   5.026  0.0562 -0.7991  0.5730
   50MOL    C3715815   0.366   4.452   5.161  0.7984 -0.3168  0.2940
   50MOL    C3815816   0.255   4.522   5.205  0.9677  0.1382  0.1870
   50MOL    C3915817   0.170   4.579   5.106  0.0348  0.3014 -0.3372
   50MOL    C4015818   0.197   4.560   4.967  0.0083  0.5874 -0.0495
   50MOL    C4115819   0.303   4.477   4.929 -0.1794  0.5481 -0.4641
   50MOL    H4215820   0.682   4.378   4.836  1.7847  0.3751  1.8269
   50MOL    H4315821   0.543   4.485   4.819  0.8436  0.6737  0.2485
   50MOL    H4415822   0.580   4.319   5.065  0.4630  0.8088  0.3921
   50MOL    H4515823   0.434   4.416   5.237 -0.3797  0.9925  2.0126
   50MOL    H4615824   0.239   4.524   5.312  0.2113  0.7489  0.0599
   50MOL    H4715825   0.085   4.632   5.145 -2.0269 -3.3836  0.4112
   50MOL    H4815826   0.125   4.603   4.899 -1.0972  0.5398  1.0797
   50MOL    H4915827   0.324   4.465   4.824  1.2120  1.0506 -0.2484
   50MOL    C5015828   0.487   4.218   4.918  0.1149  0.0834 -0.1394
   50MOL    C5115829   0.599   4.120   4.927  0.1727 -0.6063  0.2120
   50MOL    C5215830   0.573   4.002   5.023 -0.2347 -0.1015 -0.2980
   50MOL    C5315831   0.642   3.990   5.148 -0.1555  0.1958  0.4913
   50MOL    C5415832   0.621   3.877   5.224  0.5116 -0.1837  0.2383
   50MOL    C5515833   0.549   3.767   5.176 -0.6901  0.3374  0.3361
   50MOL    C5615834   0.478   3.785   5.053 -0.2664 -0.0377  0.0725
   50MOL    C5715835   0.484   3.903   4.975  0.8937 -0.7566  0.1280
   50MOL    H5815836   0.453   4.227   4.815  2.1458  0.2522 -0.8062
   50MOL    H5915837   0.400   4.171   4.964  0.2638  2.6924  3.0004
   50MOL    H6015838   0.683   4.166   4.980  0.4780 -1.8111  0.7847
   50MOL    H6115839   0.712   4.069   5.171 -1.7836  1.6498  0.5113
   50MOL    H6215840   0.678   3.861   5.314  1.3912  0.1299 -0.2526
   50MOL    H6315841   0.537   3.678   5.237  3.1326 -0.5282 -0.0371
   50MOL    H6415842   0.408   3.706   5.027  1.7608 -1.5026 -1.1090
   50MOL    H6515843   0.433   3.910   4.880 -1.0883  1.8789  1.3336
   50MOL    C6615844   0.651   4.081   4.789 -0.8146 -0.6759  0.3255
   50MOL    C6715845   0.794   4.014   4.777  0.3703 -0.9848  0.0685
   50MOL    C6815846   0.898   4.112   4.836 -0.3218  0.2642  0.2152
   50MOL    C6915847   0.950   4.103   4.965 -0.2231 -0.2430  0.3810
   50MOL    C7015848   1.043   4.188   5.017  0.0450  0.5450  0.0401
   50MOL    C7115849   1.090   4.296   4.940 -0.0695 -0.5431  0.2285
   50MOL    C7215850   1.034   4.314   4.814  0.5585  0.4998 -0.6791
   50MOL    C7315851   0.927   4.229   4.766  0.6986 -0.3142  0.5371
   50MOL    H7415852   0.652   4.170   4.725 -0.7528 -1.6414 -1.0318
   50MOL    H7515853   0.575   4.019   4.743  0.5874 -1.1984 -1.3443
   50MOL    H7615854   0.802   4.012   4.668 -0.5804 -0.7445 -0.0135
   50MOL    H7715855   0.921   4.021   5.030 -0.6598  0.8853  1.6250
   50MOL    H7815856   1.076   4.159   5.116  1.1945  0.7257 -0.2857
   50MOL    H7915857   1.164   4.369   4.970 -0.4289 -0.8845  2.0485
   50MOL    H8015858   1.056   4.400   4.752 -1.0035  0.6915 -1.0000
   50MOL    H8115859   0.881   4.254   4.672 -3.3472 -2.3444  1.8605
   50MOL    C8215860   0.809   3.866   4.835 -0.1276  0.5105  1.0715
   50MOL    C8315861   0.918   3.772   4.780 -0.0890  0.0123 -0.4743
   50MOL    C8415862   0.983   3.830   4.656  0.2151  0.3637  0.5620
   50MOL    C8515863   1.098   3.921   4.663 -0.3235  0.0439 -0.5011
   50MOL    C8615864   1.153   3.972   4.543  0.3874  0.0537  0.4761
   50MOL    C8715865   1.107   3.928   4.418  0.3029  0.4378 -0.0223
   50MOL    C8815866   0.996   3.843   4.413 -0.1526  0.5478 -0.1732
   50MOL    C8915867   0.935   3.796   4.528 -0.0868  0.0281  0.0343
   50MOL    H9015868   0.716   3.821   4.801  0.3136  0.3976 -0.0111
   50MOL    H9115869   0.790   3.861   4.942 -0.9685  0.4141  0.9166
   50MOL    H9215870   0.858   3.695   4.733 -0.6057  0.5357 -0.6819
   50MOL    H9315871   1.134   3.943   4.762 -2.5551 -0.9132  0.5604
   50MOL    H9415872   1.233   4.043   4.557  0.8145 -0.7216  2.0758
   50MOL    H9515873   1.149   3.968   4.326  0.8898 -2.6479 -1.1768
   50MOL    H9615874   0.954   3.816   4.317  1.0024 -0.4468 -0.4154
   50MOL    H9715875   0.846   3.737   4.519 -0.9876  1.3810 -0.1150
   50MOL    C9815876   1.020   3.708   4.885  0.2856  0.2497  0.3736
   50MOL    C9915877   0.951   3.619   4.997  0.3188 -0.7872  0.3177
   50MOL   C10015878   0.847   3.522   4.945 -0.0439 -0.1797  0.5421
   50MOL   C10115879   0.880   3.446   4.828  0.7577 -0.1297 -0.4627
   50MOL   C10215880   0.784   3.347   4.790 -0.3501 -0.2645 -0.3375
   50MOL   C10315881   0.660   3.327   4.851 -0.4502 -0.2949 -0.4291
   50MOL   C10415882   0.636   3.404   4.968  0.1826  0.4902 -0.6272
   50MOL   C10515883   0.723   3.501   5.014 -0.4237 -0.1070 -0.0676
   50MOL   H10615884   1.067   3.791   4.938 -0.8262  0.5410  0.9244
   50MOL   H10715885   1.094   3.654   4.826 -1.4541 -2.4553  0.5493
   50MOL   H10815886   0.901   3.691   5.061 -1.5949 -0.7285 -1.1778
   50MOL   H10915887   0.973   3.458   4.775  1.0171 -2.5313 -0.5815
   50MOL   H11015888   0.820   3.283   4.711  0.6188 -0.7064  0.4410
   50MOL   H11115889   0.576   3.264   4.824  1.4528 -2.8053 -0.6882
   50MOL   H11215890   0.549   3.382   5.028  0.2733 -0.5625 -0.8766
   50MOL   H11315891   0.703   3.547   5.109  0.6065  2.7289 -1.1825
   50MOL   C11415892   1.044   3.545   5.099  0.4326 -0.3593  0.1637
   50MOL   C11515893   1.142   3.630   5.181 -0.0784  0.9046  0.2869
   50MOL   C11615894   1.071   3.737   5.269  0.2810  0.2941 -0.5599
   50MOL   C11715895   1.111   3.870   5.256  0.2283 -1.0052 -0.2181
   50MOL   C11815896   1.052   3.975   5.332 -0.3380  0.1948  0.1990
   50MOL   C11915897   0.948   3.942   5.416 -0.2154  0.3719 -0.7319
   50MOL   C12015898   0.903   3.813   5.433  0.3073 -0.1821  0.0046
   50MOL   C12115899   0.964   3.712   5.359 -0.6169 -0.9606 -0.0561
   50MOL   H12215900   1.106   3.471   5.049  0.8416 -0.2305  0.4711
   50MOL   H12315901   0.977   3.500   5.173 -0.0388  1.8570  1.1382
   50MOL   H12415902   1.199   3.684   5.105 -0.9186 -0.2568 -1.2050
   50MOL   H12515903   1.194   3.902   5.195  2.8636 -2.7266  2.3054
   50MOL   H12615904   1.073   4.080   5.327  0.2454  0.0151 -1.1190
   50MOL   H12715905   0.907   4.022   5.477  1.6724  0.1134  0.9412
   50MOL   H12815906   0.815   3.798   5.494 -0.1548 -0.7806 -0.8022
   50MOL   H12915907   0.933   3.608   5.361  0.8075 -1.4016 -0.5175
   50MOL   C13015908   1.236   3.546   5.273 -0.0633 -0.0081 -0.2026
   50MOL   C13115909   1.350   3.624   5.352 -0.1770  0.2622 -0.2308
   50MOL   C13215910   1.386   3.553   5.487 -1.1504  0.4443  0.0434
   50MOL   C13315911   1.388   3.622   5.607  0.5664 -0.4934 -0.1299
   50MOL   C13415912   1.437   3.562   5.725  0.4864  0.3313 -0.3632
   50MOL   C13515913   1.471   3.424   5.729  0.4571 -0.6640  0.5691
   50MOL   C13615914   1.444   3.346   5.622  0.1384 -0.4183  0.1480
   50MOL   C13715915   1.406   3.409   5.503  0.7741  0.6728  0.0672
   50MOL   H13815916   1.273   3.466   5.208 -2.0811  0.4036 -1.9281
   50MOL   H13915917   1.170   3.501   5.347 -0.9116  2.0705  0.3235
   50MOL   H14015918   1.314   3.722   5.383 -0.1989  0.0125  0.5345
   50MOL   H14115919   1.369   3.729   5.609 -1.6626 -0.8398 -0.7013
   50MOL   H14215920   1.449   3.629   5.809 -1.2541  1.1340 -0.7385
   50MOL   H14315921   1.512   3.389   5.822 -0.6444 -1.5186  0.7438
   50MOL   H14415922   1.452   3.238   5.621  1.0715 -0.3652  1.1618
   50MOL   H14515923   1.399   3.343   5.418  0.1066  0.1291  0.5425
   50MOL   C14615924   1.470   3.634   5.258  0.1773 -0.7420 -0.4548
   50MOL   C14715925   1.573   3.749   5.298  0.2609  1.1559 -0.4568
   50MOL   C14815926   1.717   3.718   5.275  1.0750  0.2415  0.1382
   50MOL   C14915927   1.819   3.809   5.227 -0.1748  0.3883  0.7029
   50MOL   C15015928   1.951   3.768   5.217 -0.3357 -0.0165 -0.5019
   50MOL   C15115929   1.996   3.642   5.267 -0.2623  0.0040 -0.0869
   50MOL   C15215930   1.904   3.557   5.321  0.1538 -0.3010 -0.5006
   50MOL   C15315931   1.768   3.596   5.323  0.0407  0.2807  0.2379
   50MOL   H15415932   1.431   3.652   5.158 -0.9053 -3.8307 -0.6562
   50MOL   H15515933   1.511   3.533   5.256  0.3797 -0.7437  1.9053
   50MOL   H15615934   1.583   3.746   5.407 -2.2880  0.1046 -0.1991
   50MOL   H15715935   1.801   3.911   5.194  0.4059 -0.0523 -1.0344
   50MOL   H15815936   2.013   3.843   5.171 -0.0395 -0.5277 -0.9512
   50MOL   H15915937   2.099   3.613   5.251 -0.1026 -1.0761  2.6476
   50MOL   H16015938   1.929   3.458   5.358  0.8876  0.7169  1.8144
   50MOL   H16115939   1.699   3.524   5.365  2.5626 -1.5865  1.2443
   50MOL   C16215940   1.532   3.888   5.263  0.2527  0.3354 -0.7359
   50MOL   C16315941   1.569   3.994   5.367  1.1299 -0.5268 -0.0368
   50MOL   C16415942   1.582   4.134   5.301  0.5711  0.0127 -0.2234
   50MOL   C16515943   1.479   4.191   5.225  0.7466 -0.6561 -0.3407
   50MOL   C16615944   1.498   4.320   5.158 -0.0632  0.2002 -0.8543
   50MOL   C16715945   1.623   4.385   5.165  0.3118 -0.0106  0.1631
   50MOL   C16815946   1.718   4.336   5.252 -0.3652 -1.0201  0.4327
   50MOL   C16915947   1.701   4.212   5.314  0.5502  0.4135  0.0029
   50MOL   H17015948   1.424   3.882   5.246  0.0124  1.2996  0.3859
   50MOL   H17115949   1.578   3.918   5.169 -0.8849  1.9650 -0.7901
   50MOL   H17215950   1.663   3.964   5.413  2.4993  2.1886 -0.8909
   50MOL   H17315951   1.382   4.145   5.216  1.4062 -2.2002  0.3018
   50MOL   H17415952   1.431   4.358   5.082  1.2077  1.4040 -1.4029
   50MOL   H17515953   1.635   4.477   5.108 -2.0830 -0.2440 -0.7620
   50MOL   H17615954   1.804   4.399   5.271 -0.0887 -0.5071 -2.3547
   50MOL   H17715955   1.780   4.175   5.377  1.1525 -0.4849 -1.2673
   50MOL   C17815956   1.467   3.997   5.476 -0.6454  0.0876 -0.0358
   50MOL   C17915957   1.448   4.114   5.569 -0.3894  0.0804 -0.1672
   50MOL   C18015958   1.331   4.090   5.667 -0.0061 -0.5106 -0.0521
   50MOL   C18115959   1.348   4.079   5.808 -0.8333 -0.0253  0.0164
   50MOL   C18215960   1.241   4.057   5.895 -0.4489 -1.1116  0.2544
   50MOL   C18315961   1.114   4.057   5.843 -0.1627 -0.0274  0.2549
   50MOL   C18415962   1.088   4.067   5.706  0.0804  0.5502  0.4123
   50MOL   C18515963   1.199   4.075   5.616  0.3602  0.3701  0.1984
   50MOL   H18615964   1.500   3.913   5.537 -2.6720 -0.7302 -0.0075
   50MOL   H18715965   1.367   3.983   5.435 -0.2127  1.1626 -1.4751
   50MOL   H18815966   1.411   4.200   5.513  1.8160  1.4524  0.3934
   50MOL   H18915967   1.444   4.088   5.857 -1.2631  1.5089  0.5969
   50MOL   H19015968   1.262   4.058   6.001  1.1589 -0.5804 -0.0531
   50MOL   H19115969   1.030   4.038   5.908 -0.1453  1.5379  0.7651
   50MOL   H19215970   0.988   4.067   5.666 -0.2978  0.7080  1.3332
   50MOL   H19315971   1.177   4.077   5.510 -0.7526 -1.6102  0.3754
   50MOL   C19415972   1.579   4.162   5.639 -0.4187 -0.6119  0.8091
   50MOL   C19515973   1.589   4.305   5.705 -0.0111  0.2201 -0.2597
   50MOL   C19615974   1.707   4.318   5.797  0.1729 -0.0762 -0.4111
   50MOL   C19715975   1.831   4.268   5.760 -0.0378  0.5831 -0.1266
   50MOL   C19815976   1.937   4.299   5.847  0.2910  0.5112  0.1822
   50MOL   C19915977   1.917   4.359   5.972 -0.3334  0.4378  0.4747
   50MOL   C20015978   1.788   4.404   6.013  0.0098  0.1974  0.6803
   50MOL   C20115979   1.680   4.386   5.925 -0.2716  0.2948  0.6294
   50MOL   H20215980   1.659   4.154   5.565 -1.4283 -3.7095  0.0129
   50MOL   H20315981   1.610   4.091   5.715 -1.6658 -0.6184  1.3101
   50MOL   H20415982   1.503   4.308   5.773 -0.3491 -0.7576 -0.6455
   50MOL   H20515983   1.860   4.220   5.668 -0.7648  1.6705 -0.9418
   50MOL   H20615984   2.035   4.264   5.816  0.5865  1.7125 -0.2850
   50MOL   H20715985   2.002   4.377   6.037  0.4725  1.0220 -0.7281
   50MOL   H20815986   1.772   4.460   6.104 -1.2520  1.5508 -0.3588
   50MOL   H20915987   1.581   4.426   5.940  0.9652  3.1420  1.5497
   50MOL   C21015988   1.576   4.412   5.592  0.5885  0.2956  0.6081
   50MOL   C21115989   1.583   4.557   5.643 -0.2038  0.2915 -0.3949
   50MOL   C21215990   1.710   4.624   5.587 -0.2530 -0.3632  0.0336
   50MOL   C21315991   1.820   4.646   5.682 -0.3119 -0.1633 -0.4147
   50MOL   C21415992   1.944   4.690   5.635 -0.4555  0.1322 -0.1719
   50MOL   C21515993   1.962   4.720   5.496  0.0865 -0.2806  0.3761
   50MOL   C21615994   1.861   4.695   5.403 -0.1092 -0.8240 -0.8322
   50MOL   C21715995   1.735   4.658   5.453  0.5537 -0.1414  0.6145
   50MOL   H21815996   1.477   4.397   5.547  1.1758  0.4025 -0.7394
   50MOL   H21915997   1.647   4.393   5.512 -0.6827  0.0103 -0.4770
   50MOL   H22015998   1.591   4.564   5.752 -2.3213 -1.8979 -0.0644
   50MOL   H22115999   1.802   4.639   5.788  1.8625 -1.4244 -0.1055
   50MOL   H22216000   2.030   4.705   5.700  1.3523  2.1123 -2.9327
   50MOL   H22316001   2.059   4.748   5.458  0.2417 -1.4959 -0.1673
   50MOL   H22416002   1.870   4.714   5.297  0.2965  0.8296 -0.5137
   50MOL   H22516003   1.662   4.643   5.375  2.1308 -1.5046 -0.6526
   50MOL   C22616004   1.457   4.636   5.600 -0.3284 -0.1797 -0.5338
   50MOL   C22716005   1.323   4.594   5.664 -0.1234 -0.7272  0.1129
   50MOL   C22816006   1.320   4.568   5.812  0.1652  0.4803  0.2801
   50MOL   C22916007   1.365   4.664   5.900  0.1740 -0.2602 -0.4346
   50MOL   C23016008   1.358   4.647   6.039 -0.1318  0.0759 -0.1647
   50MOL   C23116009   1.316   4.525   6.092 -0.2181  0.4316 -0.2023
   50MOL   C23216010   1.274   4.422   6.004  0.0860  0.1227  1.0688
   50MOL   C23316011   1.270   4.442   5.861  0.1274 -0.0108  0.2665
   50MOL   H23416012   1.441   4.647   5.492  1.0783  2.9782 -0.4850
   50MOL   H23516013   1.478   4.737   5.637 -0.2119  0.2822 -1.8134
   50MOL   H23616014   1.305   4.499   5.614  1.1327  0.4219 -2.6620
   50MOL   H23716015   1.399   4.761   5.865  2.8349 -0.6668  0.9013
   50MOL   H23816016   1.383   4.734   6.098  1.7653  0.1176 -1.0015
   50MOL   H23916017   1.335   4.499   6.196  0.1405  1.6664  0.0508
   50MOL   H24016018   1.246   4.327   6.047  0.4996 -0.9464 -0.9425
   50MOL   H24116019   1.253   4.362   5.791 -3.0350  1.3520 -0.6058
   50MOL   C24216020   1.204   4.698   5.638  0.1728 -0.0278 -0.0340
   50MOL   C24316021   1.064   4.673   5.710 -0.0277  0.6017 -0.0483
   50MOL   C24416022   0.978   4.796   5.692  0.4326 -0.7264  0.1472
   50MOL   C24516023   0.932   4.822   5.561 -0.2945 -0.5502 -0.9133
   50MOL   C24616024   0.842   4.930   5.539 -0.6653 -0.4425  0.3822
   50MOL   C24716025   0.811   5.028   5.636 -0.4479  0.7713 -0.3777
   50MOL   C24816026   0.864   5.000   5.767  0.7003 -0.3562  0.2921
   50MOL   C24916027   0.938   4.886   5.800 -1.0263  0.2803  0.4008
   50MOL   H25016028   1.177   4.704   5.533 -0.3802  0.7257  0.1484
   50MOL   H25116029   1.242   4.796   5.665  0.8641 -0.9676  2.5384
   50MOL   H25216030   1.082   4.649   5.815 -1.4899 -0.5002 -0.0437
   50MOL   H25316031   0.951   4.760   5.474  2.5063 -0.7054 -0.2563
   50MOL   H25416032   0.809   4.946   5.437  0.0624 -0.3709  0.1559
   50MOL   H25516033   0.752   5.114   5.609  0.5750  0.6897 -3.0117
   50MOL   H25616034   0.845   5.076   5.841  1.0124  0.1950 -0.1827
   50MOL   H25716035   0.979   4.862   5.897  0.5485  1.1295 -0.0319
   50MOL   C25816036   0.995   4.545   5.658  0.0520  0.1582  0.0106
   50MOL   C25916037   0.877   4.506   5.748  0.0574  0.3903  0.0825
   50MOL   C26016038   0.765   4.447   5.674  0.4636  0.6651  0.4612
   50MOL   C26116039   0.643   4.522   5.669 -0.5358 -0.2008 -0.5973
   50MOL   C26216040   0.529   4.470   5.600 -0.5243  0.4513  0.5507
   50MOL   C26316041   0.540   4.338   5.546 -0.1009 -0.0119  0.4060
   50MOL   C26416042   0.657   4.262   5.559  0.4116 -0.5281 -0.5667
   50MOL   C26516043   0.775   4.322   5.615 -0.3355  0.8343  0.2206
   50MOL   H26616044   1.073   4.469   5.660  0.5286  0.5768 -1.9022
   50MOL   H26716045   0.960   4.552   5.555 -3.2071  0.0428  1.0386
   50MOL   H26816046   0.838   4.591   5.803  1.2094  0.8471  0.1952
   50MOL   H26916047   0.632   4.619   5.716 -1.0154  1.2204 -3.5080
   50MOL   H27016048   0.432   4.518   5.591 -0.8984 -0.5540 -1.1156
   50MOL   H27116049   0.458   4.285   5.501  1.2983 -2.0479  0.2032
   50MOL   H27216050   0.657   4.161   5.522  1.5469 -0.4932 -0.6953
   50MOL   H27316051   0.867   4.265   5.609 -0.0269  1.3006  0.4534
   50MOL   C27416052   0.916   4.415   5.866 -0.3286 -0.5119 -0.1027
   50MOL   C27516053   0.803   4.352   5.955 -0.5888  0.0044  1.1859
   50MOL   C27616054   0.851   4.249   6.054 -0.7353  0.8332 -0.6323
   50MOL   C27716055   0.791   4.119   6.058 -0.1718  0.4595 -0.2145
   50MOL   C27816056   0.837   4.025   6.148 -1.4392 -0.2552 -0.3879
   50MOL   C27916057   0.950   4.047   6.225 -0.1700 -0.1252  0.3314
   50MOL   C28016058   1.014   4.171   6.221 -0.2236  0.5065  0.0071
   50MOL   C28116059   0.961   4.278   6.142  0.1071  0.1324 -0.7044
   50MOL   H28216060   0.981   4.463   5.939 -1.7917  1.2146  0.1108
   50MOL   H28316061   0.974   4.339   5.815  0.0180 -0.5929  0.4160
   50MOL   H28416062   0.738   4.297   5.887 -0.0645  0.7347  0.0875
   50MOL   H28516063   0.713   4.086   5.991  0.9970 -0.2582 -1.2665
   50MOL   H28616064   0.782   3.934   6.165  1.3997 -1.8570  0.6182
   50MOL   H28716065   0.992   3.960   6.273  0.9448  0.2791  0.0954
   50MOL   H28816066   1.098   4.179   6.289  0.3702 -2.6214 -0.2703
   50MOL   H28916067   1.011   4.373   6.146 -0.6358  0.5255 -0.6344
   50MOL   C29016068   0.724   4.455   6.032  0.0701 -0.0208 -0.7766
   50MOL   C29116069   0.591   4.415   6.095  0.1097 -0.6307  0.3262
   50MOL   C29216070   0.546   4.525   6.186 -0.3825 -0.3377  0.1658
   50MOL   C29316071   0.470   4.636   6.143  0.2493 -0.3160  0.8042
   50MOL   C29416072   0.408   4.721   6.235  0.1680  0.1311  0.3015
   50MOL   C29516073   0.437   4.722   6.369  0.0415 -0.1898  0.5046
   50MOL   C29616074   0.520   4.615   6.404  0.1086 -0.3472 -0.2983
   50MOL   C29716075   0.571   4.517   6.325 -0.0255 -0.4128  0.3946
   50MOL   H29816076   0.688   4.541   5.974 -2.4224  0.0494  0.7890
   50MOL   H29916077   0.790   4.511   6.097  1.5825  0.7074 -2.9116
   50MOL   H30016078   0.600   4.323   6.153  0.5891 -1.2125 -0.6360
   50MOL   H30116079   0.435   4.649   6.042  3.5190  0.4793 -0.2964
   50MOL   H30216080   0.332   4.788   6.199  1.9702  1.6039 -0.8037
   50MOL   H30316081   0.391   4.792   6.437 -0.1937 -0.0081  0.1581
   50MOL   H30416082   0.535   4.608   6.510  0.4206  3.4640 -0.0183
   50MOL   H30516083   0.634   4.434   6.355  2.0117  0.3183 -1.7517
   50MOL   C30616084   0.486   4.375   5.987 -0.1252 -0.8078  0.2755
   50MOL   C30716085   0.339   4.349   6.031  0.2519 -0.5811 -0.3501
   50MOL   C30816086   0.238   4.405   5.932  0.0617 -0.0945 -1.1420
   50MOL   C30916087   0.183   4.538   5.956 -0.1622 -0.2222  0.2960
   50MOL   C31016088   0.094   4.589   5.859 -0.6071  0.4782 -0.1871
   50MOL   C31116089   0.066   4.513   5.745 -0.4564 -0.3492  0.3929
   50MOL   C31216090   0.101   4.378   5.729  0.9022 -0.2319  0.3738
   50MOL   C31316091   0.196   4.329   5.817  0.5146 -0.4991 -0.7279
   50MOL   H31416092   0.524   4.294   5.926  0.6909 -1.5694  1.7705
   50MOL   H31516093   0.478   4.463   5.922  2.8693  0.5370  1.6663
   50MOL   H31616094   0.318   4.403   6.123 -0.4029 -1.6433  0.1393
   50MOL   H31716095   0.216   4.589   6.046 -0.7486  2.7947 -1.1432
   50MOL   H31816096   0.058   4.691   5.864 -2.6693 -0.2750  1.1547
   50MOL   H31916097   0.005   4.555   5.666  0.3082  0.0767  0.0292
   50MOL   H32016098   0.069   4.322   5.642  1.8951 -2.2664  1.2891
   50MOL   H32116099   0.230   4.227   5.807  0.5560 -0.6748  1.0856
   50MOL   H32216100   0.314   4.243   6.041  0.2938 -0.3699  2.4644
   51MOL     C116101   6.961   4.789   3.724 -0.7251 -0.4142  0.6614
   51MOL     C216102   6.915   4.765   3.865  0.9778  0.5791 -0.9476
   51MOL     C316103   6.777   4.708   3.877 -0.0560 -0.4370  0.9556
   51MOL     C416104   6.750   4.588   3.809  0.5594 -0.4026 -0.0692
   51MOL     C516105   6.628   4.516   3.826 -0.0263  0.1209 -0.0350
   51MOL     C616106   6.537   4.579   3.919  0.0536  0.5962 -0.4010
   51MOL     C716107   6.562   4.695   3.991  0.0645 -0.7926 -0.5291
   51MOL     C816108   6.686   4.763   3.966  0.7150 -0.1098 -0.3151
   51MOL     H916109   6.902   4.866   3.675  1.7733  1.0927 -0.0654
   51MOL    H1016110   7.061   4.832   3.722 -0.9239  0.2470  3.2519
   51MOL    H1116111   6.908   4.855   3.927 -1.4662 -0.8353  0.9378
   51MOL    H1216112   6.819   4.545   3.737  1.3358  2.4644 -1.1248
   51MOL    H1316113   6.607   4.424   3.774  1.1995 -0.0111 -0.3175
   51MOL    H1416114   6.443   4.531   3.945  0.8314 -1.8256 -1.8915
   51MOL    H1516115   6.484   4.736   4.054 -0.6954 -1.8500 -0.7746
   51MOL    H1616116   6.704   4.854   4.022 -2.5404  0.5065 -0.1374
   51MOL    H1716117   6.965   4.698   3.664 -0.3074 -0.3465  0.5813
   51MOL    C1816118   7.010   4.669   3.941  0.1998 -0.2318  0.1650
   51MOL    C1916119   7.162   4.712   3.955 -0.5445  0.0457  0.1773
   51MOL    C2016120   7.183   4.840   4.042 -0.2653  0.5394  0.0600
   51MOL    C2116121   7.086   4.874   4.143  0.3517 -0.0449 -0.2948
   51MOL    C2216122   7.100   4.986   4.222 -0.3298 -0.3457 -0.0868
   51MOL    C2316123   7.214   5.071   4.203  0.0056 -0.0468 -0.6925
   51MOL    C2416124   7.314   5.034   4.109  0.4769 -0.3777  0.3936
   51MOL    C2516125   7.301   4.915   4.032 -0.6712 -0.8219 -0.1490
   51MOL    H2616126   7.003   4.568   3.901 -1.9389  0.5885 -1.6814
   51MOL    H2716127   6.975   4.656   4.044 -1.7136  1.2498 -0.2459
   51MOL    H2816128   7.195   4.732   3.852 -2.3578  2.9229  0.1009
   51MOL    H2916129   6.995   4.820   4.166  2.7250 -3.6821  0.8780
   51MOL    H3016130   7.024   5.000   4.297 -1.3531  0.0472 -1.1838
   51MOL    H3116131   7.232   5.149   4.276 -0.5374 -1.2036  0.7075
   51MOL    H3216132   7.411   5.081   4.103 -0.3154  1.4019  1.3975
   51MOL    H3316133   7.377   4.881   3.962  0.9459 -0.8857  1.6109
   51MOL    C3416134   7.239   4.590   4.015 -0.2334 -0.1771  0.3717
   51MOL    C3516135   7.277   4.485   3.911 -0.3865 -0.2403 -0.1962
   51MOL    C3616136   7.398   4.533   3.827 -0.1409  0.3374 -0.0360
   51MOL    C3716137   7.514   4.582   3.887 -0.1761 -0.0901  0.2360
   51MOL    C3816138   7.625   4.623   3.808  0.1942 -0.3295  1.2139
   51MOL    C3916139   7.618   4.627   3.667 -0.3490 -0.3353 -0.2857
   51MOL    C4016140   7.497   4.582   3.608  0.6797 -0.3387 -0.4849
   51MOL    C4116141   7.385   4.541   3.688 -0.2574 -0.3293  0.7821
   51MOL    H4216142   7.179   4.546   4.095 -0.7446  0.6314  0.4376
   51MOL    H4316143   7.326   4.629   4.068  0.4859 -0.1425 -0.8356
   51MOL    H4416144   7.190   4.468   3.846  0.5568 -1.7327 -1.0993
   51MOL    H4516145   7.535   4.569   3.992 -0.8084 -1.6367  0.1835
   51MOL    H4616146   7.714   4.629   3.869  1.3878  0.8874 -0.6094
   51MOL    H4716147   7.701   4.660   3.606  0.3670 -2.0985 -0.3146
   51MOL    H4816148   7.484   4.590   3.501 -0.9715  1.4967 -0.1801
   51MOL    H4916149   7.298   4.508   3.633 -0.2023 -2.0699  1.7107
   51MOL    C5016150   7.309   4.356   3.984 -0.0868  0.6221  0.5982
   51MOL    C5116151   7.201   4.286   4.065 -0.0468 -0.6356 -0.4478
   51MOL    C5216152   7.067   4.284   3.994 -0.1264 -0.1091  0.2865
   51MOL    C5316153   6.957   4.352   4.047  0.3350  0.4585 -0.0712
   51MOL    C5416154   6.827   4.329   3.989 -0.2432 -0.3075  0.2508
   51MOL    C5516155   6.813   4.254   3.874 -0.0113 -0.2727  0.0447
   51MOL    C5616156   6.922   4.184   3.820 -0.1032  0.0620 -0.0281
   51MOL    C5716157   7.051   4.209   3.879 -0.0941  0.4878 -0.1907
   51MOL    H5816158   7.403   4.365   4.038  0.0750 -0.3304  0.4915
   51MOL    H5916159   7.335   4.292   3.900 -0.2153  1.8973 -0.4264
   51MOL    H6016160   7.201   4.339   4.160  1.5843 -0.8845 -0.2913
   51MOL    H6116161   6.976   4.402   4.141  0.3972 -2.1443  1.3523
   51MOL    H6216162   6.745   4.382   4.034  0.8334  1.0045  0.7027
   51MOL    H6316163   6.714   4.242   3.833 -0.3495 -1.5555  1.2056
   51MOL    H6416164   6.910   4.117   3.736  0.3831  0.1863 -0.2033
   51MOL    H6516165   7.138   4.159   3.841  0.1249  1.5204 -1.0715
   51MOL    C6616166   7.250   4.145   4.103  0.6971 -0.0850 -0.1647
   51MOL    C6716167   7.145   4.052   4.173  0.1660  0.1653  1.1535
   51MOL    C6816168   7.200   3.907   4.167 -0.6197 -0.0473 -0.1475
   51MOL    C6916169   7.325   3.876   4.238 -0.3584 -0.0242 -0.3094
   51MOL    C7016170   7.377   3.746   4.245 -0.2207  0.0864 -0.3220
   51MOL    C7116171   7.312   3.643   4.171  0.0813  0.3786  0.6824
   51MOL    C7216172   7.190   3.667   4.112 -0.7761  0.9325  0.6089
   51MOL    C7316173   7.126   3.799   4.107 -0.6735  0.2460 -0.1557
   51MOL    H7416174   7.342   4.152   4.161  0.4759  2.3751 -0.0291
   51MOL    H7516175   7.283   4.096   4.012 -1.1582 -1.2529 -0.2491
   51MOL    H7616176   7.053   4.054   4.115 -0.4070  0.5082  2.0618
   51MOL    H7716177   7.369   3.955   4.296 -0.1705  0.2295 -0.7943
   51MOL    H7816178   7.466   3.734   4.304  0.0902 -2.3649 -1.2395
   51MOL    H7916179   7.354   3.544   4.167 -0.7929  0.0269  0.0256
   51MOL    H8016180   7.130   3.591   4.063  0.0311  0.4102  0.4149
   51MOL    H8116181   7.032   3.812   4.054 -1.5070 -3.9933  0.0837
   51MOL    C8216182   7.126   4.093   4.318  0.3829 -0.2891 -0.3132
   51MOL    C8316183   7.006   4.036   4.389  0.4751 -0.3069 -0.1137
   51MOL    C8416184   7.037   4.018   4.537  0.3266  0.0641 -0.2696
   51MOL    C8516185   7.012   4.124   4.620  0.1169  0.0071  0.5225
   51MOL    C8616186   7.064   4.115   4.753 -0.0658  0.0874  0.1550
   51MOL    C8716187   7.120   3.992   4.803 -0.1647 -0.7827  0.8461
   51MOL    C8816188   7.134   3.880   4.721 -0.0551 -0.5439 -0.0817
   51MOL    C8916189   7.101   3.893   4.585 -0.3074 -0.0319 -0.1501
   51MOL    H9016190   7.106   4.199   4.334 -0.0322 -0.6423  1.6204
   51MOL    H9116191   7.216   4.076   4.377 -1.8519 -0.6432  3.1362
   51MOL    H9216192   6.987   3.937   4.348  0.4999  0.1623 -1.2915
   51MOL    H9316193   6.956   4.209   4.584 -1.9331 -0.9722  1.2991
   51MOL    H9416194   7.038   4.190   4.826  0.4491  1.2054 -0.7997
   51MOL    H9516195   7.133   3.980   4.909 -1.9430 -1.7257  0.9839
   51MOL    H9616196   7.174   3.791   4.767 -1.1993  0.1433  2.3238
   51MOL    H9716197   7.115   3.814   4.512 -1.4982  0.0385 -0.4657
   51MOL    C9816198   6.876   4.110   4.350  0.0832 -0.6768 -0.2725
   51MOL    C9916199   6.742   4.051   4.407  0.2824  0.3293 -0.1513
   51MOL   C10016200   6.629   4.147   4.393 -0.0509 -0.0897 -0.3703
   51MOL   C10116201   6.561   4.194   4.505 -0.2634  0.1772  0.1682
   51MOL   C10216202   6.451   4.279   4.494 -0.0872 -0.2848  0.5687
   51MOL   C10316203   6.403   4.310   4.367  0.0356  0.6911  0.8615
   51MOL   C10416204   6.469   4.265   4.257 -0.0082 -0.1971  1.1426
   51MOL   C10516205   6.580   4.183   4.265  0.0556  0.1878  0.0067
   51MOL   H10616206   6.852   4.124   4.245  0.4302 -0.4791 -0.3236
   51MOL   H10716207   6.883   4.213   4.385 -1.8780 -0.2579 -1.0241
   51MOL   H10816208   6.757   4.038   4.514 -0.8055 -3.5419 -0.3724
   51MOL   H10916209   6.598   4.177   4.605  0.3462  0.0086 -0.0870
   51MOL   H11016210   6.395   4.326   4.574  0.3465  2.8650 -0.8937
   51MOL   H11116211   6.314   4.369   4.357 -0.8655 -1.0101 -1.8434
   51MOL   H11216212   6.435   4.293   4.158  0.6840  1.8367  1.4389
   51MOL   H11316213   6.624   4.145   4.173 -0.8589  0.6521 -0.6284
   51MOL   C11416214   6.706   3.911   4.368 -0.1309  0.3040  0.0410
   51MOL   C11516215   6.715   3.795   4.473 -0.2820 -0.3110  0.2182
   51MOL   C11616216   6.634   3.826   4.595 -0.3870  0.4924 -0.3206
   51MOL   C11716217   6.704   3.850   4.713  0.4585 -0.2416  0.1731
   51MOL   C11816218   6.626   3.899   4.824  0.6941 -0.7752 -0.3030
   51MOL   C11916219   6.489   3.929   4.804 -0.3031  0.0025 -0.9603
   51MOL   C12016220   6.429   3.901   4.684 -0.3747 -0.0472  0.0508
   51MOL   C12116221   6.493   3.844   4.573 -0.2008 -0.1144  0.0643
   51MOL   H12216222   6.774   3.891   4.285  1.6587 -1.2580  1.8295
   51MOL   H12316223   6.604   3.907   4.330 -0.6349  0.3861  1.3735
   51MOL   H12416224   6.817   3.793   4.512  0.6118 -1.4722 -2.1016
   51MOL   H12516225   6.809   3.836   4.737  0.3134 -1.2003  0.2869
   51MOL   H12616226   6.676   3.929   4.915  0.2347 -1.8045  0.2984
   51MOL   H12716227   6.445   3.970   4.893  0.7569 -2.1310  0.5767
   51MOL   H12816228   6.326   3.918   4.657 -0.2691 -1.1878 -1.1130
   51MOL   H12916229   6.438   3.828   4.481  0.9275  0.6941 -0.7757
   51MOL   C13016230   6.682   3.659   4.423 -0.3829  0.8722 -0.3820
   51MOL   C13116231   6.714   3.544   4.528  0.1003  0.3111 -1.1582
   51MOL   C13216232   6.672   3.406   4.475  0.2738  0.1302 -0.6061
   51MOL   C13316233   6.557   3.337   4.527  0.4711 -0.5833 -0.0043
   51MOL   C13416234   6.515   3.214   4.473  0.1236  0.2519  0.1443
   51MOL   C13516235   6.592   3.151   4.369  0.2542  0.0631  0.3044
   51MOL   C13616236   6.700   3.226   4.318  0.0200 -0.1220 -0.4760
   51MOL   C13716237   6.740   3.351   4.365  0.3581 -0.6963  0.2087
   51MOL   H13816238   6.739   3.642   4.331 -0.1206 -0.0290 -0.0527
   51MOL   H13916239   6.579   3.665   4.386 -1.0453 -0.3949  1.2203
   51MOL   H14016240   6.638   3.549   4.606  1.4230 -1.4296  0.2726
   51MOL   H14116241   6.502   3.382   4.608  0.7809  4.0160 -2.2027
   51MOL   H14216242   6.437   3.160   4.524  0.8246 -0.6057  0.3161
   51MOL   H14316243   6.577   3.052   4.328 -0.7828  1.2848 -2.4017
   51MOL   H14416244   6.751   3.180   4.235  1.7305 -0.4403  0.7172
   51MOL   H14516245   6.817   3.401   4.307 -0.2548  0.5061  0.4191
   51MOL   C14616246   6.849   3.531   4.601 -0.4791  0.2321  0.3482
   51MOL   C14716247   6.869   3.419   4.705  0.8313  0.1709  0.5407
   51MOL   C14816248   7.010   3.427   4.760 -0.1261  0.5397 -0.0599
   51MOL   C14916249   7.061   3.535   4.844  0.0021 -0.3407 -0.2242
   51MOL   C15016250   7.190   3.530   4.894 -0.4948 -0.9221  0.1105
   51MOL   C15116251   7.267   3.417   4.879 -0.0880 -0.9204 -0.1976
   51MOL   C15216252   7.216   3.310   4.800  0.2218 -0.0734  0.1164
   51MOL   C15316253   7.092   3.316   4.737  0.0676  0.0006  0.4119
   51MOL   H15416254   6.874   3.623   4.653  1.6160 -0.9877  1.5669
   51MOL   H15516255   6.921   3.524   4.519 -3.0126 -0.1689 -1.9381
   51MOL   H15616256   6.862   3.334   4.637 -2.1848  0.9402 -0.2167
   51MOL   H15716257   6.996   3.617   4.869  2.0369  1.8198 -1.8891
   51MOL   H15816258   7.219   3.613   4.957  0.6177  0.4282 -2.1373
   51MOL   H15916259   7.363   3.404   4.927 -1.2102 -0.7288  2.1338
   51MOL   H16016260   7.275   3.221   4.784 -0.0797 -0.0525 -1.2182
   51MOL   H16116261   7.060   3.228   4.684 -0.9375  0.9374 -0.5923
   51MOL   C16216262   6.765   3.407   4.822 -0.0340  0.2059  0.0567
   51MOL   C16316263   6.755   3.258   4.883  0.0853  0.0204  0.0901
   51MOL   C16416264   6.678   3.248   5.014 -0.5914 -0.6676  0.9247
   51MOL   C16516265   6.737   3.241   5.142 -0.2302 -0.5406  0.2008
   51MOL   C16616266   6.655   3.228   5.251  0.1854 -0.1663  0.8049
   51MOL   C16716267   6.514   3.223   5.234  0.1156  0.6137 -0.0205
   51MOL   C16816268   6.451   3.248   5.110 -0.4125  0.3849  0.4944
   51MOL   C16916269   6.541   3.266   4.999 -0.3218  0.9799 -0.7036
   51MOL   H17016270   6.665   3.443   4.801 -0.0665  0.9524  1.4238
   51MOL   H17116271   6.806   3.474   4.897  2.3398 -2.3424  1.1473
   51MOL   H17216272   6.853   3.230   4.922 -0.8852 -2.5290  0.7964
   51MOL   H17316273   6.841   3.262   5.158 -0.2063 -0.8293  0.4374
   51MOL   H17416274   6.711   3.218   5.343  0.9332  0.0969  0.3839
   51MOL   H17516275   6.455   3.218   5.324 -0.4425  1.1603 -0.3485
   51MOL   H17616276   6.346   3.241   5.088 -0.4437  0.5511  0.5936
   51MOL   H17716277   6.499   3.298   4.905 -0.0753 -2.0529 -1.9099
   51MOL   C17816278   6.717   3.159   4.772 -0.2584 -0.2195 -0.7151
   51MOL   C17916279   6.685   3.013   4.813 -0.8877  0.7928 -0.3712
   51MOL   C18016280   6.609   2.941   4.704 -0.5726 -0.6114  0.0299
   51MOL   C18116281   6.684   2.892   4.596 -0.3846 -1.2004 -0.0678
   51MOL   C18216282   6.622   2.824   4.490  0.2838  0.5465 -0.2142
   51MOL   C18316283   6.485   2.797   4.499  0.2827  0.0622 -0.3016
   51MOL   C18416284   6.412   2.850   4.607 -0.0959  0.6926 -1.0660
   51MOL   C18516285   6.471   2.917   4.715 -0.4028  0.0051 -0.1917
   51MOL   H18616286   6.801   3.164   4.703  0.8171  2.6349  0.7087
   51MOL   H18716287   6.631   3.209   4.727 -0.0115  0.2215 -0.6933
   51MOL   H18816288   6.616   3.033   4.894 -1.8374  2.7715 -1.6110
   51MOL   H18916289   6.791   2.896   4.583 -0.5573 -0.3225 -1.4070
   51MOL   H19016290   6.679   2.787   4.406 -1.6137 -1.0535 -0.8351
   51MOL   H19116291   6.437   2.750   4.415 -0.8013  2.5611 -1.1501
   51MOL   H19216292   6.306   2.830   4.615 -0.5282  3.4266  0.7592
   51MOL   H19316293   6.416   2.944   4.804  0.3437 -1.3054  0.6830
   51MOL   C19416294   6.796   2.929   4.874  0.4344  0.3566  0.8199
   51MOL   C19516295   6.743   2.811   4.953  0.1003  0.5256 -0.1568
   51MOL   C19616296   6.829   2.682   4.946 -0.8042  0.1437 -0.2433
   51MOL   C19716297   6.849   2.619   4.822 -0.3976  0.6214  0.3558
   51MOL   C19816298   6.930   2.504   4.804  0.3321 -0.3417 -0.1829
   51MOL   C19916299   6.996   2.450   4.915 -0.3130  0.2013 -0.1836
   51MOL   C20016300   6.976   2.509   5.045  0.6796 -0.2573 -0.2498
   51MOL   C20116301   6.889   2.625   5.060 -0.5251 -0.3873 -1.0548
   51MOL   H20216302   6.858   2.995   4.935  2.2508 -1.2835  0.7923
   51MOL   H20316303   6.859   2.893   4.793  0.6002 -1.0613  1.5671
   51MOL   H20416304   6.650   2.780   4.905  0.5872 -1.1768 -0.0579
   51MOL   H20516305   6.807   2.666   4.735 -1.3390 -1.0869 -0.1428
   51MOL   H20616306   6.941   2.454   4.709  4.0171  0.4208 -0.2535
   51MOL   H20716307   7.058   2.363   4.898  0.2777  0.3846  0.9973
   51MOL   H20816308   7.028   2.465   5.129  2.2281 -1.1249 -1.6290
   51MOL   H20916309   6.883   2.669   5.158  0.0482  2.6345 -2.3186
   51MOL   C21016310   6.700   2.842   5.100  0.0152 -0.2710  0.0223
   51MOL   C21116311   6.623   2.739   5.185  0.5039 -0.0189  0.0950
   51MOL   C21216312   6.613   2.816   5.319  0.2003 -0.4364 -0.0127
   51MOL   C21316313   6.727   2.807   5.404 -0.0433 -0.3815  0.1811
   51MOL   C21416314   6.738   2.883   5.521  0.0350 -0.4981  0.0105
   51MOL   C21516315   6.631   2.976   5.551  0.1874 -0.0544  0.2452
   51MOL   C21616316   6.510   2.980   5.474  0.4308  0.9363 -0.1131
   51MOL   C21716317   6.506   2.904   5.353 -0.3293  0.8325  0.0687
   51MOL   H21816318   6.635   2.928   5.082 -1.2073 -0.9714  0.9779
   51MOL   H21916319   6.779   2.894   5.155  0.7670 -1.0252 -0.3470
   51MOL   H22016320   6.673   2.643   5.194  1.1326  0.2146 -0.7858
   51MOL   H22116321   6.808   2.750   5.362 -1.2919 -0.7498 -1.8042
   51MOL   H22216322   6.825   2.861   5.582  0.6985 -0.9578 -1.0782
   51MOL   H22316323   6.645   3.041   5.636  1.7087  1.8768 -1.4316
   51MOL   H22416324   6.431   3.042   5.513 -1.6842 -1.2976 -0.7352
   51MOL   H22516325   6.422   2.920   5.286 -1.2653  1.4672  1.3643
   51MOL   C22616326   6.486   2.709   5.131  0.1969  0.2212 -0.3667
   51MOL   C22716327   6.482   2.596   5.024 -0.0274 -0.1167 -0.0971
   51MOL   C22816328   6.520   2.455   5.085 -0.5471  0.1178  0.8008
   51MOL   C22916329   6.637   2.390   5.050  0.0926  0.5279 -0.4907
   51MOL   C23016330   6.670   2.264   5.095  0.0406 -0.9303  0.3222
   51MOL   C23116331   6.593   2.197   5.187 -0.2040  0.4140  0.3633
   51MOL   C23216332   6.481   2.269   5.243  1.0041 -0.7110 -0.2984
   51MOL   C23316333   6.437   2.393   5.182 -0.8946  1.2146  0.0295
   51MOL   H23416334   6.438   2.798   5.090 -0.1506 -0.8505 -2.3698
   51MOL   H23516335   6.417   2.669   5.205  0.1382  1.3787  0.2093
   51MOL   H23616336   6.557   2.604   4.945 -0.3042 -1.3132 -0.4947
   51MOL   H23716337   6.709   2.431   4.980  0.6139 -0.3947 -0.5025
   51MOL   H23816338   6.752   2.210   5.050 -0.3259 -1.1814 -0.0484
   51MOL   H23916339   6.620   2.097   5.217  0.1581  1.3030  3.1323
   51MOL   H24016340   6.418   2.222   5.317  2.3113 -0.8923  0.7325
   51MOL   H24116341   6.348   2.437   5.224 -0.9715  2.2106 -1.1412
   51MOL   C24216342   6.343   2.586   4.955 -0.1158  0.5561 -0.6610
   51MOL   C24316343   6.340   2.478   4.838 -0.0181  0.5724  0.1111
   51MOL   C24416344   6.205   2.452   4.776 -0.7541  0.3794  0.2690
   51MOL   C24516345   6.132   2.562   4.721 -0.5259  0.2229  0.0259
   51MOL   C24616346   6.005   2.538   4.664  0.3285  0.6255 -0.3935
   51MOL   C24716347   5.956   2.405   4.658 -0.0657 -0.3038  0.1149
   51MOL   C24816348   6.031   2.300   4.722  0.2610  0.0328 -0.1608
   51MOL   C24916349   6.160   2.322   4.768 -0.3712  0.4122  0.1642
   51MOL   H25016350   6.309   2.685   4.924 -1.3660  0.1937 -0.4513
   51MOL   H25116351   6.262   2.570   5.025  0.4000 -1.6787 -0.5653
   51MOL   H25216352   6.360   2.389   4.898  1.6064  1.1804  0.4954
   51MOL   H25316353   6.175   2.661   4.726  0.4766 -0.2052 -0.0380
   51MOL   H25416354   5.966   2.622   4.610  0.6470  1.3770  0.5150
   51MOL   H25516355   5.870   2.382   4.597 -1.3885  0.3564  1.7063
   51MOL   H25616356   6.003   2.195   4.716  0.4277  0.0404 -1.2432
   51MOL   H25716357   6.224   2.240   4.797 -0.4824  0.9418  1.9434
   51MOL   C25816358   6.443   2.489   4.725 -0.2689 -0.2710 -0.1215
   51MOL   C25916359   6.456   2.367   4.629 -0.3352 -0.1259 -0.7421
   51MOL   C26016360   6.507   2.419   4.497 -0.7052  0.2369  0.0527
   51MOL   C26116361   6.633   2.481   4.496 -0.0350 -0.1954  0.4038
   51MOL   C26216362   6.682   2.516   4.369  1.2653  0.0436  0.0341
   51MOL   C26316363   6.609   2.510   4.247 -0.2321 -0.3028  0.6306
   51MOL   C26416364   6.477   2.468   4.255 -0.2527  0.4710 -0.2751
   51MOL   C26516365   6.427   2.424   4.379  0.6502  0.1068  0.0614
   51MOL   H26616366   6.545   2.519   4.748 -0.3230  0.7699 -1.1923
   51MOL   H26716367   6.409   2.571   4.662  1.4999  0.0111 -0.7301
   51MOL   H26816368   6.361   2.320   4.603 -0.8910  0.6066 -0.0802
   51MOL   H26916369   6.701   2.480   4.580 -1.3018  0.6075  1.4555
   51MOL   H27016370   6.785   2.547   4.368  0.9134  1.2180 -0.4926
   51MOL   H27116371   6.642   2.545   4.150 -1.8588 -0.7121 -0.0806
   51MOL   H27216372   6.422   2.471   4.163 -0.2058 -0.3230 -0.3307
   51MOL   H27316373   6.323   2.393   4.377  0.4647  0.7629 -1.0017
   51MOL   C27416374   6.533   2.248   4.684  0.1034 -0.7057 -0.0301
   51MOL   C27516375   6.568   2.134   4.580  0.0054  0.1370  0.4943
   51MOL   C27616376   6.724   2.140   4.545  0.6548 -0.0476 -0.2793
   51MOL   C27716377   6.813   2.106   4.647  0.6878  0.5056 -0.6186
   51MOL   C27816378   6.955   2.120   4.623  0.1445 -0.0147  0.6609
   51MOL   C27916379   6.992   2.183   4.502 -0.0959 -0.2667  0.2845
   51MOL   C28016380   6.903   2.213   4.402  0.0881  0.2391 -0.1819
   51MOL   C28116381   6.768   2.197   4.426  0.5426 -0.0923  0.6157
   51MOL   H28216382   6.467   2.219   4.765 -1.2597 -0.2934 -0.9682
   51MOL   H28316383   6.629   2.273   4.728  0.7973 -1.1701 -1.2675
   51MOL   H28416384   6.505   2.158   4.494  0.8923  0.1092 -0.1661
   51MOL   H28516385   6.774   2.069   4.741 -0.4210  0.6340 -1.0179
   51MOL   H28616386   7.036   2.106   4.693  0.2149 -3.7105 -0.0778
   51MOL   H28716387   7.095   2.212   4.489 -0.4017  0.6647 -0.0478
   51MOL   H28816388   6.943   2.253   4.310  0.7521 -0.9438 -0.4143
   51MOL   H28916389   6.706   2.238   4.348  0.0600 -0.4235  0.8297
   51MOL   C29016390   6.518   1.998   4.625 -0.1714  0.6441  0.1196
   51MOL   C29116391   6.547   1.887   4.524  0.0059  0.7029 -0.0957
   51MOL   C29216392   6.564   1.752   4.594  0.4529  0.0206  0.5062
   51MOL   C29316393   6.670   1.662   4.562  0.1880 -0.0684 -0.0789
   51MOL   C29416394   6.697   1.550   4.639 -0.1783  0.4876 -0.0223
   51MOL   C29516395   6.611   1.514   4.744  0.4688  0.3378 -0.3568
   51MOL   C29616396   6.503   1.597   4.777  0.2182  0.2960  0.0990
   51MOL   C29716397   6.483   1.713   4.701 -1.2578  0.1652  0.1386
   51MOL   H29816398   6.412   2.000   4.652  0.1675  1.1357  1.4742
   51MOL   H29916399   6.568   1.981   4.720  0.9188 -2.2546 -0.9195
   51MOL   H30016400   6.640   1.908   4.471 -0.2455  0.5917 -0.5768
   51MOL   H30116401   6.737   1.686   4.481  0.6415  1.2349  0.6607
   51MOL   H30216402   6.782   1.485   4.624  1.0471  2.1448 -0.4666
   51MOL   H30316403   6.630   1.419   4.790  0.6422  1.3006  1.6222
   51MOL   H30416404   6.431   1.580   4.856 -2.2158  0.3591 -2.0266
   51MOL   H30516405   6.404   1.782   4.729 -0.5167  1.4617 -0.8820
   51MOL   C30616406   6.442   1.892   4.411  0.4583 -0.4333  0.3497
   51MOL   C30716407   6.493   1.851   4.275  0.1176 -0.3324  0.2019
   51MOL   C30816408   6.381   1.845   4.170 -0.0032  0.3166 -0.0112
   51MOL   C30916409   6.306   1.728   4.155 -0.1358  0.1970  0.4425
   51MOL   C31016410   6.208   1.721   4.053  0.1673  0.5706  0.2604
   51MOL   C31116411   6.183   1.833   3.969  0.1575 -0.7046  0.0788
   51MOL   C31216412   6.259   1.951   3.989 -0.0843 -0.5021 -0.4631
   51MOL   C31316413   6.347   1.955   4.097 -0.2685  0.0685 -0.0639
   51MOL   H31416414   6.407   1.995   4.401  1.7133 -0.2194 -2.2798
   51MOL   H31516415   6.358   1.825   4.430 -0.6314  1.0747  1.0228
   51MOL   H31616416   6.546   1.756   4.283 -1.3204 -1.2924 -1.2741
   51MOL   H31716417   6.334   1.640   4.212  0.7060 -1.4723 -2.4377
   51MOL   H31816418   6.156   1.627   4.037  1.6440  0.2057 -2.6562
   51MOL   H31916419   6.109   1.824   3.890 -0.5201  0.4498  0.5758
   51MOL   H32016420   6.255   2.030   3.916 -0.0427  1.0172  1.1630
   51MOL   H32116421   6.399   2.048   4.117  0.6478 -0.2832 -0.7751
   51MOL   H32216422   6.559   1.934   4.249  0.6256 -0.1874  1.9071
   52MOL     C116423   6.462   1.878   0.966  0.1509 -0.0389 -1.1495
   52MOL     C216424   6.601   1.813   0.995 -0.5655  0.2374  0.2092
   52MOL     C316425   6.595   1.684   1.073  1.5368  0.1113 -0.3011
   52MOL     C416426   6.529   1.565   1.021  0.4900 -0.2129  0.0365
   52MOL     C516427   6.538   1.447   1.091  0.4626 -0.0600 -0.8968
   52MOL     C616428   6.568   1.449   1.233  0.6315  0.3705  0.0033
   52MOL     C716429   6.626   1.562   1.283  0.5964 -0.1766  0.4378
   52MOL     C816430   6.636   1.685   1.207 -0.5749  0.4030  0.1898
   52MOL     H916431   6.413   1.894   1.062  0.2301 -1.1310 -0.9207
   52MOL    H1016432   6.482   1.970   0.911  0.5982  1.1454  0.9329
   52MOL    H1116433   6.657   1.882   1.058 -2.4500  3.4386 -1.4908
   52MOL    H1216434   6.487   1.567   0.921 -3.1503 -0.7815  1.4686
   52MOL    H1316435   6.497   1.360   1.042 -0.2060 -1.0013  1.2593
   52MOL    H1416436   6.574   1.358   1.290  2.3593 -0.1058 -0.8955
   52MOL    H1516437   6.637   1.566   1.391  0.2046 -1.0960  0.5116
   52MOL    H1616438   6.668   1.775   1.257  0.8038 -0.6433  1.2651
   52MOL    H1716439   6.393   1.821   0.904 -0.2471 -1.5498  0.6457
   52MOL    C1816440   6.670   1.796   0.861 -0.0150 -0.1827 -0.0049
   52MOL    C1916441   6.803   1.708   0.865 -0.1477 -0.0500 -0.1419
   52MOL    C2016442   6.840   1.670   0.722  0.1557 -0.0967 -0.2542
   52MOL    C2116443   6.874   1.766   0.625  0.4968  0.1205 -0.2772
   52MOL    C2216444   6.913   1.730   0.493  0.3701  1.5584 -0.1531
   52MOL    C2316445   6.900   1.592   0.459  0.4397  0.5643 -0.3036
   52MOL    C2416446   6.851   1.497   0.555 -0.2275 -0.5352  0.2468
   52MOL    C2516447   6.825   1.534   0.687 -0.0902  0.4253  0.4054
   52MOL    H2616448   6.673   1.899   0.824  1.4717  0.3718  1.5844
   52MOL    H2716449   6.614   1.751   0.779 -0.5015  1.6206 -0.6904
   52MOL    H2816450   6.777   1.612   0.910 -0.3579 -0.5864 -1.3791
   52MOL    H2916451   6.872   1.872   0.649  0.3587  0.8105 -3.1157
   52MOL    H3016452   6.942   1.804   0.420  0.4768 -0.0898 -1.8116
   52MOL    H3116453   6.925   1.563   0.359 -2.2226  1.0889 -1.1649
   52MOL    H3216454   6.846   1.394   0.523  1.1367 -0.0897 -1.5012
   52MOL    H3316455   6.787   1.465   0.761 -2.6693  1.9791  0.5890
   52MOL    C3416456   6.926   1.780   0.935 -0.2233 -0.0643  0.4817
   52MOL    C3516457   7.050   1.685   0.959 -0.7402 -0.3443 -0.1144
   52MOL    C3616458   7.179   1.761   0.945 -0.7921  0.2904 -0.0589
   52MOL    C3716459   7.238   1.831   1.048  0.1114 -0.1824 -0.1884
   52MOL    C3816460   7.365   1.891   1.033  0.1891 -0.5221 -0.0694
   52MOL    C3916461   7.427   1.889   0.904  0.5261  0.1293  0.2462
   52MOL    C4016462   7.363   1.828   0.798  0.1590  1.1133  0.2123
   52MOL    C4116463   7.243   1.764   0.819  0.2737 -0.0945  1.0036
   52MOL    H4216464   6.889   1.821   1.029 -0.7867 -0.6019  0.4952
   52MOL    H4316465   6.952   1.872   0.882  2.4328 -0.7525  0.4894
   52MOL    H4416466   7.043   1.617   0.875 -2.3708  1.6964 -1.6918
   52MOL    H4516467   7.195   1.830   1.147 -0.1774 -0.8514 -0.3181
   52MOL    H4616468   7.418   1.946   1.110  1.1032  1.0197 -1.7546
   52MOL    H4716469   7.525   1.928   0.883  0.5715  0.1693  0.5311
   52MOL    H4816470   7.399   1.840   0.697  1.4982 -1.9352  0.2628
   52MOL    H4916471   7.202   1.711   0.733  0.8873  0.9315  0.0637
   52MOL    C5016472   7.044   1.593   1.085  0.0196  0.1844  0.6823
   52MOL    C5116473   7.076   1.437   1.076 -0.3337  0.2371  0.0182
   52MOL    C5216474   7.180   1.406   0.971  0.0301  0.5183 -0.0182
   52MOL    C5316475   7.145   1.316   0.866 -0.2114  0.0817 -0.2387
   52MOL    C5416476   7.237   1.284   0.760 -0.1599  0.7993  0.3211
   52MOL    C5516477   7.367   1.338   0.766 -0.9967 -0.8917  0.0208
   52MOL    C5616478   7.404   1.428   0.866  0.1491  0.2045 -0.2267
   52MOL    C5716479   7.311   1.460   0.972 -0.7662  0.0440 -1.1727
   52MOL    H5816480   6.950   1.588   1.140  0.1526 -0.7811  0.8296
   52MOL    H5916481   7.106   1.640   1.162  0.4450 -2.0111  1.7365
   52MOL    H6016482   6.982   1.396   1.039  0.2033 -0.5797 -0.4583
   52MOL    H6116483   7.054   1.256   0.865  0.5868 -1.1541  0.1945
   52MOL    H6216484   7.225   1.201   0.693  1.1459  0.6488  0.2624
   52MOL    H6316485   7.437   1.318   0.686 -1.0153  3.2014 -1.0990
   52MOL    H6416486   7.507   1.462   0.868  0.8965 -1.9990  1.2052
   52MOL    H6516487   7.343   1.532   1.046 -1.3289 -0.6466 -0.2308
   52MOL    C6616488   7.118   1.376   1.212  0.5451 -0.4075 -0.0136
   52MOL    C6716489   7.065   1.236   1.255  0.0981 -0.2715  0.9499
   52MOL    C6816490   7.068   1.127   1.147  0.1414 -0.3036  0.5760
   52MOL    C6916491   7.194   1.083   1.103 -0.0376  0.9189 -0.5042
   52MOL    C7016492   7.209   0.981   1.010  0.4354  0.1662  0.1904
   52MOL    C7116493   7.094   0.919   0.968  0.5586  0.2513 -0.0044
   52MOL    C7216494   6.963   0.948   1.012 -0.7333 -0.4220  0.0612
   52MOL    C7316495   6.954   1.058   1.102 -0.5649 -0.2706  0.5255
   52MOL    H7416496   7.094   1.437   1.299  0.5222 -1.0298  0.4179
   52MOL    H7516497   7.227   1.373   1.205  0.6003  1.1895  0.0164
   52MOL    H7616498   6.960   1.255   1.279 -0.6060 -2.2849 -0.3817
   52MOL    H7716499   7.283   1.133   1.140 -0.4208  0.6319  0.8371
   52MOL    H7816500   7.302   0.958   0.961  0.5940  0.5658  0.2998
   52MOL    H7916501   7.101   0.828   0.909 -1.0295 -0.8577  1.4812
   52MOL    H8016502   6.884   0.881   0.984 -0.8999 -0.2736  0.1771
   52MOL    H8116503   6.854   1.092   1.124 -0.5559  0.8667 -1.1215
   52MOL    C8216504   7.138   1.185   1.383 -0.3765  0.2810 -0.2970
   52MOL    C8316505   7.076   1.068   1.457  0.2551  0.6287  0.1924
   52MOL    C8416506   7.179   0.970   1.511  0.6872 -0.1746 -0.5163
   52MOL    C8516507   7.179   0.840   1.460  0.5910  0.0644 -0.2461
   52MOL    C8616508   7.273   0.742   1.508 -0.3037 -0.1598  0.1082
   52MOL    C8716509   7.367   0.781   1.607  0.3851  0.5678  0.2921
   52MOL    C8816510   7.359   0.911   1.663 -0.1054  0.6288 -0.9163
   52MOL    C8916511   7.270   1.006   1.612  0.4938 -0.1338 -0.3959
   52MOL    H9016512   7.142   1.267   1.454 -1.0895 -0.8066  1.0360
   52MOL    H9116513   7.241   1.160   1.358 -0.1767  0.7782  0.0225
   52MOL    H9216514   7.024   1.017   1.375  2.3973 -0.6257 -0.4351
   52MOL    H9316515   7.110   0.808   1.383  0.0171  0.5023  0.0797
   52MOL    H9416516   7.273   0.644   1.461 -0.4510  0.4611 -1.1996
   52MOL    H9516517   7.450   0.716   1.632 -0.5575 -1.0136 -0.6524
   52MOL    H9616518   7.428   0.948   1.737 -1.1949  0.7514  0.0531
   52MOL    H9716519   7.262   1.106   1.650 -1.8350 -1.2808  2.2392
   52MOL    C9816520   6.964   1.110   1.561  0.2602 -0.0803 -0.3556
   52MOL    C9916521   6.842   1.012   1.565  0.4316 -0.0215  1.1346
   52MOL   C10016522   6.782   1.010   1.708 -0.8880  0.8304 -0.3564
   52MOL   C10116523   6.863   0.985   1.825 -0.3213 -0.8589 -0.1954
   52MOL   C10216524   6.812   0.987   1.953 -0.4602 -0.5378  0.2691
   52MOL   C10316525   6.676   1.019   1.971 -0.1278  0.7914  0.2828
   52MOL   C10416526   6.593   1.037   1.861  0.1252  0.2946 -0.2947
   52MOL   C10516527   6.647   1.033   1.732 -0.4099 -0.7423  0.6728
   52MOL   H10616528   6.924   1.209   1.535  1.7980  0.6517  0.0175
   52MOL   H10716529   7.008   1.134   1.658 -1.9456 -1.3925  1.0092
   52MOL   H10816530   6.882   0.912   1.546 -1.2932 -0.0266 -2.7742
   52MOL   H10916531   6.969   0.963   1.823 -0.0919  0.1736  0.5503
   52MOL   H11016532   6.875   0.958   2.036 -0.3041 -0.1595  0.2837
   52MOL   H11116533   6.640   1.016   2.072  1.3139 -2.4515  0.7733
   52MOL   H11216534   6.488   1.060   1.870  0.1805 -0.1049  1.4458
   52MOL   H11316535   6.575   1.041   1.653 -0.6680 -0.5591  0.9257
   52MOL   C11416536   6.739   1.041   1.458  0.6479  0.2025  0.1762
   52MOL   C11516537   6.634   0.940   1.416 -0.1024  0.0381  0.6000
   52MOL   C11616538   6.537   1.017   1.328 -0.3345  0.4018 -0.7021
   52MOL   C11716539   6.551   1.022   1.187 -0.4999  0.1459  0.2313
   52MOL   C11816540   6.463   1.097   1.112  0.3057  0.8766  0.0044
   52MOL   C11916541   6.347   1.146   1.164  0.4656 -0.2495  0.3440
   52MOL   C12016542   6.328   1.144   1.307 -0.3408 -0.4419  0.1026
   52MOL   C12116543   6.424   1.074   1.386  0.1285  0.0412 -0.1815
   52MOL   H12216544   6.783   1.061   1.360  0.0196  0.7499  0.0034
   52MOL   H12316545   6.696   1.139   1.481  1.4399  0.2621  1.4633
   52MOL   H12416546   6.579   0.912   1.507 -0.4088 -3.1079 -0.4952
   52MOL   H12516547   6.643   0.989   1.142 -1.5533 -0.9447 -1.1944
   52MOL   H12616548   6.489   1.119   1.010  0.7185  1.3966  0.2177
   52MOL   H12716549   6.276   1.209   1.112  0.0838  0.1727  1.3549
   52MOL   H12816550   6.240   1.180   1.359  0.1182 -1.1110  1.3538
   52MOL   H12916551   6.410   1.073   1.493  0.3472  0.3938 -0.1509
   52MOL   C13016552   6.688   0.813   1.344 -0.5228  0.0711  1.0600
   52MOL   C13116553   6.581   0.718   1.284 -0.0773  0.3642 -0.0114
   52MOL   C13216554   6.641   0.636   1.167  0.2374  0.4310 -0.0254
   52MOL   C13316555   6.593   0.666   1.034  0.1691  0.2336  0.1891
   52MOL   C13416556   6.643   0.585   0.929 -0.4107 -0.3894 -0.3226
   52MOL   C13516557   6.758   0.502   0.946  0.5076  0.1820  0.4499
   52MOL   C13616558   6.814   0.488   1.070  0.5727  0.3888 -0.9096
   52MOL   C13716559   6.751   0.551   1.181  0.1116 -0.2789 -0.5502
   52MOL   H13816560   6.755   0.753   1.406  2.0246  0.5402 -1.1343
   52MOL   H13916561   6.751   0.853   1.265 -2.3764 -0.1191 -0.5676
   52MOL   H14016562   6.489   0.768   1.255  1.5472  2.5694 -1.4702
   52MOL   H14116563   6.507   0.731   1.024  0.2406  0.3788  0.5237
   52MOL   H14216564   6.599   0.594   0.831 -1.7322  0.4827  0.3456
   52MOL   H14316565   6.791   0.440   0.863 -0.3436 -0.3412  0.4968
   52MOL   H14416566   6.904   0.430   1.087 -0.0157 -0.5971 -1.1252
   52MOL   H14516567   6.794   0.527   1.277 -2.3339  0.0278  0.6474
   52MOL   C14616568   6.539   0.621   1.396  0.2128 -0.2842  0.1312
   52MOL   C14716569   6.413   0.536   1.366 -0.8600  0.0096 -0.3246
   52MOL   C14816570   6.287   0.605   1.322  0.2774  0.0133 -0.2133
   52MOL   C14916571   6.270   0.646   1.185 -0.2762  0.3148 -0.2368
   52MOL   C15016572   6.155   0.709   1.138 -0.2197 -0.5673  0.2934
   52MOL   C15116573   6.054   0.745   1.233  0.5392 -0.1478  0.8127
   52MOL   C15216574   6.072   0.712   1.368 -0.5223  0.1524 -0.0661
   52MOL   C15316575   6.186   0.644   1.410  0.7001 -0.1499 -0.2273
   52MOL   H15416576   6.512   0.683   1.482 -1.0232 -1.0616  0.3118
   52MOL   H15516577   6.624   0.557   1.418 -1.2398 -2.1781  0.3174
   52MOL   H15616578   6.380   0.486   1.457 -0.4843  1.9826  0.9133
   52MOL   H15716579   6.346   0.618   1.113  0.8353  2.2176  0.1665
   52MOL   H15816580   6.141   0.719   1.032  0.9719  0.1428  0.1972
   52MOL   H15916581   5.959   0.786   1.201  0.0696 -0.5507  1.6521
   52MOL   H16016582   5.996   0.725   1.444  1.2253 -1.1211  1.9548
   52MOL   H16116583   6.194   0.615   1.514 -2.9612 -1.5114 -0.2350
   52MOL   C16216584   6.452   0.417   1.274 -0.7380  0.1862 -0.1421
   52MOL   C16316585   6.334   0.315   1.257  0.2489 -0.2736  0.0207
   52MOL   C16416586   6.274   0.333   1.120 -0.4318 -0.2679 -0.0929
   52MOL   C16516587   6.347   0.333   0.997 -0.4775 -0.3853 -0.2604
   52MOL   C16616588   6.282   0.338   0.869  0.9345 -0.2755  0.1675
   52MOL   C16716589   6.140   0.354   0.873  0.5872  0.2873 -0.0006
   52MOL   C16816590   6.066   0.357   0.992  0.8387 -0.4397  0.0535
   52MOL   C16916591   6.133   0.338   1.111 -0.4684 -1.2341  0.4784
   52MOL   H17016592   6.544   0.366   1.303 -1.1962 -0.9017 -0.5512
   52MOL   H17116593   6.473   0.450   1.172 -0.5655 -1.9678 -0.8513
   52MOL   H17216594   6.253   0.325   1.330 -0.8355 -0.4269 -1.1566
   52MOL   H17316595   6.454   0.317   1.002 -0.2343  1.3352  0.3551
   52MOL   H17416596   6.342   0.350   0.779  0.7285  1.7356  0.2669
   52MOL   H17516597   6.091   0.368   0.778 -0.6488 -2.3260  0.2109
   52MOL   H17616598   5.959   0.365   0.994  0.8726 -0.1225  1.6060
   52MOL   H17716599   6.075   0.332   1.202  0.8377  1.5805  1.5358
   52MOL   C17816600   6.383   0.172   1.270  1.3203 -0.8346  0.4197
   52MOL   C17916601   6.449   0.141   1.411  1.0735 -0.4816 -0.4190
   52MOL   C18016602   6.361   0.200   1.531  0.0331 -0.3456  0.4826
   52MOL   C18116603   6.414   0.293   1.624 -0.3476 -0.2335  1.2259
   52MOL   C18216604   6.343   0.326   1.740 -0.0420 -0.2167  0.1469
   52MOL   C18316605   6.214   0.269   1.768  0.0909  0.2369  0.1066
   52MOL   C18416606   6.168   0.175   1.670 -0.1341 -0.0059 -0.1454
   52MOL   C18516607   6.235   0.143   1.553  0.0483 -1.1384 -1.3820
   52MOL   H18616608   6.456   0.163   1.189 -0.7222  1.4328 -1.7903
   52MOL   H18716609   6.297   0.109   1.249 -0.6701  2.2922 -1.2981
   52MOL   H18816610   6.548   0.188   1.407 -0.2279  2.3090 -0.5599
   52MOL   H18916611   6.515   0.330   1.615 -0.4417  0.0761  1.4744
   52MOL   H19016612   6.380   0.400   1.810 -1.5267  0.5954  0.1113
   52MOL   H19116613   6.154   0.294   1.854 -0.8851 -1.6606  0.0026
   52MOL   H19216614   6.077   0.122   1.693 -1.0058  0.9228 -1.3918
   52MOL   H19316615   6.196   0.066   1.488 -0.4158  0.1166 -2.5979
   52MOL   C19416616   6.463   8.105   1.433 -0.6354 -0.1064  0.8906
   52MOL   C19516617   6.548   8.017   1.328  0.0085 -0.0724 -0.0960
   52MOL   C19616618   6.651   8.102   1.252 -0.1165 -0.3447 -0.4005
   52MOL   C19716619   6.751   0.050   1.332  1.1699 -0.7283  0.1777
   52MOL   C19816620   6.846   0.139   1.277  0.5209 -0.0260 -0.4132
   52MOL   C19916621   6.853   0.144   1.135 -0.3782 -0.5867 -1.0202
   52MOL   C20016622   6.759   0.070   1.057  0.2640  0.2952  0.0521
   52MOL   C20116623   6.647   8.114   1.110 -0.0549  0.2327 -0.1712
   52MOL   H20216624   6.368   8.053   1.440 -0.3179 -0.9591 -0.6881
   52MOL   H20316625   6.506   8.107   1.533  1.9561  0.7762 -0.1969
   52MOL   H20416626   6.474   7.993   1.251  0.0689  1.5469 -0.6800
   52MOL   H20516627   6.743   0.028   1.438  2.1525 -1.9656  0.0104
   52MOL   H20616628   6.919   0.185   1.343 -0.3484 -0.2619  0.7300
   52MOL   H20716629   6.929   0.203   1.086  0.6280  0.3188  1.5670
   52MOL   H20816630   6.760   0.075   0.949 -0.2696  0.5595  0.0561
   52MOL   H20916631   6.575   8.057   1.053  0.9934 -0.8254 -0.4368
   52MOL   C21016632   6.589   7.879   1.386  0.1503  0.3130 -0.5965
   52MOL   C21116633   6.652   7.770   1.288  0.2045  0.5542 -0.1768
   52MOL   C21216634   6.709   7.660   1.378  0.4667  0.5022 -0.3630
   52MOL   C21316635   6.839   7.612   1.354 -0.1337 -0.1370  0.2258
   52MOL   C21416636   6.899   7.511   1.436  0.5892 -0.3298  0.2898
   52MOL   C21516637   6.828   7.461   1.541  1.0344  0.4009 -0.2994
   52MOL   C21616638   6.694   7.506   1.566  0.4740 -0.2329 -0.0638
   52MOL   C21716639   6.635   7.605   1.484  0.3190 -0.3871  0.1107
   52MOL   H21816640   6.510   7.838   1.448 -0.0054 -1.3929 -1.8706
   52MOL   H21916641   6.663   7.897   1.464 -0.4353  1.3689 -0.2820
   52MOL   H22016642   6.730   7.819   1.231  0.9021 -0.5412 -0.1831
   52MOL   H22116643   6.905   7.666   1.287  0.2537 -0.9569 -0.0616
   52MOL   H22216644   7.001   7.478   1.426  1.6095  2.1095  2.2026
   52MOL   H22316645   6.869   7.381   1.600 -1.8882  0.4486  1.9465
   52MOL   H22416646   6.643   7.467   1.652  1.0497  1.8163  1.2430
   52MOL   H22516647   6.532   7.635   1.497  0.2346 -0.1010 -1.1545
   52MOL   C22616648   6.537   7.712   1.200  0.2341 -0.1493 -0.2675
   52MOL   C22716649   6.557   7.712   1.047  0.4130 -0.0899 -0.2958
   52MOL   C22816650   6.685   7.634   1.009 -0.2663 -0.4281 -0.1239
   52MOL   C22916651   6.773   7.690   0.909  0.6562 -0.9717 -0.1128
   52MOL   C23016652   6.886   7.618   0.868 -0.3121  0.5932 -0.1060
   52MOL   C23116653   6.916   7.493   0.936 -0.4136  0.4682  0.2680
   52MOL   C23216654   6.826   7.441   1.030  0.1218 -0.2977  0.2124
   52MOL   C23316655   6.713   7.514   1.074  0.1436  0.4274  0.2204
   52MOL   H23416656   6.447   7.770   1.223  1.2556  1.2274  0.3005
   52MOL   H23516657   6.508   7.615   1.240  0.1221 -0.2785 -0.6615
   52MOL   H23616658   6.578   7.813   1.012 -0.5661  0.6000  1.0575
   52MOL   H23716659   6.748   7.786   0.865  0.0676 -1.4295 -0.7961
   52MOL   H23816660   6.954   7.663   0.797 -1.1787  1.8994 -0.1103
   52MOL   H23916661   7.013   7.446   0.923  0.2621  1.9278 -0.1099
   52MOL   H24016662   6.853   7.350   1.082 -1.8241 -0.9985  0.0474
   52MOL   H24116663   6.650   7.485   1.157  2.5655  1.3095  2.4553
   52MOL   C24216664   6.430   7.655   0.970  0.8076  0.1615 -0.3191
   52MOL   C24316665   6.306   7.752   0.965 -0.2592  0.0370 -0.6553
   52MOL   C24416666   6.347   7.870   0.888 -0.7777 -0.0521  1.0317
   52MOL   C24516667   6.344   7.999   0.946 -1.0105  0.0151 -0.4650
   52MOL   C24616668   6.374   0.003   0.876 -0.0172  0.3246 -0.4419
   52MOL   C24716669   6.406   8.104   0.740  0.1322  0.2633 -0.0234
   52MOL   C24816670   6.400   7.976   0.679  0.3366 -0.4831  0.1672
   52MOL   C24916671   6.387   7.861   0.750 -0.1341  0.9881 -1.0916
   52MOL   H25016672   6.408   7.557   1.011  3.0595 -0.9793 -1.7607
   52MOL   H25116673   6.465   7.633   0.869 -0.7966 -1.5197 -0.5358
   52MOL   H25216674   6.273   7.769   1.068  2.1715 -0.9966  0.3269
   52MOL   H25316675   6.326   8.001   1.053  4.1089  1.0495  0.5172
   52MOL   H25416676   6.377   0.090   0.939 -1.9692 -0.8479  1.3326
   52MOL   H25516677   6.419   0.081   0.685  0.0637  2.1492  3.0122
   52MOL   H25616678   6.410   7.962   0.572 -0.9164  2.3626 -0.3776
   52MOL   H25716679   6.394   7.764   0.702  2.2602 -1.5271  3.9120
   52MOL   C25816680   6.179   7.692   0.895 -0.1033 -0.9754  0.3981
   52MOL   C25916681   6.115   7.566   0.964  0.0297  0.0462 -0.0514
   52MOL   C26016682   5.962   7.565   0.962 -0.9409 -0.4670  0.5089
   52MOL   C26116683   5.888   7.595   1.076 -0.5938 -0.9095  0.2690
   52MOL   C26216684   5.749   7.582   1.074 -0.2458  0.3259 -0.5684
   52MOL   C26316685   5.679   7.573   0.955 -0.9283  1.1840 -0.4205
   52MOL   C26416686   5.750   7.540   0.835  0.7105  0.2013  0.2688
   52MOL   C26516687   5.889   7.537   0.842 -0.3225 -0.4007  0.1597
   52MOL   H26616688   6.191   7.669   0.789  0.4097 -2.9362  0.8689
   52MOL   H26716689   6.100   7.768   0.899 -0.9634 -1.7203 -1.5787
   52MOL   H26816690   6.146   7.569   1.068 -2.6930  0.7821  0.7928
   52MOL   H26916691   5.940   7.624   1.166 -1.1954  0.5794  0.1503
   52MOL   H27016692   5.706   7.598   1.172 -0.7987 -0.3610 -0.6986
   52MOL   H27116693   5.572   7.569   0.965 -0.6164  0.9500  3.5613
   52MOL   H27216694   5.705   7.521   0.739  0.1852  0.2674  0.4973
   52MOL   H27316695   5.938   7.515   0.748  0.6534 -1.1219  0.8283
   52MOL   C27416696   6.171   7.432   0.912 -0.3747  0.3907  0.1076
   52MOL   C27516697   6.159   7.302   1.005  0.1652  0.2171 -0.2525
   52MOL   C27616698   6.276   7.292   1.107  0.6886 -0.1432  0.1672
   52MOL   C27716699   6.270   7.353   1.234  0.0702  0.3044  0.1768
   52MOL   C27816700   6.375   7.331   1.323  0.2483  0.1155 -0.7407
   52MOL   C27916701   6.491   7.259   1.289  1.1723  0.0712  0.0495
   52MOL   C28016702   6.496   7.195   1.162 -0.1341  0.0951 -0.0274
   52MOL   C28116703   6.391   7.219   1.068  0.0999 -0.5867  0.1832
   52MOL   H28216704   6.274   7.432   0.876 -0.7448  0.9814 -0.9742
   52MOL   H28316705   6.116   7.412   0.819  0.9298 -0.2747 -0.5237
   52MOL   H28416706   6.166   7.220   0.933 -1.9313 -0.4931  0.3079
   52MOL   H28516707   6.182   7.403   1.271  0.5258 -0.3735  2.2274
   52MOL   H28616708   6.351   7.380   1.417 -1.3483 -0.9921 -0.5412
   52MOL   H28716709   6.574   7.238   1.354  2.5055  0.1687 -1.5842
   52MOL   H28816710   6.585   7.139   1.137 -0.4319 -1.7548  2.7467
   52MOL   H28916711   6.398   7.182   0.967  1.2936  0.8437 -0.2694
   52MOL   C29016712   6.016   7.258   1.069 -0.4072 -0.1089  0.0156
   52MOL   C29116713   6.012   7.126   1.152  0.1600  0.1195 -0.4895
   52MOL   C29216714   6.003   7.161   1.304 -0.3292  1.1703 -0.4569
   52MOL   C29316715   5.890   7.219   1.362  0.5750  0.0031  0.2438
   52MOL   C29416716   5.886   7.245   1.499 -0.1101 -0.0928  0.4839
   52MOL   C29516717   5.995   7.212   1.578  0.2285 -0.0652  0.4916
   52MOL   C29616718   6.101   7.148   1.516  0.3400 -1.1215  0.3626
   52MOL   C29716719   6.113   7.120   1.378 -0.3153  0.2818 -0.0436
   52MOL   H29816720   5.945   7.253   0.987  0.0035  2.7425 -0.5609
   52MOL   H29916721   5.972   7.341   1.124 -0.1139 -0.8663  1.4050
   52MOL   H30016722   6.106   7.073   1.140  1.1550  2.2873 -2.7200
   52MOL   H30116723   5.798   7.236   1.308  1.6498 -2.4357 -2.4473
   52MOL   H30216724   5.794   7.285   1.540 -0.6784 -0.9892  0.1183
   52MOL   H30316725   6.009   7.231   1.684 -0.4880  3.2629  0.0406
   52MOL   H30416726   6.181   7.119   1.583  0.4553 -0.8603  0.3392
   52MOL   H30516727   6.203   7.080   1.333 -0.2320 -0.3601  0.6905
   52MOL   C30616728   5.890   7.041   1.095 -0.6235  0.5286 -0.4170
   52MOL   C30716729   5.922   6.952   0.962  0.1399  0.7296  0.0415
   52MOL   C30816730   5.792   6.894   0.917  0.0008 -0.2097  0.2617
   52MOL   C30916731   5.725   6.801   0.994 -0.0881  0.0086 -0.5600
   52MOL   C31016732   5.607   6.742   0.930  0.0651 -0.8437  0.3803
   52MOL   C31116733   5.563   6.784   0.803 -0.0876 -0.5274  0.1744
   52MOL   C31216734   5.633   6.880   0.727 -0.2090  0.0883 -0.2679
   52MOL   C31316735   5.743   6.935   0.790  0.5446 -0.0647  0.2450
   52MOL   H31416736   5.805   7.106   1.074 -2.3301 -2.0603 -1.8612
   52MOL   H31516737   5.854   6.975   1.174  0.4538  0.9964  0.4762
   52MOL   H31616738   5.997   6.875   0.981  1.0695  2.0225  1.8188
   52MOL   H31716739   5.747   6.758   1.090 -0.7449  1.1511  0.1251
   52MOL   H31816740   5.559   6.664   0.988 -1.8284 -1.1886 -1.6043
   52MOL   H31916741   5.469   6.752   0.759 -0.4028  0.6295 -0.0039
   52MOL   H32016742   5.592   6.914   0.633  2.2334  0.3042 -1.2913
   52MOL   H32116743   5.805   7.005   0.736 -0.2427  1.2323  0.9719
   52MOL   H32216744   5.959   7.017   0.883  0.0493 -0.4008 -0.9452
   53MOL     C116745   6.382   1.419   6.146  0.1771  0.0243 -0.6176
   53MOL     C216746   6.356   1.417   5.995  0.0698 -0.3189 -0.8200
   53MOL     C316747   6.269   1.295   5.956 -0.2434 -0.2356  0.0256
   53MOL     C416748   6.128   1.304   5.938 -0.5541  0.6901 -0.7413
   53MOL     C516749   6.060   1.192   5.882 -0.2439  0.7227  0.1970
   53MOL     C616750   6.126   1.078   5.842 -0.7185  0.7008 -0.0307
   53MOL     C716751   6.264   1.074   5.841  1.1070 -0.0142  0.2552
   53MOL     C816752   6.337   1.177   5.904 -0.2658 -0.0850 -0.1276
   53MOL     H916753   6.444   1.504   6.173 -0.1375 -0.0484  0.3379
   53MOL    H1016754   6.288   1.429   6.201  0.8184  2.3035  0.1217
   53MOL    H1116755   6.455   1.413   5.951 -0.1621  0.4566 -1.4191
   53MOL    H1216756   6.068   1.388   5.968 -1.9216 -0.3559 -0.4935
   53MOL    H1316757   5.954   1.214   5.880 -0.1134  1.3637  0.1148
   53MOL    H1416758   6.067   0.997   5.802 -1.6012  2.0423 -1.4737
   53MOL    H1516759   6.312   0.990   5.792 -0.1941 -0.4757 -0.2370
   53MOL    H1616760   6.445   1.170   5.901 -0.3297 -1.8209  1.3429
   53MOL    H1716761   6.433   1.329   6.178 -2.1334 -1.4889 -1.0292
   53MOL    C1816762   6.281   1.550   5.938 -0.5587 -0.5295 -0.2182
   53MOL    C1916763   6.377   1.670   5.908 -0.5431 -0.1550  0.6792
   53MOL    C2016764   6.500   1.643   5.816  0.1429  0.3967  0.0449
   53MOL    C2116765   6.482   1.562   5.707  0.2939 -0.1027 -0.0562
   53MOL    C2216766   6.586   1.549   5.614 -0.5264 -0.0046 -0.6859
   53MOL    C2316767   6.715   1.610   5.638  0.3061 -0.6373 -0.4493
   53MOL    C2416768   6.730   1.699   5.748  0.9172  0.1641 -0.6218
   53MOL    C2516769   6.626   1.710   5.842  0.3595  0.1840  0.0998
   53MOL    H2616770   6.212   1.578   6.018  0.1379  1.0784 -0.1621
   53MOL    H2716771   6.240   1.528   5.840  0.6755 -1.5039 -0.5237
   53MOL    H2816772   6.430   1.688   6.002  0.9298 -1.7509  0.1917
   53MOL    H2916773   6.394   1.505   5.680  1.1487 -3.1652  3.2010
   53MOL    H3016774   6.578   1.479   5.533 -0.3139 -1.1162  0.2435
   53MOL    H3116775   6.798   1.593   5.571  0.0837  0.0560 -0.9053
   53MOL    H3216776   6.824   1.751   5.747  0.7967  0.3774 -2.3935
   53MOL    H3316777   6.646   1.762   5.935  1.8007 -2.5030  1.3551
   53MOL    C3416778   6.296   1.790   5.860 -0.2741 -0.6034 -0.3717
   53MOL    C3516779   6.195   1.845   5.961 -0.2741  0.2921 -0.5113
   53MOL    C3616780   6.251   1.868   6.098  0.4016 -0.2651 -0.0024
   53MOL    C3716781   6.177   1.818   6.208  0.0859  0.3621  0.2989
   53MOL    C3816782   6.236   1.822   6.339 -0.4430  0.7249  0.6266
   53MOL    C3916783   6.362   1.878   6.358 -0.6432 -0.3834  0.3635
   53MOL    C4016784   6.433   1.932   6.247  0.6187  0.0097 -1.0643
   53MOL    C4116785   6.374   1.939   6.119 -0.1630  0.0104  0.0466
   53MOL    H4216786   6.245   1.751   5.772 -0.9019  1.0314 -0.7567
   53MOL    H4316787   6.363   1.866   5.820 -0.8237  1.8337  3.0345
   53MOL    H4416788   6.130   1.759   5.978  0.7371 -0.6785 -1.5016
   53MOL    H4516789   6.073   1.787   6.207  0.1877  0.0578 -1.4522
   53MOL    H4616790   6.185   1.788   6.428  1.7099 -0.7668  1.3455
   53MOL    H4716791   6.405   1.875   6.458 -1.6691 -0.4994  0.8034
   53MOL    H4816792   6.527   1.978   6.275 -0.2173 -0.9729  3.7128
   53MOL    H4916793   6.421   1.984   6.033  1.9736 -1.6787  0.2778
   53MOL    C5016794   6.117   1.977   5.918 -0.0879  0.5709  0.5970
   53MOL    C5116795   5.999   1.965   5.819 -0.1990 -0.3943  0.4279
   53MOL    C5216796   5.892   1.864   5.869 -0.4589 -0.8342  0.4218
   53MOL    C5316797   5.829   1.882   5.996  0.5046 -0.4115 -0.6323
   53MOL    C5416798   5.722   1.803   6.037 -0.2607 -0.4333 -0.2158
   53MOL    C5516799   5.681   1.697   5.952  0.0651  0.3887  0.7632
   53MOL    C5616800   5.752   1.668   5.837 -0.5317  0.0422  0.2639
   53MOL    C5716801   5.853   1.757   5.789 -0.3699  0.3550  0.1695
   53MOL    H5816802   6.186   2.051   5.877 -1.3917  1.3974 -0.1228
   53MOL    H5916803   6.073   2.012   6.011 -0.3669 -1.0813  1.1054
   53MOL    H6016804   6.027   1.919   5.724 -0.5998  1.7577 -0.7868
   53MOL    H6116805   5.872   1.956   6.063 -0.3822 -1.2378  0.8781
   53MOL    H6216806   5.674   1.820   6.132  0.6839  2.2038 -0.1760
   53MOL    H6316807   5.597   1.635   5.979 -1.9527  3.2589  1.3632
   53MOL    H6416808   5.725   1.582   5.778  1.6260 -0.4100 -0.1262
   53MOL    H6516809   5.890   1.752   5.688  0.5865 -1.4627  0.5862
   53MOL    C6616810   5.935   2.103   5.785 -0.6962 -0.2454 -0.5155
   53MOL    C6716811   5.832   2.101   5.668 -0.0645 -0.8998  0.6084
   53MOL    C6816812   5.753   2.229   5.676  0.1692 -0.1521 -0.0411
   53MOL    C6916813   5.808   2.356   5.639 -0.0679  0.7243  0.3202
   53MOL    C7016814   5.726   2.469   5.629  0.2307 -0.3763  0.6221
   53MOL    C7116815   5.596   2.465   5.678  0.4887 -0.6712  0.1018
   53MOL    C7216816   5.540   2.348   5.727  0.1055  0.0173  0.3042
   53MOL    C7316817   5.621   2.229   5.724 -0.3353  0.5726  0.3345
   53MOL    H7416818   6.019   2.172   5.769 -0.5888  0.4572  2.7431
   53MOL    H7516819   5.883   2.131   5.877 -0.5000  0.7299 -0.6927
   53MOL    H7616820   5.767   2.017   5.691 -2.0855  0.7381  1.0177
   53MOL    H7716821   5.914   2.356   5.619 -0.0170 -0.5007  0.5442
   53MOL    H7816822   5.759   2.569   5.605  1.0364 -0.3534  1.8002
   53MOL    H7916823   5.544   2.560   5.670 -0.4349 -1.1967 -0.1970
   53MOL    H8016824   5.443   2.350   5.775 -0.8962 -0.5900 -1.6707
   53MOL    H8116825   5.565   2.139   5.747  2.2545 -1.0204  0.6892
   53MOL    C8216826   5.903   2.076   5.534 -0.0936 -0.9389  0.2911
   53MOL    C8316827   5.810   2.074   5.407  0.5732 -0.0794  0.0557
   53MOL    C8416828   5.799   2.215   5.335 -0.6384 -0.5920  0.2201
   53MOL    C8516829   5.921   2.283   5.286 -0.0986 -0.0119 -0.6944
   53MOL    C8616830   5.918   2.397   5.206 -0.3315  0.3841  0.0618
   53MOL    C8716831   5.786   2.451   5.182 -0.3638 -0.6740  0.5285
   53MOL    C8816832   5.668   2.384   5.222 -0.1434 -0.0447 -0.6327
   53MOL    C8916833   5.675   2.271   5.299  0.8867  0.2659  0.5130
   53MOL    H9016834   5.946   1.977   5.550 -0.7947 -1.2487  0.2737
   53MOL    H9116835   5.988   2.143   5.520  0.5195 -2.0894 -1.6258
   53MOL    H9216836   5.707   2.056   5.435 -0.1459  0.7961 -1.9617
   53MOL    H9316837   6.014   2.233   5.312  0.1866  0.4186 -0.8966
   53MOL    H9416838   6.009   2.444   5.172  1.1114 -0.6292  2.3848
   53MOL    H9516839   5.779   2.539   5.121  0.1864 -2.0182 -1.5473
   53MOL    H9616840   5.577   2.440   5.202 -0.9690 -0.8261  0.9148
   53MOL    H9716841   5.584   2.217   5.324  0.1348  1.5933  0.6671
   53MOL    C9816842   5.842   1.967   5.302 -0.0213 -0.4545  0.0525
   53MOL    C9916843   5.785   1.826   5.336  0.6807  0.3215  0.1227
   53MOL   C10016844   5.637   1.836   5.363  0.1260  0.3667 -0.5772
   53MOL   C10116845   5.594   1.792   5.488 -0.2762  0.2123  0.4117
   53MOL   C10216846   5.454   1.788   5.515  0.2761  0.8723 -0.3313
   53MOL   C10316847   5.366   1.818   5.418 -0.1587  0.0571  0.2710
   53MOL   C10416848   5.406   1.888   5.299 -0.6936  0.5765 -0.2505
   53MOL   C10516849   5.544   1.895   5.274  0.0024 -0.1279 -0.3417
   53MOL   H10616850   5.949   1.967   5.280 -0.2773 -1.0753 -1.2671
   53MOL   H10716851   5.796   1.996   5.207 -1.0234 -2.3386 -0.0582
   53MOL   H10816852   5.837   1.788   5.424 -0.6347  1.1992  1.3034
   53MOL   H10916853   5.667   1.754   5.558  0.7969  2.1654  0.4063
   53MOL   H11016854   5.429   1.750   5.613  2.8251 -0.1678 -0.0391
   53MOL   H11116855   5.262   1.809   5.448 -0.1553 -0.3791  0.1624
   53MOL   H11216856   5.334   1.921   5.225 -0.0675  0.0429 -1.1084
   53MOL   H11316857   5.578   1.924   5.175  0.2090  1.6059  0.2191
   53MOL   C11416858   5.808   1.732   5.216 -0.6052  0.0191 -0.1478
   53MOL   C11516859   5.952   1.665   5.213 -0.2986  0.4123 -0.5655
   53MOL   C11616860   5.981   1.580   5.335  0.2761 -0.2062 -0.2765
   53MOL   C11716861   5.904   1.461   5.362  0.1077 -0.2231 -0.2446
   53MOL   C11816862   5.934   1.383   5.478 -0.1323  0.1099 -1.2482
   53MOL   C11916863   6.027   1.430   5.573 -0.1621  0.0428  0.3423
   53MOL   C12016864   6.083   1.560   5.559  0.2833  0.7991  0.3351
   53MOL   C12116865   6.056   1.629   5.444  0.2900  0.0173  0.6430
   53MOL   H12216866   5.791   1.784   5.122  0.8367  2.3811  0.8730
   53MOL   H12316867   5.728   1.658   5.214  0.2905 -0.9179 -1.8623
   53MOL   H12416868   6.025   1.746   5.215  1.3455 -1.0475  0.2372
   53MOL   H12516869   5.827   1.426   5.294  2.0845  0.6317 -2.9965
   53MOL   H12616870   5.890   1.285   5.485 -2.2445  1.1117 -0.0018
   53MOL   H12716871   6.045   1.384   5.669 -0.2837  0.0674  0.3777
   53MOL   H12816872   6.154   1.601   5.629 -0.6100  0.7393  1.2884
   53MOL   H12916873   6.099   1.728   5.436  0.1566 -0.0271 -0.8585
   53MOL   C13016874   5.985   1.589   5.089 -0.2213  0.1449 -0.4909
   53MOL   C13116875   5.974   1.662   4.949 -0.0252 -0.0213 -0.1712
   53MOL   C13216876   6.067   1.783   4.949 -0.1681  0.1629  0.0149
   53MOL   C13316877   6.209   1.773   4.950 -0.3595 -0.4281 -0.1532
   53MOL   C13416878   6.295   1.884   4.967  0.0772  0.4682 -0.3578
   53MOL   C13516879   6.240   2.012   4.984 -0.0145 -0.4967 -0.4795
   53MOL   C13616880   6.099   2.031   4.995  0.3096  0.1081 -0.5926
   53MOL   C13716881   6.011   1.914   4.972 -0.2750 -0.3277  0.1507
   53MOL   H13816882   5.940   1.489   5.088  0.2168 -0.0721  0.3095
   53MOL   H13916883   6.090   1.562   5.101 -0.5345 -1.3078 -0.9606
   53MOL   H14016884   5.871   1.686   4.921 -0.1153 -0.8921 -0.5933
   53MOL   H14116885   6.258   1.678   4.936 -0.1281 -0.3933  0.4231
   53MOL   H14216886   6.403   1.881   4.967  0.0703 -1.0971 -2.1129
   53MOL   H14316887   6.312   2.091   5.001  0.0752 -0.2354 -2.0366
   53MOL   H14416888   6.059   2.129   5.015 -0.5799 -0.0804 -1.4234
   53MOL   H14516889   5.904   1.927   4.974  0.0078  2.3598  0.4631
   53MOL   C14616890   6.009   1.552   4.836  0.3206  0.4032 -0.3180
   53MOL   C14716891   5.981   1.594   4.691  0.0049  0.2977  0.5446
   53MOL   C14816892   6.074   1.510   4.607 -0.0357 -0.2015 -0.1453
   53MOL   C14916893   6.196   1.566   4.558 -0.5263  0.1781  0.7545
   53MOL   C15016894   6.275   1.490   4.471  0.0393 -0.0905  0.1363
   53MOL   C15116895   6.235   1.360   4.428 -0.1699  0.5160 -0.5963
   53MOL   C15216896   6.119   1.301   4.485  0.2974  0.1598 -0.9643
   53MOL   C15316897   6.038   1.372   4.581  0.0639 -1.0779 -0.3482
   53MOL   H15416898   5.976   1.450   4.852  1.5386 -0.0923 -0.9548
   53MOL   H15516899   6.117   1.542   4.839  0.3721  0.2738 -2.2337
   53MOL   H15616900   6.010   1.700   4.691 -2.3971  0.9937 -0.3441
   53MOL   H15716901   6.242   1.660   4.585 -2.7277  1.0583  1.5576
   53MOL   H15816902   6.368   1.530   4.433 -0.0387  1.7304  1.8095
   53MOL   H15916903   6.290   1.304   4.354 -3.0808 -1.2143 -1.5256
   53MOL   H16016904   6.084   1.207   4.444  0.2577 -0.7741  1.1887
   53MOL   H16116905   5.946   1.324   4.612  0.8385 -1.8887  0.7437
   53MOL   C16216906   5.831   1.592   4.655 -0.7392 -0.0395  0.4955
   53MOL   C16316907   5.796   1.635   4.510  0.6459  0.3154 -0.1768
   53MOL   C16416908   5.647   1.638   4.482 -0.4053 -0.5779 -1.1065
   53MOL   C16516909   5.569   1.746   4.524 -0.0393  0.7573  0.0666
   53MOL   C16616910   5.431   1.756   4.489  0.2231  0.1809  0.3697
   53MOL   C16716911   5.375   1.647   4.415  0.7657 -0.3958 -0.2619
   53MOL   C16816912   5.454   1.537   4.378 -0.0933  0.2493 -0.0305
   53MOL   C16916913   5.588   1.532   4.416  0.5771 -0.2217  0.6955
   53MOL   H17016914   5.770   1.661   4.713 -2.3785 -0.5458 -0.5894
   53MOL   H17116915   5.788   1.492   4.657 -1.1023  0.1430  1.9876
   53MOL   H17216916   5.836   1.554   4.448  0.5700 -0.1830  0.4233
   53MOL   H17316917   5.621   1.828   4.571 -0.9829  1.6093 -0.3610
   53MOL   H17416918   5.375   1.845   4.513 -2.6783 -1.7807  1.1903
   53MOL   H17516919   5.271   1.653   4.386  0.7390 -0.4777 -0.1843
   53MOL   H17616920   5.411   1.452   4.327  0.7502 -0.2678  0.1168
   53MOL   H17716921   5.641   1.441   4.395  1.5986  0.4023  0.5121
   53MOL   C17816922   5.866   1.772   4.477  0.4748 -0.3574 -0.0893
   53MOL   C17916923   5.851   1.826   4.324  0.1838 -0.4469 -0.1677
   53MOL   C18016924   5.913   1.963   4.318  0.2821  0.1249 -0.1703
   53MOL   C18116925   6.045   1.980   4.353 -0.3426 -0.0647 -0.9000
   53MOL   C18216926   6.095   2.109   4.337 -0.4280  0.6844  0.1053
   53MOL   C18316927   6.022   2.218   4.302  0.0755  0.8624  0.3212
   53MOL   C18416928   5.886   2.204   4.276 -0.3560 -0.6235  0.7696
   53MOL   C18516929   5.830   2.077   4.287  0.5158  0.5798  0.0193
   53MOL   H18616930   5.975   1.760   4.479  0.7123  1.6845  1.0067
   53MOL   H18716931   5.838   1.849   4.549  0.5377  0.8021 -1.2956
   53MOL   H18816932   5.745   1.850   4.322  0.5434  1.1194 -0.9622
   53MOL   H18916933   6.111   1.897   4.373  1.2654  1.9101  2.3707
   53MOL   H19016934   6.196   2.124   4.372 -0.2496 -1.5552  0.5908
   53MOL   H19116935   6.072   2.314   4.299  1.4285  0.1368 -1.0056
   53MOL   H19216936   5.829   2.288   4.238  1.0836 -0.3129 -0.7678
   53MOL   H19316937   5.727   2.053   4.261  0.7039  0.5899 -0.7628
   53MOL   C19416938   5.892   1.740   4.202  0.0629 -0.1690  0.4400
   53MOL   C19516939   5.776   1.715   4.106 -0.1307 -1.0106  0.4791
   53MOL   C19616940   5.714   1.846   4.059 -0.0349 -0.8525  0.9287
   53MOL   C19716941   5.787   1.940   3.987 -0.3478  0.2959 -0.2646
   53MOL   C19816942   5.729   2.061   3.944 -0.6491  0.1578 -0.1084
   53MOL   C19916943   5.592   2.081   3.959 -0.0957 -0.0954 -0.6550
   53MOL   C20016944   5.516   1.983   4.028 -0.4506 -1.0039  0.3232
   53MOL   C20116945   5.581   1.873   4.089  0.7004  0.2774  0.3928
   53MOL   H20216946   5.929   1.641   4.228 -1.1265 -0.7993 -0.1594
   53MOL   H20316947   5.970   1.800   4.156 -0.1341 -1.2220 -1.3057
   53MOL   H20416948   5.702   1.668   4.171 -0.2443 -0.0534  1.0574
   53MOL   H20516949   5.894   1.927   3.971 -0.1396  0.3867  1.0107
   53MOL   H20616950   5.779   2.141   3.892 -0.6642 -1.0651 -2.0647
   53MOL   H20716951   5.538   2.169   3.929 -1.0020 -0.9078 -1.4689
   53MOL   H20816952   5.409   1.995   4.036 -0.3336  1.3169 -1.0291
   53MOL   H20916953   5.522   1.808   4.152  0.1926 -0.6635 -1.0248
   53MOL   C21016954   5.822   1.630   3.987 -0.1855  0.3503 -0.2200
   53MOL   C21116955   5.707   1.588   3.892 -0.4977 -1.2669  0.6769
   53MOL   C21216956   5.752   1.573   3.743  0.5941 -0.3668  0.2410
   53MOL   C21316957   5.731   1.678   3.651 -0.1618  0.0627  1.1834
   53MOL   C21416958   5.781   1.665   3.515  0.3330 -1.0430  0.3100
   53MOL   C21516959   5.847   1.547   3.479 -0.4310 -0.7743  1.0311
   53MOL   C21616960   5.866   1.442   3.572 -0.0806 -0.7501 -0.1806
   53MOL   C21716961   5.827   1.459   3.706  0.8390  0.1357  0.5559
   53MOL   H21816962   5.883   1.547   4.022  0.6150  2.0602  2.5584
   53MOL   H21916963   5.911   1.676   3.943  0.6886  0.3884  1.5545
   53MOL   H22016964   5.650   1.680   3.887  1.5768 -0.0396 -1.7956
   53MOL   H22116965   5.674   1.764   3.682  0.5611  0.6264  0.9752
   53MOL   H22216966   5.768   1.744   3.442  1.1077 -1.3995 -0.2269
   53MOL   H22316967   5.893   1.547   3.381  0.0160 -0.9274  1.2369
   53MOL   H22416968   5.918   1.351   3.547  1.9242  0.9533 -2.3292
   53MOL   H22516969   5.836   1.387   3.785 -0.2750  0.7313  1.2348
   53MOL   C22616970   5.622   1.470   3.942 -0.4415 -0.0956 -0.2885
   53MOL   C22716971   5.499   1.415   3.872  0.0534 -0.1254 -0.8532
   53MOL   C22816972   5.456   1.286   3.943  0.5317 -1.2998 -0.4550
   53MOL   C22916973   5.406   1.300   4.077  0.6894 -0.3283  0.6012
   53MOL   C23016974   5.355   1.191   4.149  0.3381 -0.5006  0.1584
   53MOL   C23116975   5.364   1.065   4.090  0.2021  0.4735 -0.0687
   53MOL   C23216976   5.411   1.049   3.959  0.3669  0.7166  0.8660
   53MOL   C23316977   5.461   1.159   3.885 -0.2360 -0.0866 -0.1753
   53MOL   H23416978   5.591   1.503   4.041  0.9190 -0.4618  0.2725
   53MOL   H23516979   5.684   1.381   3.949 -0.7902 -0.5521 -2.7561
   53MOL   H23616980   5.536   1.394   3.771  0.4212 -1.8316 -0.3827
   53MOL   H23716981   5.405   1.397   4.126 -0.3524  0.3223 -0.6635
   53MOL   H23816982   5.307   1.204   4.245 -0.6751 -0.1150 -0.3921
   53MOL   H23916983   5.325   0.984   4.150  1.6187 -0.5419 -0.4917
   53MOL   H24016984   5.411   0.948   3.921 -2.8083  2.0837 -3.2109
   53MOL   H24116985   5.491   1.141   3.782 -2.4729 -0.6990 -0.7413
   53MOL   C24216986   5.392   1.528   3.851 -0.4081  0.2109  0.7402
   53MOL   C24316987   5.254   1.492   3.806 -0.1889 -0.0297  0.0136
   53MOL   C24416988   5.150   1.495   3.920  0.2422  0.0654 -0.1728
   53MOL   C24516989   5.080   1.378   3.958  0.5849  0.5229 -0.3863
   53MOL   C24616990   4.999   1.367   4.072  0.4125 -1.0356  0.1714
   53MOL   C24716991   4.956   1.484   4.134 -0.0195 -0.4727  0.1725
   53MOL   C24816992   5.020   1.610   4.100 -0.3345 -0.1855  0.0880
   53MOL   C24916993   5.119   1.610   3.998  0.5024  0.3367 -0.2448
   53MOL   H25016994   5.429   1.610   3.790 -1.2318  1.0455  1.3421
   53MOL   H25116995   5.388   1.583   3.945 -2.5981 -0.8113  1.2704
   53MOL   H25216996   5.267   1.389   3.776  2.1871  0.4864 -0.8913
   53MOL   H25316997   5.101   1.284   3.909 -1.7548  0.4381 -1.2900
   53MOL   H25416998   4.952   1.275   4.103 -0.6241 -0.9823 -1.2085
   53MOL   H25516999   4.883   1.491   4.213  1.0547  1.3639  1.0390
   53MOL   H25617000   4.989   1.697   4.155 -0.0430 -2.4915  4.0908
   53MOL   H25717001   5.166   1.704   3.973  2.1007 -0.9204 -2.1731
   53MOL   C25817002   5.205   1.562   3.681 -0.1823 -1.1846  0.4169
   53MOL   C25917003   5.281   1.540   3.547  0.0296 -0.3572 -0.7077
   53MOL   C26017004   5.304   1.396   3.509 -0.4007 -0.0587 -0.3175
   53MOL   C26117005   5.205   1.300   3.500  0.2680  0.5418 -0.2193
   53MOL   C26217006   5.236   1.168   3.474 -0.2873 -0.1695 -0.0329
   53MOL   C26317007   5.368   1.127   3.475 -0.4053  0.1819 -0.0827
   53MOL   C26417008   5.471   1.223   3.480  0.5532 -0.0839  0.6982
   53MOL   C26517009   5.443   1.358   3.506  0.0954 -0.1862  0.1639
   53MOL   H26617010   5.183   1.666   3.705  0.9636 -0.9027  0.2691
   53MOL   H26717011   5.106   1.519   3.663 -0.1387 -0.6070 -1.2929
   53MOL   H26817012   5.380   1.580   3.567 -0.5937  1.0328 -0.3780
   53MOL   H26917013   5.102   1.330   3.511 -1.2578 -4.4207 -0.1341
   53MOL   H27017014   5.157   1.095   3.469  0.2046 -0.7746  0.7553
   53MOL   H27117015   5.395   1.024   3.463  0.3045  0.5113 -1.4191
   53MOL   H27217016   5.575   1.196   3.474  1.0753  1.8344  0.8743
   53MOL   H27317017   5.521   1.433   3.510  1.7767 -1.5417 -3.7412
   53MOL   C27417018   5.210   1.611   3.435 -0.1850  0.1861 -0.0625
   53MOL   C27517019   5.196   1.761   3.442 -0.0884 -0.1009  0.4649
   53MOL   C27617020   5.323   1.832   3.483  0.6111 -0.4341  0.6098
   53MOL   C27717021   5.427   1.858   3.379  0.2680 -0.6216 -0.5630
   53MOL   C27817022   5.544   1.925   3.424 -0.2177  1.2102 -0.2702
   53MOL   C27917023   5.553   1.984   3.550 -0.2659 -0.2791  0.4408
   53MOL   C28017024   5.461   1.952   3.645 -0.4626  0.1560  0.0429
   53MOL   C28117025   5.349   1.875   3.614  0.3947 -1.1390 -0.0856
   53MOL   H28217026   5.114   1.561   3.422  0.0760 -0.4997  0.6009
   53MOL   H28317027   5.270   1.590   3.346  2.3331 -2.6816  2.2166
   53MOL   H28417028   5.124   1.780   3.521 -0.1612 -1.7867  0.8316
   53MOL   H28517029   5.418   1.817   3.279  1.8674  0.0347 -0.9931
   53MOL   H28617030   5.620   1.940   3.349  1.3859  0.4880  1.2027
   53MOL   H28717031   5.637   2.045   3.580 -0.4146 -0.5706  1.4717
   53MOL   H28817032   5.477   1.980   3.748  0.4279  1.8621 -0.5495
   53MOL   H28917033   5.270   1.860   3.686  0.9869 -2.1725  0.3684
   53MOL   C29017034   5.132   1.823   3.314 -0.1029  0.1028 -0.5669
   53MOL   C29117035   4.988   1.768   3.286 -0.1838  0.3750 -0.3526
   53MOL   C29217036   4.898   1.776   3.404  0.4369 -0.9647  0.0163
   53MOL   C29317037   4.815   1.666   3.442  0.9155  0.5007  0.0496
   53MOL   C29417038   4.715   1.676   3.537  0.1451 -0.3453  0.2008
   53MOL   C29517039   4.693   1.798   3.602  0.0847  0.3181  0.2559
   53MOL   C29617040   4.777   1.909   3.571  0.1583 -0.1226 -0.1654
   53MOL   C29717041   4.875   1.899   3.470  0.0134 -0.3006 -0.1760
   53MOL   H29817042   5.189   1.790   3.227  0.2521 -3.1097  0.7862
   53MOL   H29917043   5.126   1.929   3.335  0.3942 -0.2301  1.3321
   53MOL   H30017044   4.994   1.664   3.255  2.0311 -0.2530  1.9382
   53MOL   H30117045   4.815   1.571   3.390 -0.9794  0.8271 -0.6140
   53MOL   H30217046   4.657   1.593   3.573  1.0964 -1.4834 -0.8446
   53MOL   H30317047   4.616   1.809   3.677 -2.0661  0.1324 -1.8546
   53MOL   H30417048   4.766   2.005   3.621 -0.6873 -0.5901  0.5792
   53MOL   H30517049   4.926   1.988   3.436 -1.0520 -0.1897 -1.5109
   53MOL   C30617050   4.923   1.836   3.168  0.4944  0.0244 -0.2930
   53MOL   C30717051   4.987   1.806   3.037  0.3130 -0.1602  0.3532
   53MOL   C30817052   4.893   1.832   2.924  0.0807 -0.1662  0.4978
   53MOL   C30917053   4.857   1.966   2.888  0.2114  0.0752 -0.1822
   53MOL   C31017054   4.759   1.990   2.788 -0.1407 -0.4010  0.4907
   53MOL   C31117055   4.707   1.874   2.718 -0.7700 -0.0940 -0.3462
   53MOL   C31217056   4.749   1.746   2.751  0.5198  0.7942 -0.1137
   53MOL   C31317057   4.845   1.726   2.848  0.2784  0.2214 -0.3124
   53MOL   H31417058   4.923   1.943   3.189 -1.8195 -0.4292  2.4008
   53MOL   H31517059   4.819   1.804   3.159  1.0566 -2.3596  1.2923
   53MOL   H31617060   5.037   1.709   3.035 -0.0674 -0.3600  0.4892
   53MOL   H31717061   4.894   2.052   2.941 -3.4619  2.4951 -1.3825
   53MOL   H31817062   4.713   2.083   2.759  0.7439 -0.8451 -2.6453
   53MOL   H31917063   4.639   1.888   2.635  0.6141 -1.6866 -1.7996
   53MOL   H32017064   4.724   1.659   2.694  0.8181  0.3413  0.4446
   53MOL   H32117065   4.876   1.624   2.869  2.5707  0.4091 -2.5237
   53MOL   H32217066   5.067   1.878   3.023  0.5052 -0.5124 -0.3956
   54MOL     C117067   6.866   2.736   4.015  0.6352 -0.1624  0.2994
   54MOL     C217068   6.983   2.813   4.079  0.8635 -0.3724  0.4477
   54MOL     C317069   7.035   2.750   4.204  0.0569  0.4422 -1.0177
   54MOL     C417070   7.111   2.633   4.194  0.4896  0.4720 -0.2991
   54MOL     C517071   7.139   2.556   4.307  0.2654  0.3647 -0.6026
   54MOL     C617072   7.093   2.609   4.432 -0.3742  0.7881 -0.5878
   54MOL     C717073   7.021   2.729   4.447 -0.6739  0.0346  0.1245
   54MOL     C817074   6.988   2.791   4.326 -0.1625  0.0693  0.2102
   54MOL     H917075   6.906   2.644   3.971 -0.4646 -0.0970 -0.8757
   54MOL    H1017076   6.788   2.711   4.086 -1.0754  1.9929 -0.7634
   54MOL    H1117077   6.950   2.913   4.108  0.4530 -0.4528  0.2731
   54MOL    H1217078   7.155   2.599   4.101  0.5512 -0.2281 -0.0185
   54MOL    H1317079   7.191   2.462   4.308 -0.2996  0.0332  3.7671
   54MOL    H1417080   7.109   2.550   4.521  0.3510 -0.2697 -1.4218
   54MOL    H1517081   6.989   2.761   4.545 -2.4771 -0.8513 -0.1590
   54MOL    H1617082   6.915   2.871   4.335 -2.5139 -1.4750 -3.9460
   54MOL    H1717083   6.828   2.793   3.930 -0.7111 -2.3276 -0.5840
   54MOL    C1817084   7.090   2.835   3.964  0.1665  0.2874  0.2748
   54MOL    C1917085   7.225   2.899   4.001 -0.3284 -0.3499  0.3925
   54MOL    C2017086   7.340   2.810   3.941 -0.2209  0.6620 -0.1309
   54MOL    C2117087   7.416   2.723   4.027  0.0463  0.4427  0.1633
   54MOL    C2217088   7.500   2.622   3.981 -0.0566  0.2133 -0.2932
   54MOL    C2317089   7.527   2.621   3.840  1.1862 -0.3171 -0.0632
   54MOL    C2417090   7.443   2.697   3.747  0.6538  0.2362 -0.7418
   54MOL    C2517091   7.355   2.793   3.800  0.4135  0.0853  0.2605
   54MOL    H2617092   7.047   2.895   3.885 -1.4537 -1.1336  0.0469
   54MOL    H2717093   7.107   2.739   3.916 -1.8345  0.0921 -0.0652
   54MOL    H2817094   7.246   2.898   4.108  0.1928 -0.7917  0.2876
   54MOL    H2917095   7.417   2.732   4.135 -0.0145 -0.3025  0.2242
   54MOL    H3017096   7.560   2.570   4.055 -0.5674  0.2861  0.1770
   54MOL    H3117097   7.596   2.554   3.791 -0.6021 -0.7255 -2.0907
   54MOL    H3217098   7.458   2.686   3.641  0.3884  1.5157 -0.9210
   54MOL    H3317099   7.309   2.855   3.725  1.1546 -0.9690 -1.0806
   54MOL    C3417100   7.249   3.047   3.969 -0.0961  1.2202 -0.3392
   54MOL    C3517101   7.156   3.147   4.047 -0.7072 -0.3846 -0.0368
   54MOL    C3617102   7.202   3.149   4.190 -0.2104  0.2833  0.1744
   54MOL    C3717103   7.332   3.192   4.224  0.3797  0.1672  0.1348
   54MOL    C3817104   7.381   3.170   4.352 -0.7552  0.9442  0.0368
   54MOL    C3917105   7.304   3.123   4.456  0.3213 -1.0225 -0.0318
   54MOL    C4017106   7.170   3.094   4.425  0.5892  0.2808 -0.7351
   54MOL    C4117107   7.117   3.110   4.296  0.1361  0.2201 -0.3128
   54MOL    H4217108   7.249   3.070   3.862  1.8055  0.2697 -0.5646
   54MOL    H4317109   7.352   3.075   3.992  0.2435  0.9365 -1.5085
   54MOL    H4417110   7.055   3.106   4.051 -0.8199 -0.1777 -0.6780
   54MOL    H4517111   7.396   3.243   4.154  0.4970  0.0579  0.1623
   54MOL    H4617112   7.477   3.205   4.388 -0.1779  0.5819 -1.1458
   54MOL    H4717113   7.342   3.112   4.557  0.4788 -0.4399 -0.0241
   54MOL    H4817114   7.117   3.046   4.505  1.3467 -1.8879 -1.5113
   54MOL    H4917115   7.016   3.076   4.281 -0.2860  1.0041  0.7059
   54MOL    C5017116   7.165   3.286   3.989  1.4638 -0.6844  0.9500
   54MOL    C5117117   7.090   3.296   3.857  0.3798  0.7638  0.4771
   54MOL    C5217118   6.940   3.291   3.877  0.5989 -0.3390 -0.1238
   54MOL    C5317119   6.876   3.208   3.793  0.3093  0.1063  0.0525
   54MOL    C5417120   6.738   3.205   3.786 -0.0012  0.8095  0.1995
   54MOL    C5517121   6.666   3.276   3.886  0.5748 -0.7979 -0.5034
   54MOL    C5617122   6.734   3.356   3.976 -0.0848  0.0028 -0.4489
   54MOL    C5717123   6.872   3.370   3.975  0.1803  0.3034  0.1199
   54MOL    H5817124   7.269   3.315   3.971  0.6360  2.1161  0.4973
   54MOL    H5917125   7.124   3.359   4.059 -0.8828  0.1791 -1.2557
   54MOL    H6017126   7.118   3.214   3.791 -1.3538  0.1194  0.5326
   54MOL    H6117127   6.922   3.143   3.719  0.4708  3.7434 -3.1618
   54MOL    H6217128   6.692   3.130   3.723  2.3474 -0.1605 -0.4000
   54MOL    H6317129   6.558   3.268   3.888  0.5811 -0.6788  0.4931
   54MOL    H6417130   6.682   3.426   4.039  2.3605  1.9769 -0.5381
   54MOL    H6517131   6.923   3.434   4.045 -1.7680  1.8277  0.1674
   54MOL    C6617132   7.121   3.429   3.785  0.4339  0.9808 -0.1139
   54MOL    C6717133   7.262   3.434   3.725 -0.1894  0.1642  0.4230
   54MOL    C6817134   7.319   3.303   3.673 -0.3211 -1.0566  0.0639
   54MOL    C6917135   7.427   3.242   3.742 -0.0382  0.2847 -0.0596
   54MOL    C7017136   7.480   3.121   3.694 -0.0538 -0.8973 -0.0189
   54MOL    C7117137   7.437   3.073   3.576 -0.1419  0.3326  0.2175
   54MOL    C7217138   7.341   3.140   3.501  0.0585 -0.0472 -0.1553
   54MOL    C7317139   7.270   3.249   3.552 -0.5877 -0.0695 -0.0089
   54MOL    H7417140   7.087   3.514   3.844  0.9921  0.2171  1.3190
   54MOL    H7517141   7.047   3.415   3.706 -0.5650 -0.7638  1.1121
   54MOL    H7617142   7.332   3.474   3.798  0.2120  1.1787 -0.4992
   54MOL    H7717143   7.470   3.282   3.833  0.3580 -1.8012  0.6845
   54MOL    H7817144   7.556   3.071   3.752  0.7463  0.9426  0.5747
   54MOL    H7917145   7.471   2.978   3.536 -1.0481 -0.8249  2.1393
   54MOL    H8017146   7.318   3.091   3.408  0.9623  0.2586 -0.5415
   54MOL    H8117147   7.190   3.289   3.491 -1.3141 -0.5169  0.6441
   54MOL    C8217148   7.270   3.543   3.614 -0.0883 -0.1232 -0.0457
   54MOL    C8317149   7.255   3.691   3.663 -0.3491 -0.4125  0.2416
   54MOL    C8417150   7.389   3.739   3.709 -0.3405 -0.4141 -0.0129
   54MOL    C8517151   7.490   3.744   3.610 -0.4703  0.3398 -0.3543
   54MOL    C8617152   7.610   3.798   3.641  0.2116  0.2618  0.2633
   54MOL    C8717153   7.640   3.852   3.766  0.1351 -0.4964  0.1367
   54MOL    C8817154   7.539   3.837   3.865 -0.3244 -0.0012  0.8775
   54MOL    C8917155   7.412   3.782   3.841 -0.3612 -0.2386 -0.1647
   54MOL    H9017156   7.190   3.526   3.541 -1.7380  0.8473  1.4730
   54MOL    H9117157   7.362   3.539   3.556 -0.0824 -0.8356  0.0127
   54MOL    H9217158   7.185   3.687   3.747  2.3433 -2.6361  2.4631
   54MOL    H9317159   7.462   3.715   3.510  1.9249 -1.8775 -0.4407
   54MOL    H9417160   7.690   3.803   3.569  0.7936  2.5844  1.0381
   54MOL    H9517161   7.739   3.893   3.780 -0.0379 -0.1542  0.3680
   54MOL    H9617162   7.559   3.864   3.968  0.6576  0.2274  0.6324
   54MOL    H9717163   7.327   3.775   3.907 -0.5615 -0.0012 -0.3949
   54MOL    C9817164   7.200   3.782   3.554 -0.0902 -0.4052  0.0063
   54MOL    C9917165   7.051   3.820   3.568 -0.3162 -0.0593 -0.2659
   54MOL   C10017166   7.021   3.913   3.460 -0.3408  0.9519 -0.6525
   54MOL   C10117167   6.995   3.871   3.327 -0.2537 -0.3150  0.6340
   54MOL   C10217168   6.976   3.964   3.218 -1.0378 -0.6313 -0.4723
   54MOL   C10317169   6.991   4.102   3.245 -0.0645 -0.0733 -0.0625
   54MOL   C10417170   7.032   4.143   3.370 -0.7378 -0.7912  0.2142
   54MOL   C10517171   7.038   4.052   3.472  0.4134  0.9391 -0.1379
   54MOL   H10617172   7.228   3.735   3.460  0.6557  0.9589 -0.4568
   54MOL   H10717173   7.245   3.881   3.555 -1.3884  0.2123 -0.6140
   54MOL   H10817174   7.020   3.861   3.664 -3.4411 -2.4279 -0.1820
   54MOL   H10917175   6.983   3.766   3.304  0.4485  0.0803 -1.5989
   54MOL   H11017176   6.958   3.922   3.121 -1.5445 -0.5119 -0.4359
   54MOL   H11117177   6.983   4.161   3.155  2.0407  0.2153 -0.0794
   54MOL   H11217178   7.060   4.245   3.390  1.9237 -0.9201 -2.5526
   54MOL   H11317179   7.064   4.095   3.568  0.7159  3.5550 -1.3735
   54MOL   C11417180   6.959   3.697   3.566  0.7833 -0.1738  0.3145
   54MOL   C11517181   6.803   3.717   3.564 -0.3298  0.2736 -0.4559
   54MOL   C11617182   6.751   3.622   3.459 -1.1720  1.0509 -0.4124
   54MOL   C11717183   6.754   3.481   3.469 -0.1875  0.2386  0.3799
   54MOL   C11817184   6.711   3.398   3.359  0.1422 -0.0116 -0.4897
   54MOL   C11917185   6.663   3.461   3.242  0.8043 -0.4788  0.1277
   54MOL   C12017186   6.645   3.598   3.237  0.6448  1.0952 -0.4255
   54MOL   C12117187   6.690   3.678   3.338 -0.1594  0.5815  0.3361
   54MOL   H12217188   6.988   3.632   3.648  0.4735 -0.2981  0.3268
   54MOL   H12317189   6.989   3.644   3.475 -0.7770 -0.7699  0.1421
   54MOL   H12417190   6.797   3.819   3.527 -2.3791 -0.1940 -1.5281
   54MOL   H12517191   6.798   3.442   3.559 -0.0074 -0.7493 -0.1271
   54MOL   H12617192   6.720   3.291   3.363  0.5321  0.0202 -0.5344
   54MOL   H12717193   6.637   3.406   3.152  0.1814  0.3777 -0.2327
   54MOL   H12817194   6.605   3.639   3.145  1.5434 -1.1622 -1.8721
   54MOL   H12917195   6.680   3.783   3.314  2.6890  0.9927  0.8209
   54MOL   C13017196   6.733   3.695   3.698  0.5883  0.0291  0.4930
   54MOL   C13117197   6.580   3.723   3.712 -0.1003 -0.2574 -0.0878
   54MOL   C13217198   6.519   3.675   3.850 -0.3922  0.4669  0.1370
   54MOL   C13317199   6.579   3.724   3.968 -0.5646 -0.3877  0.5532
   54MOL   C13417200   6.519   3.678   4.089  0.0456  0.4285 -0.3854
   54MOL   C13517201   6.408   3.587   4.083 -0.6632  0.1092 -0.6972
   54MOL   C13617202   6.350   3.551   3.967  0.4668  0.1215  0.4322
   54MOL   C13717203   6.410   3.588   3.848  0.1189 -0.0066 -0.6374
   54MOL   H13817204   6.786   3.757   3.770  1.1361 -1.8906  1.7958
   54MOL   H13917205   6.756   3.593   3.729  1.5118  0.0765 -0.0125
   54MOL   H14017206   6.529   3.677   3.627  0.7177 -0.6421 -0.3641
   54MOL   H14117207   6.663   3.793   3.966 -0.3394 -0.6690  0.1471
   54MOL   H14217208   6.569   3.717   4.176 -0.5739  0.4959 -0.0605
   54MOL   H14317209   6.363   3.549   4.174 -3.6684 -0.2309 -2.2645
   54MOL   H14417210   6.263   3.486   3.966  0.8722 -0.4280 -1.0101
   54MOL   H14517211   6.371   3.541   3.759 -1.2429  1.9620 -1.1218
   54MOL   C14617212   6.556   3.879   3.688 -0.0068 -0.2330  0.2059
   54MOL   C14717213   6.405   3.917   3.650  0.4461  0.0341  0.7052
   54MOL   C14817214   6.392   4.066   3.658 -0.7009 -0.0306  0.8724
   54MOL   C14917215   6.460   4.149   3.571 -0.2042 -0.6075 -0.0283
   54MOL   C15017216   6.442   4.286   3.581  0.2657  0.0633  0.2534
   54MOL   C15117217   6.349   4.338   3.679 -0.3694  0.1824 -0.7649
   54MOL   C15217218   6.288   4.256   3.772 -0.2282 -0.5170  0.3540
   54MOL   C15317219   6.316   4.117   3.762 -0.4409 -0.0775  0.3165
   54MOL   H15417220   6.619   3.914   3.607 -0.0739  0.5922  0.5066
   54MOL   H15517221   6.584   3.925   3.783  1.0548 -1.4687  0.5141
   54MOL   H15617222   6.344   3.870   3.727  1.1553  0.9257  1.8117
   54MOL   H15717223   6.542   4.117   3.507  1.8260  1.5121  1.4225
   54MOL   H15817224   6.477   4.360   3.510 -0.3797  1.7008  1.6015
   54MOL   H15917225   6.338   4.444   3.666 -1.4188  0.2218  0.3568
   54MOL   H16017226   6.232   4.293   3.856  1.3173  0.6771  0.8813
   54MOL   H16117227   6.282   4.040   3.830  0.6165 -1.0836 -0.2659
   54MOL   C16217228   6.376   3.860   3.512 -0.0707  0.2282 -0.7105
   54MOL   C16317229   6.293   3.732   3.517  0.3636 -0.0156  0.1170
   54MOL   C16417230   6.162   3.750   3.585  0.1662  0.4001  0.0237
   54MOL   C16517231   6.082   3.870   3.579  0.0924 -0.1234  0.0004
   54MOL   C16617232   5.956   3.867   3.637  0.8729  0.3189  0.0764
   54MOL   C16717233   5.914   3.763   3.715 -0.4156 -0.5108  0.1247
   54MOL   C16817234   5.997   3.650   3.732  0.0941  0.1480 -0.1527
   54MOL   C16917235   6.119   3.638   3.667  0.4639 -0.3124 -0.6189
   54MOL   H17017236   6.466   3.853   3.452  1.5276  0.6105  1.5541
   54MOL   H17117237   6.321   3.936   3.457 -0.1253  0.9240  0.2904
   54MOL   H17217238   6.343   3.656   3.577 -0.9511 -1.7314 -0.9119
   54MOL   H17317239   6.121   3.951   3.519  1.3407 -1.6188 -1.2574
   54MOL   H17417240   5.904   3.961   3.627 -2.2453 -1.5030 -1.5577
   54MOL   H17517241   5.813   3.771   3.754 -1.1028 -1.1921 -1.4737
   54MOL   H17617242   5.977   3.576   3.808 -0.0670  0.9195  0.5669
   54MOL   H17717243   6.170   3.543   3.666  0.1682 -0.4585 -2.1250
   54MOL   C17817244   6.280   3.674   3.373 -0.3426 -0.0015 -0.1056
   54MOL   C17917245   6.191   3.754   3.272  0.8343  0.0687  0.2030
   54MOL   C18017246   6.262   3.878   3.213 -0.2868  0.5909 -0.1547
   54MOL   C18117247   6.209   4.002   3.245  0.7259  0.1473 -0.2743
   54MOL   C18217248   6.273   4.117   3.197 -0.8115  0.4854 -0.1177
   54MOL   C18317249   6.394   4.105   3.123 -0.0519 -0.5523 -0.2422
   54MOL   C18417250   6.442   3.979   3.088 -0.2801 -0.0799 -0.7619
   54MOL   C18517251   6.375   3.864   3.132  0.1537 -0.3015  0.1288
   54MOL   H18617252   6.221   3.583   3.387 -0.8689  0.5165  1.1623
   54MOL   H18717253   6.379   3.655   3.334 -0.7175  0.2812 -1.2129
   54MOL   H18817254   6.102   3.796   3.319  1.3794  1.4294  0.0483
   54MOL   H18917255   6.123   4.022   3.307 -0.3456 -1.0249 -1.3521
   54MOL   H19017256   6.242   4.218   3.216 -0.9280  0.6770 -1.3203
   54MOL   H19117257   6.441   4.193   3.083 -0.0542 -0.4987 -0.1265
   54MOL   H19217258   6.525   3.961   3.022 -0.5502  1.8300 -1.6510
   54MOL   H19317259   6.414   3.765   3.111 -2.3164 -1.3045  0.1244
   54MOL   C19417260   6.144   3.673   3.152  0.1293  0.3800  0.2784
   54MOL   C19517261   6.016   3.583   3.163 -0.2132 -0.5764  0.9318
   54MOL   C19617262   5.900   3.638   3.244 -0.3299  0.2851  1.0493
   54MOL   C19717263   5.855   3.581   3.365  0.2220 -0.2705  0.2325
   54MOL   C19817264   5.745   3.631   3.434  1.0200  1.1605 -0.3410
   54MOL   C19917265   5.673   3.743   3.378  0.6262 -0.2132 -0.1834
   54MOL   C20017266   5.711   3.795   3.251  0.1852 -0.0344 -0.1841
   54MOL   C20117267   5.825   3.747   3.188  0.1306  0.7040 -0.5536
   54MOL   H20217268   6.231   3.618   3.116  1.7477  2.3066  1.1318
   54MOL   H20317269   6.127   3.747   3.074 -1.0556 -1.7315 -1.5170
   54MOL   H20417270   6.049   3.503   3.229 -0.5101 -1.1212  0.4193
   54MOL   H20517271   5.908   3.495   3.402 -0.1878  0.1613  1.8350
   54MOL   H20617272   5.715   3.583   3.525 -0.3572  1.4845 -0.6163
   54MOL   H20717273   5.580   3.768   3.428  0.1509  0.1955 -1.2546
   54MOL   H20817274   5.654   3.865   3.192  0.8047 -0.9146 -1.8733
   54MOL   H20917275   5.849   3.796   3.095  2.6591  0.6239  0.0156
   54MOL   C21017276   5.976   3.526   3.028  0.3762  0.5913  0.5232
   54MOL   C21117277   6.057   3.402   2.976  0.2005  0.2993 -0.4631
   54MOL   C21217278   6.066   3.288   3.077 -0.4275 -0.7329 -0.2295
   54MOL   C21317279   6.187   3.270   3.147  0.6798 -0.4124 -0.8039
   54MOL   C21417280   6.206   3.169   3.249 -0.2825 -1.5686  0.1372
   54MOL   C21517281   6.094   3.102   3.290 -0.7184  0.1290  0.4482
   54MOL   C21617282   5.967   3.121   3.225  0.2952  0.3012  0.7386
   54MOL   C21717283   5.952   3.212   3.117  0.4840  0.2258 -0.2971
   54MOL   H21817284   5.966   3.597   2.945  0.0764  2.0138  1.7600
   54MOL   H21917285   5.874   3.490   3.043 -0.5279  2.8527  0.1373
   54MOL   H22017286   6.159   3.439   2.968  0.3663  0.2985  1.4018
   54MOL   H22117287   6.279   3.318   3.117  1.4922 -1.5962 -0.2189
   54MOL   H22217288   6.304   3.161   3.295 -0.7069 -1.8767  0.9977
   54MOL   H22317289   6.108   3.040   3.378 -0.2889 -1.4147 -0.6923
   54MOL   H22417290   5.879   3.076   3.269 -0.2301 -1.5701 -2.1268
   54MOL   H22517291   5.857   3.228   3.067  0.1885 -0.0525  0.1716
   54MOL   C22617292   6.017   3.349   2.842  0.0832  0.6377  0.0785
   54MOL   C22717293   6.067   3.441   2.724  0.6710  0.0650  0.5740
   54MOL   C22817294   6.217   3.479   2.736  0.4068  0.5219  0.1100
   54MOL   C22917295   6.325   3.393   2.705 -0.2745  0.1001  0.8313
   54MOL   C23017296   6.453   3.426   2.742 -0.2875 -0.3656  0.2233
   54MOL   C23117297   6.482   3.549   2.802 -0.7863 -0.1064 -0.2911
   54MOL   C23217298   6.378   3.641   2.825  0.4362 -1.0458  0.4660
   54MOL   C23317299   6.248   3.606   2.785 -1.0819 -0.3091  0.2356
   54MOL   H23417300   5.911   3.323   2.843  0.2767 -0.1634  1.1885
   54MOL   H23517301   6.074   3.256   2.837 -0.6961  0.2388 -1.6824
   54MOL   H23617302   6.010   3.533   2.740  0.2147 -0.2265  0.6322
   54MOL   H23717303   6.306   3.296   2.663 -0.0464 -0.6736  2.5033
   54MOL   H23817304   6.537   3.364   2.716 -0.4076 -0.1987 -0.5679
   54MOL   H23917305   6.581   3.584   2.825 -0.4972 -0.4802 -0.9547
   54MOL   H24017306   6.395   3.745   2.850  3.6169 -1.7129  1.3495
   54MOL   H24117307   6.178   3.685   2.807 -1.3043 -0.9507  1.9104
   54MOL   C24217308   6.046   3.387   2.579  0.1390 -0.7926  0.2623
   54MOL   C24317309   5.894   3.381   2.533  0.0955  0.0990 -0.1335
   54MOL   C24417310   5.896   3.431   2.384 -0.2996  0.4946  0.0862
   54MOL   C24517311   5.924   3.349   2.276 -0.1132  0.1211  0.2450
   54MOL   C24617312   5.946   3.400   2.145 -0.3921  0.9836  0.3992
   54MOL   C24717313   5.939   3.537   2.127  0.1229 -0.3650  0.5864
   54MOL   C24817314   5.906   3.625   2.234  0.3044 -0.6560  0.3188
   54MOL   C24917315   5.879   3.571   2.360  0.7401 -0.3022 -0.0370
   54MOL   H25017316   6.087   3.287   2.561  0.8615 -0.8083  1.9478
   54MOL   H25117317   6.100   3.457   2.515  0.5956 -0.7999  0.6358
   54MOL   H25217318   5.838   3.448   2.599  1.1898  1.5125 -0.6208
   54MOL   H25317319   5.933   3.241   2.283  0.5596  0.1753  0.2631
   54MOL   H25417320   5.972   3.320   2.077 -2.8610 -0.8274  1.5174
   54MOL   H25517321   5.953   3.576   2.027  0.2427 -1.4158  0.1839
   54MOL   H25617322   5.902   3.731   2.212 -1.0231 -1.0401 -1.3756
   54MOL   H25717323   5.858   3.632   2.447 -3.0540 -0.8763 -0.4417
   54MOL   C25817324   5.828   3.240   2.559  0.0542  0.1226  0.3416
   54MOL   C25917325   5.679   3.245   2.608  0.0517 -0.1551  0.2544
   54MOL   C26017326   5.601   3.132   2.553 -0.1954 -0.0433  0.2839
   54MOL   C26117327   5.624   3.000   2.602 -0.4877 -0.5491 -0.0260
   54MOL   C26217328   5.537   2.896   2.568 -0.0361 -0.6021  0.7217
   54MOL   C26317329   5.424   2.925   2.485  0.1260  0.0220  0.1590
   54MOL   C26417330   5.407   3.059   2.435 -0.2388 -0.2031  0.7042
   54MOL   C26517331   5.501   3.161   2.453 -0.2787  0.5380 -0.6706
   54MOL   H26617332   5.886   3.191   2.638  1.8201  2.7396  0.7301
   54MOL   H26717333   5.847   3.173   2.476 -1.0250  1.9038 -1.3711
   54MOL   H26817334   5.644   3.327   2.545  2.7703  0.6526 -0.2684
   54MOL   H26917335   5.702   2.989   2.676  0.8657 -0.5596 -1.4286
   54MOL   H27017336   5.554   2.796   2.605  0.9487 -0.2395  1.2534
   54MOL   H27117337   5.354   2.846   2.467  0.3231 -0.7108  2.4079
   54MOL   H27217338   5.325   3.083   2.369  1.7704 -1.0946 -2.2351
   54MOL   H27317339   5.499   3.259   2.407  3.0526  0.3147 -1.3999
   54MOL   C27417340   5.657   3.280   2.757 -0.2909  0.2646  0.2869
   54MOL   C27517341   5.512   3.270   2.814  0.3216  0.4318  0.2428
   54MOL   C27617342   5.513   3.237   2.964 -0.2489  0.0619  0.1025
   54MOL   C27717343   5.455   3.117   3.012 -0.6677  0.0181  1.1084
   54MOL   C27817344   5.447   3.093   3.146  0.7298 -0.0715 -0.1772
   54MOL   C27917345   5.496   3.186   3.234  0.4732 -0.0306  0.3102
   54MOL   C28017346   5.546   3.310   3.197 -0.4232 -0.5067  0.1007
   54MOL   C28117347   5.561   3.336   3.058 -0.6707  0.3930  0.5571
   54MOL   H28217348   5.708   3.372   2.785 -0.5756  1.2820 -2.4243
   54MOL   H28317349   5.716   3.211   2.817 -2.1094 -1.7089 -0.0994
   54MOL   H28417350   5.463   3.189   2.760  0.7268 -0.3854  1.0877
   54MOL   H28517351   5.406   3.043   2.950 -0.2387 -0.7293  1.6471
   54MOL   H28617352   5.389   3.009   3.182 -0.6522  1.2832  0.8331
   54MOL   H28717353   5.483   3.165   3.339 -0.2282 -0.2121  0.1902
   54MOL   H28817354   5.596   3.382   3.260  1.2058  0.3917 -2.1544
   54MOL   H28917355   5.599   3.433   3.030  2.0200 -0.2386  1.8762
   54MOL   C29017356   5.424   3.396   2.786 -0.2959  0.7748 -0.3580
   54MOL   C29117357   5.273   3.358   2.816  0.0967 -0.6922  0.3275
   54MOL   C29217358   5.193   3.475   2.881 -0.0219  0.1677  0.5174
   54MOL   C29317359   5.161   3.601   2.817  0.3101  0.0098  0.1559
   54MOL   C29417360   5.105   3.707   2.892 -0.0607 -0.0394  0.5309
   54MOL   C29517361   5.076   3.692   3.032  0.4816 -0.2058  0.5070
   54MOL   C29617362   5.103   3.569   3.093  0.0476  0.6094  0.2892
   54MOL   C29717363   5.163   3.463   3.020  0.1764 -0.2919  0.7051
   54MOL   H29817364   5.434   3.426   2.682 -2.2720 -2.6161 -1.6086
   54MOL   H29917365   5.453   3.482   2.846 -1.8402  1.3412 -0.3903
   54MOL   H30017366   5.261   3.279   2.890 -0.7031 -0.5967  0.3096
   54MOL   H30117367   5.183   3.621   2.713  2.2472 -0.6991  0.4113
   54MOL   H30217368   5.089   3.802   2.844  0.5817  0.4967  1.3758
   54MOL   H30317369   5.032   3.765   3.099 -0.4373 -1.7136  1.5975
   54MOL   H30417370   5.088   3.557   3.199  0.5403  1.7757  0.4949
   54MOL   H30517371   5.188   3.373   3.074  1.1782 -0.1138  0.5489
   54MOL   C30617372   5.205   3.314   2.690  0.2267  0.4824 -0.3287
   54MOL   C30717373   5.052   3.297   2.695 -0.0758 -0.1549  0.4730
   54MOL   C30817374   4.979   3.284   2.567  0.5582 -0.3590  0.0986
   54MOL   C30917375   4.955   3.399   2.485 -0.3437  0.4114  0.1019
   54MOL   C31017376   4.897   3.389   2.356 -1.2557 -0.1502 -0.3121
   54MOL   C31117377   4.854   3.264   2.312  0.2528  0.5093 -0.3319
   54MOL   C31217378   4.868   3.151   2.400  0.2651 -0.1637 -0.1996
   54MOL   C31317379   4.928   3.165   2.523 -0.2607  0.5078  0.2827
   54MOL   H31417380   5.245   3.217   2.660 -0.5863 -0.0596  0.2993
   54MOL   H31517381   5.225   3.383   2.608 -0.1195 -0.3526 -1.1183
   54MOL   H31617382   5.013   3.389   2.737 -1.2369  0.0739 -1.0937
   54MOL   H31717383   4.978   3.499   2.519 -0.1229  0.1161  0.8252
   54MOL   H31817384   4.883   3.475   2.292 -1.2084  1.7200  2.0880
   54MOL   H31917385   4.826   3.250   2.209  1.1603 -0.2643 -0.4795
   54MOL   H32017386   4.836   3.056   2.360 -0.4343  0.8935 -2.2113
   54MOL   H32117387   4.960   3.071   2.566  1.5983  0.6235 -0.7973
   54MOL   H32217388   5.014   3.223   2.765  2.4701 -1.5532  0.4760
   55MOL     C117389   4.747   2.386   2.655 -0.5812 -0.4002 -0.0690
   55MOL     C217390   4.761   2.449   2.515  0.6108 -0.4334  0.3990
   55MOL     C317391   4.748   2.601   2.518  0.2115  0.1575 -0.2680
   55MOL     C417392   4.826   2.681   2.608 -0.6838 -0.0247  0.6576
   55MOL     C517393   4.808   2.820   2.620 -0.5549  0.0401 -0.5162
   55MOL     C617394   4.706   2.887   2.544  0.7709  0.0763 -0.3685
   55MOL     C717395   4.621   2.811   2.463 -0.3300  0.7205  0.0501
   55MOL     C817396   4.652   2.671   2.444  0.0491  0.4004 -0.4700
   55MOL     H917397   4.831   2.424   2.713  0.6597  2.2178 -3.4164
   55MOL    H1017398   4.647   2.412   2.689 -1.1641 -1.9133 -0.5822
   55MOL    H1117399   4.670   2.416   2.465 -0.1629 -0.5741  1.8738
   55MOL    H1217400   4.906   2.630   2.659 -0.8687 -1.9171 -0.8757
   55MOL    H1317401   4.873   2.879   2.683  1.8198  0.2950 -3.1189
   55MOL    H1417402   4.705   2.995   2.553 -0.8232  0.1100 -0.8790
   55MOL    H1517403   4.535   2.856   2.413 -0.0283 -0.0305 -1.1640
   55MOL    H1617404   4.580   2.617   2.383  1.1480 -2.6767  0.8707
   55MOL    H1717405   4.750   2.277   2.654  0.8121 -0.3584 -1.2448
   55MOL    C1817406   4.904   2.415   2.453  0.7448 -0.1476  0.6656
   55MOL    C1917407   4.917   2.448   2.300  1.1556  0.0691  0.1718
   55MOL    C2017408   5.067   2.449   2.260 -0.4627  0.1977  0.1277
   55MOL    C2117409   5.139   2.568   2.290  0.4159  0.6070  0.2040
   55MOL    C2217410   5.276   2.571   2.261 -0.3582 -1.4768 -0.2841
   55MOL    C2317411   5.340   2.464   2.195  0.6786 -0.1060 -0.3745
   55MOL    C2417412   5.269   2.347   2.159 -0.7743 -0.3717  0.8962
   55MOL    C2517413   5.131   2.345   2.186 -0.4401 -0.3363 -0.1104
   55MOL    H2617414   4.910   2.307   2.465  1.0940 -0.0620  1.2799
   55MOL    H2717415   4.987   2.449   2.515  0.4673 -0.3592  1.1592
   55MOL    H2817416   4.875   2.548   2.291  1.7080  0.6527  3.4897
   55MOL    H2917417   5.086   2.643   2.345 -0.0144  0.9439 -0.6530
   55MOL    H3017418   5.317   2.665   2.296 -2.1715 -1.4216  1.8292
   55MOL    H3117419   5.437   2.476   2.148  0.7987 -1.7492 -0.5840
   55MOL    H3217420   5.321   2.266   2.110  0.3241  1.6907 -1.5087
   55MOL    H3317421   5.079   2.259   2.147  1.2870 -1.5181  0.1233
   55MOL    C3417422   4.828   2.352   2.213  0.2889  0.6035  0.4576
   55MOL    C3517423   4.816   2.385   2.065  0.0246 -0.3740 -0.2958
   55MOL    C3617424   4.725   2.282   1.996  0.3307  0.5679  0.0603
   55MOL    C3717425   4.795   2.191   1.913  0.5993 -0.5431 -0.5721
   55MOL    C3817426   4.721   2.098   1.834  0.2500 -0.2448 -0.0011
   55MOL    C3917427   4.578   2.089   1.860  0.0330 -0.4926 -0.2633
   55MOL    C4017428   4.512   2.162   1.961 -0.7268 -1.0389  0.1471
   55MOL    C4117429   4.587   2.262   2.027  0.2194 -0.5146  0.1058
   55MOL    H4217430   4.725   2.355   2.248 -1.1424 -2.3905 -3.1020
   55MOL    H4317431   4.860   2.249   2.224  3.1474  1.2603 -1.1805
   55MOL    H4417432   4.913   2.382   2.016  1.1396  1.8878  1.7080
   55MOL    H4517433   4.903   2.194   1.907  0.6354 -1.0521 -0.2031
   55MOL    H4617434   4.765   2.033   1.759  0.0303  0.6189 -0.8906
   55MOL    H4717435   4.527   2.006   1.814 -1.0225 -0.1488  0.2674
   55MOL    H4817436   4.406   2.146   1.976 -0.8540  0.4789  0.9531
   55MOL    H4917437   4.528   2.331   2.085 -1.7538  1.4499 -4.0238
   55MOL    C5017438   4.758   2.525   2.035  0.9988  0.3918 -0.2780
   55MOL    C5117439   4.858   2.647   2.011  0.7790 -0.4837 -0.3028
   55MOL    C5217440   4.925   2.619   1.880 -0.0036  0.4839 -0.3659
   55MOL    C5317441   4.850   2.602   1.762  0.3364 -1.0543 -0.2001
   55MOL    C5417442   4.917   2.589   1.634  0.2540  0.4157  0.4237
   55MOL    C5517443   5.059   2.576   1.632 -0.2913 -0.1659 -0.4675
   55MOL    C5617444   5.134   2.595   1.753 -0.4403  0.1096  0.2234
   55MOL    C5717445   5.066   2.614   1.872  0.0668  0.3630 -0.0804
   55MOL    H5817446   4.700   2.543   2.126  0.5216 -2.7068  0.0699
   55MOL    H5917447   4.680   2.515   1.960 -0.4074  0.4079  1.1460
   55MOL    H6017448   4.940   2.644   2.082  0.3003 -1.1524  0.2268
   55MOL    H6117449   4.743   2.606   1.774  0.6203  1.2794  1.8141
   55MOL    H6217450   4.862   2.585   1.542  0.5452  0.8637  0.2286
   55MOL    H6317451   5.101   2.546   1.537 -0.3684  1.5559 -1.0542
   55MOL    H6417452   5.241   2.586   1.741 -0.4285  1.6671 -0.9662
   55MOL    H6517453   5.120   2.613   1.965 -0.6155 -0.1412  0.3090
   55MOL    C6617454   4.779   2.781   2.018  0.5132  0.7226  0.5839
   55MOL    C6717455   4.853   2.910   1.981 -0.1485  0.4404 -0.1851
   55MOL    C6817456   4.757   3.029   1.962  0.0334  0.0507 -0.6503
   55MOL    C6917457   4.749   3.102   1.840 -0.4294  0.8328 -0.6534
   55MOL    C7017458   4.671   3.216   1.821  0.2855 -0.7587 -0.2582
   55MOL    C7117459   4.601   3.263   1.934 -0.0010  0.5184 -0.3364
   55MOL    C7217460   4.592   3.191   2.055  0.5852  0.0723 -0.2611
   55MOL    C7317461   4.670   3.075   2.066 -0.9462 -0.2109  0.2320
   55MOL    H7417462   4.737   2.794   2.118  1.8293 -2.8983  1.6836
   55MOL    H7517463   4.702   2.775   1.941 -1.2386  2.1051  2.1820
   55MOL    H7617464   4.888   2.880   1.882 -0.4253 -2.8878  0.6601
   55MOL    H7717465   4.809   3.071   1.755 -0.5309  0.9080 -0.7526
   55MOL    H7817466   4.654   3.260   1.724 -4.9372 -0.3842  0.6438
   55MOL    H7917467   4.547   3.356   1.921  2.6066  1.9735 -1.1543
   55MOL    H8017468   4.547   3.224   2.148  1.1429 -0.1321  0.0884
   55MOL    H8117469   4.668   3.017   2.158 -1.5345  0.6761  0.7808
   55MOL    C8217470   4.966   2.939   2.087 -0.2124  0.6521 -0.5297
   55MOL    C8317471   5.099   2.971   2.022  0.7650 -0.2816 -0.3283
   55MOL    C8417472   5.096   3.100   1.946 -0.0176  0.0271 -0.0804
   55MOL    C8517473   5.083   3.224   2.012 -0.9544 -0.3102  0.1700
   55MOL    C8617474   5.077   3.347   1.943  0.0379 -0.4815  0.1312
   55MOL    C8717475   5.063   3.341   1.807  0.4679  0.4749  0.1912
   55MOL    C8817476   5.070   3.217   1.737  0.5785  0.0808 -0.6571
   55MOL    C8917477   5.089   3.095   1.805  0.3398  0.1698 -0.7950
   55MOL    H9017478   4.975   2.844   2.141  1.1120  0.2834 -1.3720
   55MOL    H9117479   4.934   3.012   2.162 -0.4108 -0.4326  0.4736
   55MOL    H9217480   5.112   2.883   1.958 -1.0287 -0.6160 -0.2562
   55MOL    H9317481   5.093   3.229   2.120  3.8779 -0.2804 -0.1474
   55MOL    H9417482   5.063   3.439   1.998 -0.3270 -0.5089  0.0853
   55MOL    H9517483   5.053   3.432   1.749 -1.8027  1.5655  2.1875
   55MOL    H9617484   5.073   3.223   1.629  0.6739  0.4880 -0.6337
   55MOL    H9717485   5.102   3.005   1.747  0.0928  0.9181 -2.0286
   55MOL    C9817486   5.216   2.950   2.127  0.0903  0.8121 -0.2625
   55MOL    C9917487   5.366   2.972   2.082 -0.5640  0.6807 -0.3582
   55MOL   C10017488   5.419   2.861   1.994  0.1690  0.4318  0.0729
   55MOL   C10117489   5.375   2.862   1.857 -0.1452 -0.9108  0.1837
   55MOL   C10217490   5.426   2.768   1.770 -0.4648 -0.8763  0.4569
   55MOL   C10317491   5.521   2.676   1.816 -0.1611  0.4412 -0.6766
   55MOL   C10417492   5.564   2.674   1.955  0.0447 -0.5661  0.0432
   55MOL   C10517493   5.507   2.767   2.045  0.2459 -0.1363  0.2189
   55MOL   H10617494   5.204   2.855   2.179 -0.9204  0.3979 -1.2197
   55MOL   H10717495   5.205   3.028   2.203  0.9863  1.0571 -0.3803
   55MOL   H10817496   5.422   2.960   2.175  1.0412 -0.0877 -1.3943
   55MOL   H10917497   5.314   2.943   1.821  0.8014  0.0534  0.7350
   55MOL   H11017498   5.408   2.767   1.664  0.2122 -2.3137  0.3320
   55MOL   H11117499   5.574   2.611   1.748  1.7963 -0.0651  1.2740
   55MOL   H11217500   5.633   2.597   1.984 -0.5015  0.0152  3.0110
   55MOL   H11317501   5.540   2.766   2.148  1.4840  0.3258 -0.1565
   55MOL   C11417502   5.402   3.111   2.030  0.0917  0.8427  0.1257
   55MOL   C11517503   5.541   3.165   2.074 -0.8660 -0.3865  0.4622
   55MOL   C11617504   5.658   3.066   2.063  0.0342 -0.3034 -0.3938
   55MOL   C11717505   5.692   3.021   1.938  0.7508  0.4908 -0.2228
   55MOL   C11817506   5.805   2.941   1.922 -0.1864  0.1957 -0.4953
   55MOL   C11917507   5.891   2.913   2.031  0.7994  0.3461  0.5544
   55MOL   C12017508   5.866   2.970   2.157  0.1678  0.0716 -0.0128
   55MOL   C12117509   5.748   3.045   2.170  0.2669 -0.1046  0.6829
   55MOL   H12217510   5.324   3.184   2.052  0.1951  1.0428 -0.1582
   55MOL   H12317511   5.397   3.095   1.922 -0.5575 -1.7364  0.5076
   55MOL   H12417512   5.530   3.181   2.181 -1.1529 -1.1778  0.5555
   55MOL   H12517513   5.629   3.052   1.856 -0.3166  0.7674  0.6868
   55MOL   H12617514   5.833   2.898   1.826 -0.2243 -1.6118  0.2720
   55MOL   H12717515   5.979   2.853   2.019  0.1026 -0.4608 -0.5646
   55MOL   H12817516   5.929   2.948   2.241  0.7301 -0.4195 -0.5597
   55MOL   H12917517   5.716   3.080   2.268 -0.3117 -2.2973  1.3089
   55MOL   C13017518   5.585   3.291   2.003 -0.2387  0.3428 -0.1226
   55MOL   C13117519   5.487   3.410   2.025 -0.0414 -0.3523 -0.4532
   55MOL   C13217520   5.459   3.447   2.174  0.3112 -0.5950 -0.5830
   55MOL   C13317521   5.562   3.505   2.250 -0.4678  0.1660 -0.6829
   55MOL   C13417522   5.534   3.541   2.384  0.1750 -0.6297 -0.2161
   55MOL   C13517523   5.402   3.540   2.434  0.2247 -0.4904 -0.2561
   55MOL   C13617524   5.305   3.477   2.362 -0.3757 -0.1186  0.3762
   55MOL   C13717525   5.328   3.429   2.231 -0.0150 -0.0136  0.7096
   55MOL   H13817526   5.602   3.278   1.896  0.6348 -0.0945  0.0636
   55MOL   H13917527   5.688   3.317   2.025 -0.4371  0.9974  0.0416
   55MOL   H14017528   5.396   3.387   1.970 -0.5295  2.1466 -0.7607
   55MOL   H14117529   5.665   3.500   2.218 -0.4467 -1.5548 -0.4373
   55MOL   H14217530   5.605   3.573   2.459 -0.0758  1.1032 -0.7028
   55MOL   H14317531   5.382   3.586   2.530 -1.6017 -0.4371 -0.6542
   55MOL   H14417532   5.208   3.469   2.409 -0.6052  0.6709  0.0320
   55MOL   H14517533   5.251   3.386   2.168  0.2873 -1.6634  1.4447
   55MOL   C14617534   5.547   3.525   1.941 -0.1707 -0.1087  0.9256
   55MOL   C14717535   5.481   3.667   1.956 -0.2501 -0.4621  0.0514
   55MOL   C14817536   5.583   3.781   1.958 -0.2278 -0.7463 -0.8056
   55MOL   C14917537   5.662   3.806   2.079  0.5648  0.4630  0.1862
   55MOL   C15017538   5.738   3.926   2.099  0.5221  0.4905 -0.0182
   55MOL   C15117539   5.758   4.009   1.982 -0.2184 -0.3103  0.4238
   55MOL   C15217540   5.695   3.981   1.863  1.0568 -0.6191  0.0315
   55MOL   C15317541   5.603   3.871   1.852  0.1199  0.1415 -0.3159
   55MOL   H15417542   5.547   3.492   1.837 -1.6157  0.0299  0.8836
   55MOL   H15517543   5.654   3.536   1.962  0.1680 -2.8846  0.8605
   55MOL   H15617544   5.443   3.678   2.057 -1.3944  0.4748 -0.4656
   55MOL   H15717545   5.662   3.732   2.157 -0.1943 -0.9550 -1.1291
   55MOL   H15817546   5.800   3.948   2.185  4.0108 -1.6825 -1.8404
   55MOL   H15917547   5.815   4.100   1.987 -3.3294  1.7655 -0.3972
   55MOL   H16017548   5.710   4.039   1.773 -0.5496  1.3193  0.9670
   55MOL   H16117549   5.567   3.851   1.752  0.6389 -0.4439 -0.3880
   55MOL   C16217550   5.372   3.677   1.848  0.0861  0.0342  0.0450
   55MOL   C16317551   5.280   3.807   1.858 -0.2067 -0.4408  0.0742
   55MOL   C16417552   5.190   3.816   1.729 -0.1072 -0.0209 -0.6230
   55MOL   C16517553   5.071   3.742   1.706 -0.2130 -0.4340 -1.1466
   55MOL   C16617554   4.998   3.752   1.586  0.1131  0.8007 -0.7569
   55MOL   C16717555   5.041   3.834   1.479  0.4459  0.1431 -0.2157
   55MOL   C16817556   5.156   3.908   1.501  0.3497  0.5529 -0.2039
   55MOL   C16917557   5.234   3.896   1.622  0.4915 -0.0875  0.0936
   55MOL   H17017558   5.315   3.585   1.861 -0.0580 -0.1612 -1.7959
   55MOL   H17117559   5.416   3.676   1.748 -1.2315 -2.6996 -0.5403
   55MOL   H17217560   5.353   3.887   1.846 -1.8325  1.0188 -0.2754
   55MOL   H17317561   5.043   3.663   1.774  0.4464  2.5966  2.8682
   55MOL   H17417562   4.914   3.687   1.569 -1.2843  2.1975  0.7196
   55MOL   H17517563   4.992   3.828   1.383  0.6807 -1.2437 -0.2499
   55MOL   H17617564   5.204   3.974   1.431  1.1935 -0.3572 -0.5046
   55MOL   H17717565   5.327   3.950   1.627 -0.5056  1.5860  1.1432
   55MOL   C17817566   5.194   3.810   1.991  0.3798 -0.4123 -0.1293
   55MOL   C17917567   5.241   3.892   2.113 -0.1194 -0.4400  0.4215
   55MOL   C18017568   5.276   4.037   2.081  0.0819  0.2577 -0.0570
   55MOL   C18117569   5.397   4.097   2.120 -0.2058  0.2064 -0.2931
   55MOL   C18217570   5.427   4.232   2.101  0.3395  0.0370  0.5512
   55MOL   C18317571   5.338   4.312   2.028  0.3799 -0.4136 -0.4447
   55MOL   C18417572   5.214   4.252   1.990  0.1464 -0.2541 -0.5030
   55MOL   C18517573   5.178   4.119   2.016 -0.0606 -0.2631  0.0306
   55MOL   H18617574   5.181   3.709   2.030  0.6397  0.5287  2.4531
   55MOL   H18717575   5.092   3.845   1.972  1.1598  1.6111 -0.7009
   55MOL   H18817576   5.338   3.847   2.133  0.4182  0.5327  0.0063
   55MOL   H18917577   5.467   4.035   2.174  2.0318  2.2717 -0.7550
   55MOL   H19017578   5.524   4.269   2.130  0.8375 -1.5826  0.9834
   55MOL   H19117579   5.362   4.411   1.994  2.9081 -0.7417  0.2922
   55MOL   H19217580   5.142   4.315   1.939 -2.1134 -1.0848  1.5590
   55MOL   H19317581   5.078   4.089   1.988 -0.5728  0.1663  1.3900
   55MOL   C19417582   5.138   3.875   2.231  0.3419  0.1487 -0.1881
   55MOL   C19517583   5.173   3.944   2.360  0.5388 -0.2122 -0.1916
   55MOL   C19617584   5.051   3.929   2.451 -0.5779  0.4457 -0.5790
   55MOL   C19717585   4.967   4.039   2.474  1.0750 -0.1749  0.0107
   55MOL   C19817586   4.859   4.032   2.569 -0.1693 -1.1532 -0.1922
   55MOL   C19917587   4.835   3.904   2.620 -0.3087  0.0755  0.1554
   55MOL   C20017588   4.919   3.791   2.601 -0.2121  0.0509 -0.0052
   55MOL   C20117589   5.027   3.800   2.516 -0.1303  0.1163 -0.6976
   55MOL   H20217590   5.115   3.772   2.258  1.9501 -0.0877  0.3533
   55MOL   H20317591   5.041   3.914   2.200 -0.2252  0.2309  1.6101
   55MOL   H20417592   5.178   4.049   2.331 -0.8948 -0.3980 -1.1809
   55MOL   H20517593   4.977   4.132   2.421  2.0795  0.4806  1.3318
   55MOL   H20617594   4.796   4.117   2.591  2.2677  1.1852 -2.0093
   55MOL   H20717595   4.750   3.885   2.684 -2.1143  0.1660 -2.1188
   55MOL   H20817596   4.904   3.703   2.663 -2.2543  1.1604  1.1107
   55MOL   H20917597   5.094   3.720   2.490  0.8757  1.4482 -2.3520
   55MOL   C21017598   5.310   3.914   2.424 -0.4118  0.1209  0.1293
   55MOL   C21117599   5.342   3.967   2.564  0.1533  0.0779 -0.1032
   55MOL   C21217600   5.460   3.899   2.633 -0.2777  0.1519  0.5432
   55MOL   C21317601   5.439   3.847   2.757  0.4215  0.1135  0.3180
   55MOL   C21417602   5.545   3.793   2.842  0.2251  0.0487  1.0921
   55MOL   C21517603   5.675   3.789   2.791 -0.5661  0.6815 -0.5375
   55MOL   C21617604   5.693   3.835   2.654 -0.1269 -0.1793 -0.5114
   55MOL   C21717605   5.589   3.890   2.580 -0.9945 -0.0770 -0.1553
   55MOL   H21817606   5.398   3.924   2.360 -0.4540  0.4184  0.1143
   55MOL   H21917607   5.301   3.806   2.428  0.5417 -0.0653 -2.0774
   55MOL   H22017608   5.252   3.933   2.616 -0.5991  1.0221 -0.7653
   55MOL   H22117609   5.340   3.860   2.800  0.7446  0.9298  0.8268
   55MOL   H22217610   5.530   3.748   2.939 -1.0999 -0.8758  0.4726
   55MOL   H22317611   5.755   3.754   2.855 -0.2775  1.3017 -0.5521
   55MOL   H22417612   5.792   3.833   2.611  0.6436 -2.6481  1.3099
   55MOL   H22517613   5.602   3.929   2.480 -0.3017  1.6884  0.5896
   55MOL   C22617614   5.332   4.124   2.590  0.4024 -0.6262  0.2811
   55MOL   C22717615   5.339   4.168   2.736 -0.0714 -0.8633 -0.0687
   55MOL   C22817616   5.396   4.302   2.743 -0.2447 -0.3180  0.8441
   55MOL   C22917617   5.322   4.420   2.719  0.7154  0.2576  0.3247
   55MOL   C23017618   5.380   4.543   2.736 -0.2284 -0.1535 -0.2466
   55MOL   C23117619   5.520   4.557   2.745 -0.4145  0.0354 -0.1554
   55MOL   C23217620   5.598   4.433   2.764 -0.1845 -0.4567  0.2642
   55MOL   C23317621   5.538   4.308   2.759  0.1056 -0.2308  0.0260
   55MOL   H23417622   5.235   4.157   2.553  0.0575 -1.2803  0.5828
   55MOL   H23517623   5.400   4.168   2.517  0.1153  0.1705  0.5000
   55MOL   H23617624   5.414   4.107   2.785  1.3065  0.6430 -0.2643
   55MOL   H23717625   5.223   4.415   2.678  0.7614 -0.2063  0.2637
   55MOL   H23817626   5.318   4.631   2.733  1.6837  1.3946  2.7137
   55MOL   H23917627   5.568   4.652   2.759 -1.8352  0.7448 -0.0389
   55MOL   H24017628   5.701   4.437   2.797 -0.6838  1.4209  1.7235
   55MOL   H24117629   5.590   4.214   2.770 -1.4214 -1.3017 -1.6298
   55MOL   C24217630   5.205   4.143   2.810  0.7601  0.0325  0.1475
   55MOL   C24317631   5.217   4.171   2.964  0.6434 -0.1552  0.5688
   55MOL   C24417632   5.081   4.176   3.035  0.9107 -0.2947 -0.4563
   55MOL   C24517633   5.033   4.292   3.106 -0.5029  0.3892 -0.2268
   55MOL   C24617634   4.903   4.305   3.154  0.1668  0.0258  0.1424
   55MOL   C24717635   4.823   4.188   3.147  0.4507  0.0122  0.4200
   55MOL   C24817636   4.869   4.073   3.078 -0.0053  0.2194 -0.2743
   55MOL   C24917637   4.996   4.063   3.023  0.2173 -0.2457 -0.1951
   55MOL   H25017638   5.174   4.040   2.794  1.7628 -0.3979  0.9368
   55MOL   H25117639   5.116   4.191   2.771 -1.1346 -1.4996  2.4561
   55MOL   H25217640   5.261   4.270   2.972  0.7854 -0.1202 -0.6307
   55MOL   H25317641   5.102   4.375   3.105 -0.5742  0.4394 -1.5169
   55MOL   H25417642   4.865   4.398   3.193 -3.3779 -0.6846 -1.4791
   55MOL   H25517643   4.716   4.186   3.166  0.5108 -1.6416  0.5787
   55MOL   H25617644   4.799   3.994   3.055  1.9850 -1.4679 -0.5891
   55MOL   H25717645   5.030   3.980   2.964  0.1097 -0.4826  0.0744
   55MOL   C25817646   5.313   4.072   3.027  0.3334 -0.0064 -0.7637
   55MOL   C25917647   5.329   4.090   3.179 -0.5043  0.3888  0.3544
   55MOL   C26017648   5.291   3.964   3.248  0.4570  0.4646  0.6961
   55MOL   C26117649   5.367   3.843   3.237  0.4555 -0.3116 -0.2567
   55MOL   C26217650   5.330   3.731   3.312  0.6632 -0.2987 -0.0336
   55MOL   C26317651   5.224   3.736   3.403  0.0263 -0.1613  0.3171
   55MOL   C26417652   5.141   3.856   3.415  0.6997  0.4413  0.1929
   55MOL   C26517653   5.173   3.967   3.335  0.0201 -0.8244  0.1028
   55MOL   H26617654   5.416   4.078   2.990  0.3363 -0.9575 -0.9303
   55MOL   H26717655   5.260   3.978   3.015  0.5673  0.0927 -2.6337
   55MOL   H26817656   5.264   4.171   3.214 -2.6300 -1.9980  2.0666
   55MOL   H26917657   5.451   3.841   3.169  0.1988 -2.0849 -0.5213
   55MOL   H27017658   5.394   3.644   3.307  0.5253 -0.3445 -1.0395
   55MOL   H27117659   5.206   3.654   3.470  0.1411 -1.7998 -1.6088
   55MOL   H27217660   5.065   3.865   3.491 -0.0630 -1.3098 -0.3283
   55MOL   H27317661   5.130   4.065   3.343  2.8571  0.4102  0.6837
   55MOL   C27417662   5.466   4.128   3.228 -0.2155 -0.1814  0.5070
   55MOL   C27517663   5.512   4.269   3.197  0.3840 -0.7666  0.0046
   55MOL   C27617664   5.421   4.382   3.244 -0.6792  0.6249  0.4748
   55MOL   C27717665   5.393   4.497   3.165  0.3167  0.2256  0.9831
   55MOL   C27817666   5.301   4.588   3.213  0.2635 -0.3884 -0.3379
   55MOL   C27917667   5.238   4.573   3.342  0.0278 -0.0965 -0.9148
   55MOL   C28017668   5.276   4.466   3.424  0.0046 -0.8913  0.0982
   55MOL   C28117669   5.370   4.376   3.374  0.1113 -0.4752  0.1388
   55MOL   H28217670   5.537   4.055   3.188 -0.3574  0.1779 -0.4018
   55MOL   H28317671   5.457   4.106   3.334 -0.3349  0.2691  0.5921
   55MOL   H28417672   5.523   4.273   3.088 -1.7258  0.6078 -0.2005
   55MOL   H28517673   5.437   4.517   3.069 -0.4693 -0.6677  0.4303
   55MOL   H28617674   5.267   4.655   3.136 -1.3504 -0.7951 -0.0030
   55MOL   H28717675   5.168   4.637   3.393  0.0786 -1.6924  1.1998
   55MOL   H28817676   5.236   4.457   3.524 -1.5802 -1.4943 -0.5646
   55MOL   H28917677   5.403   4.299   3.442  0.1945 -0.9559 -0.4441
   55MOL   C29017678   5.655   4.287   3.251  0.1009  0.4791 -0.2041
   55MOL   C29117679   5.726   4.423   3.244  0.4629 -0.4397 -0.3317
   55MOL   C29217680   5.810   4.440   3.374 -0.4070  0.8711  0.6770
   55MOL   C29317681   5.925   4.365   3.392 -0.0468 -0.6238  0.1529
   55MOL   C29417682   5.998   4.386   3.510  0.1077 -0.1503  0.8205
   55MOL   C29517683   5.951   4.479   3.606  0.1404  0.8166  0.7511
   55MOL   C29617684   5.846   4.567   3.586 -0.0624  0.1344 -0.6536
   55MOL   C29717685   5.764   4.537   3.471 -0.6084 -0.0826  0.0493
   55MOL   H29817686   5.722   4.210   3.213  1.1640  2.0237 -1.4812
   55MOL   H29917687   5.639   4.261   3.356  0.7059 -0.9542 -0.4598
   55MOL   H30017688   5.652   4.503   3.249  1.2341  0.3430 -1.3620
   55MOL   H30117689   5.957   4.289   3.322  0.5173 -1.7688  1.6127
   55MOL   H30217690   6.088   4.326   3.520  0.5955  0.4895  0.3625
   55MOL   H30317691   6.014   4.493   3.693  0.2843  0.8454  0.6430
   55MOL   H30417692   5.819   4.641   3.659 -1.7347 -1.1898  0.1300
   55MOL   H30517693   5.671   4.588   3.448 -0.9383 -1.2091 -1.1284
   55MOL   C30617694   5.810   4.444   3.111 -0.4525  0.0375  0.2897
   55MOL   C30717695   5.853   4.592   3.093  0.7302 -0.7740  0.0922
   55MOL   C30817696   5.888   4.623   2.946  0.4114 -0.2789 -0.3663
   55MOL   C30917697   5.825   4.735   2.886 -0.1215  0.6928  0.0325
   55MOL   C31017698   5.845   4.760   2.749  0.0356  0.2561  0.5986
   55MOL   C31117699   5.920   4.673   2.669  0.6507  0.2244 -0.2565
   55MOL   C31217700   5.982   4.560   2.730 -0.1720 -0.5581 -0.3254
   55MOL   C31317701   5.968   4.534   2.867 -1.0454 -0.5023  0.5187
   55MOL   H31417702   5.744   4.403   3.034 -1.0474  0.4496  0.5800
   55MOL   H31517703   5.899   4.381   3.108 -0.3100  0.1752  1.4478
   55MOL   H31617704   5.935   4.630   3.153 -0.4970  1.2554  0.5229
   55MOL   H31717705   5.760   4.799   2.945  0.7335 -0.3240  2.1291
   55MOL   H31817706   5.800   4.838   2.690 -3.0795 -2.3043 -0.5620
   55MOL   H31917707   5.924   4.695   2.563  0.6526 -0.8556 -0.4848
   55MOL   H32017708   6.044   4.501   2.664  1.5593  1.9329 -1.0087
   55MOL   H32117709   6.004   4.448   2.921  0.0978 -0.7232 -0.5812
   55MOL   H32217710   5.772   4.659   3.121  1.3261 -0.1593  0.3517
   56MOL     C117711   0.472   5.335   5.373  0.0684 -0.2210 -0.1505
   56MOL     C217712   0.358   5.261   5.294  0.1173 -0.1924 -0.1853
   56MOL     C317713   0.392   5.113   5.295 -0.4254 -0.2390  0.0297
   56MOL     C417714   0.336   5.033   5.195 -0.2975  0.3196  0.0681
   56MOL     C517715   0.356   4.896   5.200 -0.2467 -0.1211  0.5995
   56MOL     C617716   0.437   4.834   5.298 -0.0508  0.5388  0.0606
   56MOL     C717717   0.497   4.911   5.395  0.1945  0.3394  0.1508
   56MOL     C817718   0.483   5.052   5.391  0.0943 -0.2998  0.3804
   56MOL     H917719   0.463   5.444   5.376 -0.9663 -0.3336  1.5825
   56MOL    H1017720   0.469   5.314   5.480  3.5971 -2.0193 -0.3116
   56MOL    H1117721   0.373   5.282   5.188 -0.0915  0.4117 -0.0971
   56MOL    H1217722   0.275   5.083   5.122 -0.8327 -0.5053 -0.0535
   56MOL    H1317723   0.316   4.838   5.118 -0.9152  2.5833 -1.0663
   56MOL    H1417724   0.443   4.726   5.293  2.8739  0.5835  1.6697
   56MOL    H1517725   0.561   4.869   5.472 -0.8326 -1.4765  0.0544
   56MOL    H1617726   0.540   5.104   5.467  1.5353 -1.5752  0.1780
   56MOL    H1717727   0.573   5.313   5.338 -0.0782  0.6148 -1.1350
   56MOL    C1817728   0.207   5.288   5.330 -0.2613  0.0788  0.1982
   56MOL    C1917729   0.156   5.251   5.479 -0.3488 -0.2218 -0.2310
   56MOL    C2017730   0.227   5.331   5.586 -0.5521  0.0823  0.0384
   56MOL    C2117731   0.260   5.467   5.569  0.1483  0.9663 -0.2333
   56MOL    C2217732   0.326   5.536   5.667  0.1913 -0.0891  0.7100
   56MOL    C2317733   0.359   5.477   5.786  0.1133 -0.0123  0.1080
   56MOL    C2417734   0.348   5.337   5.801  0.3390 -0.1352 -0.4603
   56MOL    C2517735   0.278   5.264   5.704 -0.2962 -0.2194 -0.8404
   56MOL    H2617736   0.147   5.228   5.262  1.5719 -4.0006  1.9242
   56MOL    H2717737   0.176   5.391   5.314  3.1874  1.8316  3.6518
   56MOL    H2817738   0.182   5.147   5.498  2.9576  0.3877 -1.1774
   56MOL    H2917739   0.249   5.518   5.474  2.8196  1.6585 -0.2205
   56MOL    H3017740   0.339   5.643   5.656  0.8089 -0.2586 -0.2453
   56MOL    H3117741   0.398   5.534   5.869  3.4851  0.9993 -2.0258
   56MOL    H3217742   0.394   5.284   5.883  2.0708  3.2260  0.8009
   56MOL    H3317743   0.256   5.158   5.712  0.9309 -0.4035  0.3844
   56MOL    C3417744   0.005   5.269   5.502  0.3345  0.1049 -0.0954
   56MOL    C3517745   8.025   5.178   5.434 -0.5289  0.5878 -0.1760
   56MOL    C3617746   8.057   5.029   5.453  0.2932  0.4515 -0.5806
   56MOL    C3717747   0.028   4.971   5.362 -0.2176 -0.2786  0.5803
   56MOL    C3817748   0.051   4.833   5.365  0.0479  1.1416 -0.6474
   56MOL    C3917749   8.112   4.753   5.463  0.0655  0.3674  0.0608
   56MOL    C4017750   8.025   4.811   5.558 -0.2774  0.2297  0.2279
   56MOL    C4117751   7.998   4.949   5.550 -0.3776  0.1986  1.3859
   56MOL    H4217752   8.089   5.369   5.471  1.9257  0.2124 -1.3914
   56MOL    H4317753   8.110   5.273   5.611 -0.4786  2.1935 -0.2253
   56MOL    H4417754   8.051   5.202   5.330 -2.1509 -0.0632 -0.7488
   56MOL    H4517755   0.083   5.023   5.285 -0.7343  0.8871  0.9830
   56MOL    H4617756   0.119   4.781   5.299  0.6484  1.6833 -0.4675
   56MOL    H4717757   0.024   4.649   5.466  2.2226  0.8153 -1.9868
   56MOL    H4817758   7.983   4.750   5.637  0.9774 -2.1848 -0.8831
   56MOL    H4917759   7.936   4.998   5.624  0.1565  0.3854  1.7056
   56MOL    C5017760   7.874   5.206   5.463 -0.1152  0.5131 -0.2284
   56MOL    C5117761   7.769   5.127   5.374 -0.1572  0.4395 -0.3210
   56MOL    C5217762   7.644   5.090   5.446 -0.1235  0.2949 -0.9774
   56MOL    C5317763   7.627   4.953   5.479  0.4494  0.7596  1.2943
   56MOL    C5417764   7.523   4.909   5.558 -0.1984  0.4858 -0.0426
   56MOL    C5517765   7.435   5.004   5.618  0.4548  0.5734 -0.6265
   56MOL    C5617766   7.451   5.136   5.586  0.1289 -0.5608  0.4729
   56MOL    C5717767   7.554   5.179   5.505 -0.2476  0.3429 -0.3366
   56MOL    H5817768   7.856   5.313   5.456  1.1935  0.8715  1.6037
   56MOL    H5917769   7.854   5.181   5.567  0.0888 -0.3790 -0.3992
   56MOL    H6017770   7.818   5.038   5.335  0.8326  1.3405 -1.1517
   56MOL    H6117771   7.694   4.878   5.440 -0.0585 -0.2636  2.3566
   56MOL    H6217772   7.507   4.803   5.574  1.3745  0.1064 -0.9439
   56MOL    H6317773   7.360   4.974   5.690  0.2935  0.3816 -0.8730
   56MOL    H6417774   7.386   5.201   5.643  0.5138  0.6456 -0.4187
   56MOL    H6517775   7.576   5.282   5.485  2.1132 -0.2590 -0.9550
   56MOL    C6617776   7.724   5.199   5.247 -0.6164 -0.1594  0.1656
   56MOL    C6717777   7.831   5.201   5.132 -0.7304  0.2075  0.2740
   56MOL    C6817778   7.862   5.061   5.083 -0.2184 -0.5270  0.2534
   56MOL    C6917779   7.994   5.015   5.080  0.1089 -0.5530  0.0152
   56MOL    C7017780   8.029   4.897   5.026  0.0390  1.0465 -0.0633
   56MOL    C7117781   7.927   4.813   4.975  0.9236 -0.1141 -0.0352
   56MOL    C7217782   7.791   4.848   4.987  0.6276 -0.7493  0.2389
   56MOL    C7317783   7.757   4.980   5.029 -0.7292 -0.2725  0.0755
   56MOL    H7417784   7.684   5.297   5.271  1.4546 -0.0853  3.6179
   56MOL    H7517785   7.639   5.141   5.212 -0.8100 -0.6152  1.3752
   56MOL    H7617786   7.926   5.242   5.168 -0.0303 -0.8301 -0.3478
   56MOL    H7717787   8.067   5.088   5.111 -0.1853 -1.1317  2.1055
   56MOL    H7817788   0.011   4.851   5.023  0.0780  1.0759  0.6142
   56MOL    H7917789   7.961   4.719   4.934 -0.5330 -0.3398 -0.7590
   56MOL    H8017790   7.714   4.774   4.967  1.8969 -1.8410 -0.6894
   56MOL    H8117791   7.654   5.013   5.025 -0.2245  1.1706 -1.8663
   56MOL    C8217792   7.784   5.286   5.012  0.4404 -0.1398  0.4301
   56MOL    C8317793   7.792   5.440   5.031  0.4063 -0.0652  0.3793
   56MOL    C8417794   7.935   5.479   5.080  0.1468 -0.0869  0.7083
   56MOL    C8517795   8.045   5.453   5.002  0.1909 -0.0905  0.5028
   56MOL    C8617796   0.059   5.501   5.032 -0.3146 -0.3691 -0.3684
   56MOL    C8717797   0.075   5.584   5.145 -0.2274  0.4923  0.5005
   56MOL    C8817798   8.081   5.612   5.234  0.1963  0.1611 -0.5395
   56MOL    C8917799   7.956   5.556   5.198  1.0156  0.5584 -0.4747
   56MOL    H9017800   7.681   5.259   4.986  0.2462  1.3059 -0.3831
   56MOL    H9117801   7.848   5.265   4.926  0.0711  1.6519 -0.3189
   56MOL    H9217802   7.723   5.457   5.114 -0.7459 -1.1419 -0.3429
   56MOL    H9317803   8.037   5.389   4.915 -0.9465  1.1162 -0.3009
   56MOL    H9417804   0.136   5.478   4.960 -1.2466 -0.9334 -1.2037
   56MOL    H9517805   0.169   5.634   5.161  1.9729 -2.5245 -2.1471
   56MOL    H9617806   8.093   5.676   5.320  1.0117 -0.1463 -0.4155
   56MOL    H9717807   7.864   5.581   5.249  1.4203 -1.8685  1.5407
   56MOL    C9817808   7.748   5.524   4.911 -0.0604  0.4950 -0.5045
   56MOL    C9917809   7.612   5.498   4.839  0.1466  0.5261 -0.3149
   56MOL   C10017810   7.497   5.484   4.934  0.7256 -0.1187 -0.1906
   56MOL   C10117811   7.483   5.546   5.055 -0.1940 -0.2983 -0.1586
   56MOL   C10217812   7.380   5.508   5.148  0.3777 -0.4129  0.0348
   56MOL   C10317813   7.285   5.415   5.108  1.1077 -0.3378  0.3958
   56MOL   C10417814   7.300   5.356   4.984 -0.0001 -0.0232  0.1274
   56MOL   C10517815   7.401   5.386   4.894 -0.3799  0.0156 -0.0529
   56MOL   H10617816   7.826   5.540   4.837 -0.4034 -0.4508 -1.0828
   56MOL   H10717817   7.740   5.622   4.956 -4.1721 -0.1871  0.5065
   56MOL   H10817818   7.621   5.405   4.783  2.7976 -0.5362  1.7277
   56MOL   H10917819   7.551   5.624   5.087  2.4968 -1.9557 -1.6351
   56MOL   H11017820   7.371   5.539   5.252 -0.5219 -0.6379  0.0260
   56MOL   H11117821   7.203   5.395   5.175  0.9446 -0.0391  0.2915
   56MOL   H11217822   7.231   5.278   4.954 -0.7200  0.2493  1.0598
   56MOL   H11317823   7.405   5.330   4.802  0.3092  0.4655 -0.2968
   56MOL   C11417824   7.575   5.610   4.741  0.4008  0.2795 -0.5790
   56MOL   C11517825   7.663   5.634   4.618 -0.1025  1.2385  0.2806
   56MOL   C11617826   7.667   5.510   4.526  0.0561  0.1784 -0.1735
   56MOL   C11717827   7.557   5.482   4.442 -0.3204 -0.0089 -0.2286
   56MOL   C11817828   7.551   5.357   4.383  0.3692 -0.1555 -0.4932
   56MOL   C11917829   7.655   5.263   4.390 -0.6570  0.0708 -0.0435
   56MOL   C12017830   7.773   5.299   4.462 -0.0745  0.8064  0.1577
   56MOL   C12117831   7.781   5.427   4.527  0.9379 -0.2068  0.0664
   56MOL   H12217832   7.589   5.706   4.790  0.7316 -0.9922  1.8767
   56MOL   H12317833   7.470   5.603   4.713  0.4368 -1.1615 -0.4293
   56MOL   H12417834   7.766   5.629   4.655 -0.1328 -0.6694  0.1667
   56MOL   H12517835   7.471   5.548   4.439 -0.3340 -0.0883 -2.6709
   56MOL   H12617836   7.458   5.325   4.337  0.0189  1.9466 -1.2896
   56MOL   H12717837   7.638   5.168   4.341  1.8487  0.2553 -1.4033
   56MOL   H12817838   7.858   5.232   4.469 -0.4600  0.3887  0.8907
   56MOL   H12917839   7.858   5.449   4.599  0.2553 -3.6343  1.9370
   56MOL   C13017840   7.647   5.765   4.539 -0.1161 -0.1673 -0.0319
   56MOL   C13117841   7.700   5.889   4.610 -0.2493 -0.2712  0.6905
   56MOL   C13217842   7.825   5.875   4.696  0.7237  0.1941 -0.1695
   56MOL   C13317843   7.815   5.905   4.832  0.0582  0.1354  0.3167
   56MOL   C13417844   7.930   5.900   4.913 -0.2170  0.0514  0.4118
   56MOL   C13517845   8.060   5.866   4.857  0.1911 -0.1132  0.1385
   56MOL   C13617846   8.068   5.844   4.720 -0.0132  0.0838  0.1203
   56MOL   C13717847   7.950   5.852   4.638  0.2958  0.2011 -0.1267
   56MOL   H13817848   7.548   5.785   4.496 -0.8990 -0.5510  1.5343
   56MOL   H13917849   7.708   5.752   4.450  0.7492  0.2543  0.4964
   56MOL   H14017850   7.620   5.931   4.671 -1.8490  1.9961 -2.8137
   56MOL   H14117851   7.722   5.934   4.878  0.3436  1.7780 -0.1095
   56MOL   H14217852   7.932   5.929   5.017  2.3027  0.0388  0.3794
   56MOL   H14317853   0.035   5.856   4.917  1.2136  0.7921 -1.1981
   56MOL   H14417854   0.049   5.814   4.680  1.0879  2.0408  1.2271
   56MOL   H14517855   7.957   5.837   4.531  1.9960 -1.3203  0.1744
   56MOL   C14617856   7.714   5.997   4.504 -0.7216 -0.6564 -0.1863
   56MOL   C14717857   7.742   6.137   4.547 -0.5676 -0.2254 -0.0060
   56MOL   C14817858   7.787   6.221   4.431  0.1807 -0.5375  0.2170
   56MOL   C14917859   7.897   6.306   4.447 -0.5369 -0.2100 -0.3730
   56MOL   C15017860   7.946   6.379   4.334 -0.4041 -0.6573  0.5635
   56MOL   C15117861   7.894   6.353   4.209 -0.3243 -0.3816  0.2326
   56MOL   C15217862   7.776   6.271   4.193 -0.5064 -0.5061 -0.0836
   56MOL   C15317863   7.726   6.211   4.306  0.1701  0.3138 -0.1149
   56MOL   H15417864   7.622   6.003   4.445 -0.4125 -2.1325 -0.8459
   56MOL   H15517865   7.796   5.971   4.437  0.0822 -1.6244  1.1450
   56MOL   H15617866   7.835   6.138   4.604 -0.3425 -0.7080 -0.3556
   56MOL   H15717867   7.939   6.320   4.545  0.4080 -0.8487 -0.6802
   56MOL   H15817868   8.021   6.454   4.352  0.9735 -2.2403  1.5945
   56MOL   H15917869   7.938   6.405   4.126 -0.8728  0.6061  0.5526
   56MOL   H16017870   7.725   6.259   4.099 -0.2500 -1.7498 -0.0614
   56MOL   H16117871   7.633   6.157   4.297 -0.1856  0.6413  1.3362
   56MOL   C16217872   7.616   6.196   4.618 -0.4408 -0.4063  0.8442
   56MOL   C16317873   7.659   6.223   4.769 -0.1623  0.2473  0.0286
   56MOL   C16417874   7.764   6.329   4.789  0.2967  0.2607  0.6289
   56MOL   C16517875   7.735   6.460   4.751 -0.6314  0.1834  0.5173
   56MOL   C16617876   7.835   6.560   4.760 -0.2436 -0.6430 -0.4224
   56MOL   C16717877   7.970   6.525   4.792 -1.3996 -0.6349  0.5369
   56MOL   C16817878   8.000   6.399   4.832  0.4866  0.0007 -0.2558
   56MOL   C16917879   7.898   6.299   4.824  0.1637  0.0439 -0.3749
   56MOL   H17017880   7.529   6.130   4.616 -1.3847  0.8358 -1.0918
   56MOL   H17117881   7.588   6.285   4.561  1.6246 -1.7282 -2.3768
   56MOL   H17217882   7.705   6.131   4.807  0.5863  0.2453 -0.8743
   56MOL   H17317883   7.632   6.482   4.727 -0.9806  0.5184  2.2514
   56MOL   H17417884   7.805   6.661   4.738 -2.4323 -1.4637 -1.3797
   56MOL   H17517885   8.042   6.604   4.809 -0.6339 -1.0163 -0.8963
   56MOL   H17617886   8.097   6.374   4.872  0.0553 -1.2372  0.0073
   56MOL   H17717887   7.928   6.197   4.842  0.5591 -0.0984 -1.8339
   56MOL   C17817888   7.545   6.247   4.876  0.6241 -0.2588  0.3646
   56MOL   C17917889   7.584   6.259   5.021 -0.7045  0.1200  0.6619
   56MOL   C18017890   7.509   6.373   5.089 -0.1000  0.2898 -0.1643
   56MOL   C18117891   7.370   6.372   5.125  0.4739  0.1717 -0.1015
   56MOL   C18217892   7.313   6.490   5.173 -0.0648  0.3736 -0.3668
   56MOL   C18317893   7.390   6.604   5.191 -0.3953 -0.6133 -0.6280
   56MOL   C18417894   7.521   6.609   5.160 -0.3331  0.0771 -0.1306
   56MOL   C18517895   7.582   6.492   5.107  0.2337  0.3758  0.2682
   56MOL   H18617896   7.469   6.169   4.870  0.3895 -0.0426  0.5396
   56MOL   H18717897   7.498   6.338   4.838 -1.2098 -1.7189 -0.9763
   56MOL   H18817898   7.690   6.285   5.020 -0.3427 -1.3335 -1.1001
   56MOL   H18917899   7.305   6.290   5.097 -0.4823  1.1214 -0.7193
   56MOL   H19017900   7.208   6.495   5.195 -0.5069 -2.5559 -1.5988
   56MOL   H19117901   7.335   6.684   5.238  1.0966  1.9684 -3.1221
   56MOL   H19217902   7.569   6.705   5.175 -1.0125  0.6366 -1.4371
   56MOL   H19317903   7.679   6.490   5.061  0.0166  1.1384 -0.2442
   56MOL   C19417904   7.566   6.133   5.108 -0.4631  0.5196  0.6024
   56MOL   C19517905   7.590   6.137   5.265  0.2478 -1.0457 -0.3033
   56MOL   C19617906   7.563   5.994   5.319  0.3134  0.7190 -0.1424
   56MOL   C19717907   7.639   5.878   5.282  0.1838 -0.0822 -0.6074
   56MOL   C19817908   7.602   5.753   5.329  0.1800 -0.3150 -0.1486
   56MOL   C19917909   7.488   5.736   5.410 -0.7867  0.0670 -0.2034
   56MOL   C20017910   7.409   5.851   5.441 -0.0522 -0.3211 -0.4826
   56MOL   C20117911   7.452   5.980   5.399  0.3587  0.9067 -0.1619
   56MOL   H20217912   7.629   6.062   5.055 -1.2209  0.2669  0.0243
   56MOL   H20317913   7.462   6.102   5.099 -1.0250  2.1210  1.3290
   56MOL   H20417914   7.523   6.208   5.312  1.1708  0.0293 -0.5838
   56MOL   H20517915   7.721   5.892   5.212  1.3363  1.9658  1.1120
   56MOL   H20617916   7.666   5.667   5.319  1.4252  0.2589  2.3447
   56MOL   H20717917   7.452   5.637   5.434 -2.5029  1.0405  1.3650
   56MOL   H20817918   7.322   5.843   5.503 -1.4113  1.1387 -2.1603
   56MOL   H20917919   7.402   6.063   5.447 -3.2385 -0.9077 -0.5846
   56MOL   C21017920   7.736   6.178   5.298  0.4704 -0.8400 -0.1615
   56MOL   C21117921   7.764   6.189   5.450  0.0008 -0.0542 -0.4951
   56MOL   C21217922   7.916   6.173   5.471 -0.0000  0.1402  0.8851
   56MOL   C21317923   8.014   6.272   5.432  0.0768 -0.5263  0.3231
   56MOL   C21417924   0.033   6.258   5.462  0.5868 -0.4981 -1.1418
   56MOL   C21517925   0.083   6.136   5.512 -0.0512 -0.4676 -0.3550
   56MOL   C21617926   8.102   6.029   5.541 -0.9187 -0.1439 -0.5104
   56MOL   C21717927   7.963   6.053   5.530 -0.0827  0.8472  0.7389
   56MOL   H21817928   7.759   6.276   5.258  1.5963 -1.1434 -0.2534
   56MOL   H21917929   7.810   6.113   5.250  2.1580  0.4512  0.6641
   56MOL   H22017930   7.718   6.102   5.496 -0.5047 -0.4622 -1.7606
   56MOL   H22117931   7.985   6.361   5.379 -1.7449 -2.3850 -1.9122
   56MOL   H22217932   0.099   6.342   5.448  1.0754 -0.2999  2.0567
   56MOL   H22317933   0.186   6.110   5.529  0.1191 -0.4920 -1.4276
   56MOL   H22417934   0.023   5.934   5.576 -1.5999 -1.0893 -2.3327
   56MOL   H22517935   7.899   5.976   5.570  1.1319  0.7038  2.4782
   56MOL   C22617936   7.712   6.316   5.528  0.0313 -0.6051 -0.3322
   56MOL   C22717937   7.710   6.301   5.681  0.5195  0.1232  0.1216
   56MOL   C22817938   7.621   6.179   5.727 -0.0132 -0.6346 -0.0511
   56MOL   C22917939   7.675   6.057   5.776  0.5274 -0.3697 -0.2029
   56MOL   C23017940   7.593   5.953   5.815 -0.1073 -0.3041  0.0907
   56MOL   C23117941   7.452   5.967   5.801  0.0120 -0.2684  0.6676
   56MOL   C23217942   7.394   6.087   5.756 -0.0938  0.4534  0.4459
   56MOL   C23317943   7.479   6.192   5.723  0.4959 -0.0547  0.1932
   56MOL   H23417944   7.612   6.339   5.490 -0.6203 -0.4793  1.4415
   56MOL   H23517945   7.772   6.394   5.479 -0.7968  0.4700  0.3487
   56MOL   H23617946   7.643   6.380   5.715  0.6633  0.1872  0.2615
   56MOL   H23717947   7.781   6.036   5.774  0.5097 -0.5372  0.3429
   56MOL   H23817948   7.644   5.862   5.842  0.7052 -0.1181 -0.7856
   56MOL   H23917949   7.387   5.889   5.837 -1.2577  1.5790  2.4663
   56MOL   H24017950   7.288   6.093   5.741  0.2334 -0.3109 -2.4353
   56MOL   H24117951   7.438   6.285   5.685 -1.3034 -0.2738  1.5433
   56MOL   C24217952   7.848   6.328   5.751 -0.8660 -0.5076  0.1937
   56MOL   C24317953   7.854   6.313   5.910 -0.2065 -0.3363 -0.1463
   56MOL   C24417954   7.958   6.203   5.940  0.3946 -0.1656  0.5503
   56MOL   C24517955   7.907   6.085   5.997  0.2430  0.3804  0.3822
   56MOL   C24617956   7.998   5.980   6.022 -0.0684  0.0527 -0.0104
   56MOL   C24717957   0.016   5.994   5.983 -0.1135 -0.0237  0.4324
   56MOL   C24817958   0.062   6.109   5.916  0.4542 -0.1595 -0.3348
   56MOL   C24917959   8.096   6.220   5.907  0.2457  0.1048 -0.3314
   56MOL   H25017960   7.875   6.431   5.728 -1.5756  0.2915  2.7454
   56MOL   H25117961   7.917   6.255   5.709 -1.7639 -0.5686 -1.2159
   56MOL   H25217962   7.759   6.277   5.949 -0.3685  0.5081  0.2313
   56MOL   H25317963   7.803   6.074   6.022  0.5544 -2.3805  0.6758
   56MOL   H25417964   7.965   5.887   6.065 -0.1212  1.1903  2.4988
   56MOL   H25517965   0.073   5.903   5.994  0.9814  0.2928 -2.1132
   56MOL   H25617966   0.167   6.113   5.893  0.6573  1.8181  0.7936
   56MOL   H25717967   8.114   6.317   5.863 -0.8141 -0.0409 -1.1114
   56MOL   C25817968   7.883   6.449   5.975 -0.2380 -0.5319 -0.1092
   56MOL   C25917969   7.761   6.555   5.977  0.1529  0.0648 -0.1101
   56MOL   C26017970   7.654   6.513   6.068 -0.3456  0.0408 -0.5359
   56MOL   C26117971   7.523   6.509   6.024  0.3646  0.2039  0.5260
   56MOL   C26217972   7.413   6.479   6.111  0.0677  0.1979 -0.1519
   56MOL   C26317973   7.449   6.457   6.246 -0.5575 -0.0791  0.2669
   56MOL   C26417974   7.579   6.456   6.294  0.5127  0.5047 -0.3218
   56MOL   C26517975   7.684   6.484   6.203  0.3068  0.3472  0.0496
   56MOL   H26617976   7.971   6.496   5.933  1.1462 -0.0793  3.1371
   56MOL   H26717977   7.921   6.435   6.076  0.7402 -4.5724 -0.9526
   56MOL   H26817978   7.722   6.558   5.875 -1.7414  0.5430  0.6086
   56MOL   H26917979   7.507   6.514   5.918  0.9432 -1.4576  0.3453
   56MOL   H27017980   7.313   6.457   6.076  1.5307 -2.3833 -2.9189
   56MOL   H27117981   7.369   6.438   6.316 -0.4470  0.2886  0.4958
   56MOL   H27217982   7.603   6.434   6.397  0.5004 -0.6348 -0.5575
   56MOL   H27317983   7.786   6.469   6.233  0.5153  0.5683 -0.5326
   56MOL   C27417984   7.820   6.697   6.001  0.4816 -0.2235 -0.8275
   56MOL   C27517985   7.896   6.769   5.876 -0.1833  0.1538 -0.4965
   56MOL   C27617986   7.793   6.776   5.759 -0.3566  0.6780  0.2394
   56MOL   C27717987   7.819   6.703   5.637 -0.6535  0.0826 -0.4931
   56MOL   C27817988   7.718   6.701   5.538 -0.4126 -0.0729  0.2844
   56MOL   C27917989   7.599   6.769   5.556  0.2366 -0.1340 -0.0134
   56MOL   C28017990   7.579   6.851   5.670 -0.1543  0.0412  0.0142
   56MOL   C28117991   7.675   6.850   5.772  0.3218 -0.5318 -0.0978
   56MOL   H28217992   7.885   6.686   6.087 -0.8726  1.7050  0.4845
   56MOL   H28317993   7.741   6.766   6.032  1.7416  0.4733  0.8633
   56MOL   H28417994   7.977   6.710   5.834  0.2664  1.2246 -1.1635
   56MOL   H28517995   7.912   6.651   5.618 -0.8701 -0.1567 -0.9332
   56MOL   H28617996   7.741   6.658   5.442  1.6751 -0.1365  0.7870
   56MOL   H28717997   7.522   6.763   5.481 -1.1690 -1.8384  1.5431
   56MOL   H28817998   7.492   6.914   5.681 -1.0795 -1.3008  0.5613
   56MOL   H28917999   7.652   6.903   5.864 -0.6152 -1.0061 -0.0559
   56MOL   C29018000   7.955   6.901   5.917 -0.0834  0.1731  0.1663
   56MOL   C29118001   8.041   6.973   5.807  0.4886 -0.0223 -0.9063
   56MOL   C29218002   8.046   7.116   5.857 -0.0478 -0.3047 -0.6803
   56MOL   C29318003   0.028   7.170   5.946  0.1417  0.3647  0.3019
   56MOL   C29418004   0.030   7.305   5.994  0.7000  0.0917 -0.1621
   56MOL   C29518005   8.036   7.386   5.960 -0.3351  0.3610 -0.8992
   56MOL   C29618006   7.941   7.335   5.868  0.5148  0.0431 -0.2576
   56MOL   C29718007   7.940   7.202   5.830 -0.5871 -0.0743 -0.7082
   56MOL   H29818008   8.029   6.874   5.993 -1.6262 -0.6044  1.4080
   56MOL   H29918009   7.872   6.958   5.958 -0.4120 -0.8363  0.9361
   56MOL   H30018010   7.973   6.979   5.722 -3.6446  0.6515  2.3022
   56MOL   H30118011   0.109   7.110   5.985 -1.0773  0.4852  3.1650
   56MOL   H30218012   0.103   7.334   6.067  1.4117 -1.7389 -0.1227
   56MOL   H30318013   8.025   7.485   6.002 -0.4284  0.5438 -1.3648
   56MOL   H30418014   7.858   7.395   5.833  1.5276  0.6067 -1.7170
   56MOL   H30518015   7.870   7.180   5.750  0.8982  1.5662 -2.5277
   56MOL   C30618016   0.064   6.904   5.776 -0.6914  0.4573  0.1373
   56MOL   C30718017   0.109   6.949   5.645 -0.3555 -0.5221 -0.5324
   56MOL   C30818018   0.232   6.868   5.596  0.0994 -0.5989  0.1959
   56MOL   C30918019   0.222   6.792   5.479 -0.0043 -0.9216  0.1761
   56MOL   C31018020   0.320   6.699   5.451  0.8700  0.3654 -0.0030
   56MOL   C31118021   0.432   6.688   5.533  0.0514 -0.8602  0.0302
   56MOL   C31218022   0.445   6.765   5.647  0.1172 -0.0555  0.4859
   56MOL   C31318023   0.344   6.858   5.681 -0.0565  0.1237 -0.8196
   56MOL   H31418024   0.054   6.796   5.782  0.7507  0.3400  0.7043
   56MOL   H31518025   0.133   6.913   5.860 -1.0345  0.2015  0.4430
   56MOL   H31618026   0.126   7.057   5.650 -0.0072 -0.5751 -0.5750
   56MOL   H31718027   0.138   6.786   5.412 -0.2901 -0.6755  0.5154
   56MOL   H31818028   0.327   6.649   5.356  0.5180  0.2345  0.0352
   56MOL   H31918029   0.513   6.619   5.514  1.0687 -0.2199  1.9608
   56MOL   H32018030   0.524   6.745   5.718  1.1036  1.9018 -0.0393
   56MOL   H32118031   0.345   6.918   5.772 -0.8819  0.4501 -1.0237
   56MOL   H32218032   0.037   6.935   5.564 -1.8450  0.2749  0.6230
   57MOL     C118033   2.412   3.457   0.651 -0.5835 -0.0240 -0.2187
   57MOL     C218034   2.524   3.536   0.585 -0.9769 -0.5036  0.1679
   57MOL     C318035   2.660   3.473   0.631  0.0750  0.2699 -0.4263
   57MOL     C418036   2.689   3.336   0.620 -0.3473 -0.6404 -0.2449
   57MOL     C518037   2.815   3.287   0.663 -0.3331  0.2231  1.1872
   57MOL     C618038   2.923   3.380   0.699 -0.2061  0.3669 -0.3218
   57MOL     C718039   2.894   3.516   0.707  0.4114  0.5245 -0.3591
   57MOL     C818040   2.766   3.566   0.669 -0.5045  0.1083 -0.3703
   57MOL     H918041   2.398   3.354   0.620  2.6821 -0.6297  0.2468
   57MOL    H1018042   2.424   3.455   0.759 -0.5120  0.4786 -0.2163
   57MOL    H1118043   2.512   3.641   0.612  0.7519  0.4866 -2.7432
   57MOL    H1218044   2.607   3.274   0.587 -0.2673 -1.9797  1.9223
   57MOL    H1318045   2.833   3.180   0.658  2.0932  0.6658 -0.4969
   57MOL    H1418046   3.020   3.345   0.732 -1.8071 -4.2941 -0.2188
   57MOL    H1518047   2.962   3.597   0.724 -0.7580  1.8130 -1.7050
   57MOL    H1618048   2.754   3.673   0.671  1.8974  0.4093 -1.0957
   57MOL    H1718049   2.319   3.511   0.630  1.1432  2.8635 -0.6856
   57MOL    C1818050   2.524   3.541   0.425  0.3162 -0.0686 -0.4187
   57MOL    C1918051   2.381   3.564   0.356  0.4371  0.2484 -0.4289
   57MOL    C2018052   2.321   3.703   0.404  0.6918  0.2238  0.1761
   57MOL    C2118053   2.382   3.825   0.368 -0.2654 -0.1828 -0.4902
   57MOL    C2218054   2.326   3.954   0.403 -0.0975  0.1909  0.4626
   57MOL    C2318055   2.207   3.955   0.478 -0.1406  0.2457  0.2327
   57MOL    C2418056   2.152   3.835   0.528 -0.2540  0.6845 -0.4665
   57MOL    C2518057   2.197   3.713   0.474 -0.1359  0.3005  0.4877
   57MOL    H2618058   2.567   3.446   0.393 -0.3652 -0.5628  0.1158
   57MOL    H2718059   2.592   3.621   0.394 -0.3465  0.6460 -0.0627
   57MOL    H2818060   2.315   3.481   0.379  1.3765  0.1938  2.3028
   57MOL    H2918061   2.470   3.817   0.306 -0.8416 -1.2663 -1.1831
   57MOL    H3018062   2.373   4.047   0.375 -0.1072 -0.3547 -1.4470
   57MOL    H3118063   2.162   4.050   0.501  0.0196 -0.2026  2.5214
   57MOL    H3218064   2.060   3.847   0.583 -0.4322 -1.7131 -0.1819
   57MOL    H3318065   2.138   3.624   0.492  0.7684 -0.3161  0.4156
   57MOL    C3418066   2.394   3.572   0.200  0.2348 -0.1906  0.9775
   57MOL    C3518067   2.441   3.444   0.127  0.6493 -0.9792  0.0793
   57MOL    C3618068   2.346   3.328   0.126 -0.4160 -0.0598 -0.0183
   57MOL    C3718069   2.217   3.339   0.065 -0.1366  0.7589  0.3206
   57MOL    C3818070   2.134   3.223   0.060 -0.6655  0.2293 -0.0764
   57MOL    C3918071   2.179   3.098   0.119  0.0675  0.1644  0.6889
   57MOL    C4018072   2.305   3.097   0.184 -0.0206 -0.7354 -0.0847
   57MOL    C4118073   2.391   3.206   0.184 -0.0414 -0.1349 -0.2299
   57MOL    H4218074   2.472   3.644   0.177  0.0942  0.1671  1.6048
   57MOL    H4318075   2.304   3.594   0.143  0.0319 -2.3423  0.4272
   57MOL    H4418076   2.530   3.419   0.186 -0.2054 -2.4961  0.7537
   57MOL    H4518077   2.174   3.431   0.028 -1.7434  0.4352  1.3320
   57MOL    H4618078   2.033   3.232   0.022 -1.1779 -2.6328  0.5323
   57MOL    H4718079   2.111   3.015   0.118 -0.7751  0.8409  1.4163
   57MOL    H4818080   2.338   2.997   0.207  1.7816 -0.4926 -1.5300
   57MOL    H4918081   2.493   3.190   0.216 -0.5203 -1.5137  0.6197
   57MOL    C5018082   2.489   3.476   8.097 -0.1151 -0.1335  0.0256
   57MOL    C5118083   2.550   3.364   8.009 -0.5605  0.5534  0.2035
   57MOL    C5218084   2.584   3.429   7.870  0.6700  0.5828  0.7363
   57MOL    C5318085   2.679   3.531   7.854  0.3172 -0.1558  0.5040
   57MOL    C5418086   2.706   3.589   7.732 -0.1707 -0.0889  0.0677
   57MOL    C5518087   2.647   3.537   7.615  0.7691  0.4550 -0.2881
   57MOL    C5618088   2.561   3.426   7.627 -0.1704  0.4933  0.4160
   57MOL    C5718089   2.526   3.373   7.752 -0.6894 -0.2910 -0.0458
   57MOL    H5818090   2.566   3.552   8.109  0.3316 -0.6977  0.7956
   57MOL    H5918091   2.404   3.516   8.042  1.5871  3.3197 -0.2162
   57MOL    H6018092   2.492   3.274   7.989 -1.2864  1.7066 -3.1297
   57MOL    H6118093   2.721   3.574   7.944  0.2539  0.4874  0.2266
   57MOL    H6218094   2.767   3.678   7.726  1.7800 -1.5351 -2.2251
   57MOL    H6318095   2.671   3.573   7.517  2.3657 -0.4762 -0.2558
   57MOL    H6418096   2.515   3.377   7.542  2.8227  0.4637 -1.2272
   57MOL    H6518097   2.472   3.280   7.760  0.5512 -0.9488  1.0543
   57MOL    C6618098   2.678   3.300   8.069 -0.5456 -0.3569 -0.3353
   57MOL    C6718099   2.714   3.159   8.030 -0.3523  0.4184 -0.1270
   57MOL    C6818100   2.851   3.124   8.088  0.7267 -0.1148 -0.5399
   57MOL    C6918101   2.949   3.071   8.000  0.1914 -0.4794  0.3546
   57MOL    C7018102   3.066   3.025   8.052  0.2084 -0.1701  0.0415
   57MOL    C7118103   3.093   3.041   0.072 -0.1041  0.7666 -0.4129
   57MOL    C7218104   3.004   3.098   0.168  0.1611  0.7073 -0.1812
   57MOL    C7318105   2.878   3.138   0.113  1.3255  0.2933  0.0009
   57MOL    H7418106   2.656   3.289   0.061  2.9918 -0.6097  0.4405
   57MOL    H7518107   2.768   3.359   8.050 -0.5040 -0.6696 -1.1282
   57MOL    H7618108   2.721   3.164   7.922  0.0934 -1.5050 -0.2090
   57MOL    H7718109   2.937   3.058   7.893  0.1787  2.9463 -0.1158
   57MOL    H7818110   3.131   2.986   7.975  2.2523  0.5630  1.3656
   57MOL    H7918111   3.178   2.992   0.116 -0.9512 -1.4320 -1.1013
   57MOL    H8018112   3.009   3.105   0.275 -0.5687 -0.4743 -0.0613
   57MOL    H8118113   2.800   3.161   0.184  2.2692  0.0760  1.1283
   57MOL    C8218114   2.615   3.048   8.080 -0.2128  1.1182 -0.1812
   57MOL    C8318115   2.618   2.923   7.994  0.3874 -0.6928  0.0080
   57MOL    C8418116   2.633   2.795   8.085  0.4521 -0.6301  0.0740
   57MOL    C8518117   2.523   2.723   0.021  0.0322  0.1813 -0.6010
   57MOL    C8618118   2.536   2.604   0.098 -0.2963 -0.0239  0.7340
   57MOL    C8718119   2.665   2.563   0.131 -0.1959  0.1012 -0.5553
   57MOL    C8818120   2.782   2.635   0.094  0.6632 -0.0642  1.0740
   57MOL    C8918121   2.762   2.744   8.112  0.3864  0.0586  0.3675
   57MOL    H9018122   2.510   3.077   8.077  0.1868  2.4820 -0.9328
   57MOL    H9118123   2.627   3.023   0.071  1.2507  1.5153 -0.2403
   57MOL    H9218124   2.710   2.913   7.935  0.1435  1.1754 -0.7158
   57MOL    H9318125   2.420   2.748   0.000  0.5159  2.2185 -0.6670
   57MOL    H9418126   2.453   2.543   0.129  0.3859 -0.6137  1.4281
   57MOL    H9518127   2.660   2.471   0.188  0.2008 -1.1833 -2.5566
   57MOL    H9618128   2.881   2.601   0.118  0.5136 -2.3853 -1.3430
   57MOL    H9718129   2.848   2.797   8.074 -0.7724 -0.2795 -2.9156
   57MOL    C9818130   2.489   2.898   7.910 -0.4233  0.0242  0.4524
   57MOL    C9918131   2.492   2.969   7.768 -0.7533  0.0327  0.7958
   57MOL   C10018132   2.620   2.959   7.689 -0.3769  0.4367 -0.4098
   57MOL   C10118133   2.703   3.078   7.660  0.1394  0.2639  0.6638
   57MOL   C10218134   2.830   3.061   7.623 -0.0927  0.4577 -0.2590
   57MOL   C10318135   2.880   2.934   7.585 -0.2873 -0.3261 -0.3269
   57MOL   C10418136   2.794   2.820   7.597 -0.6568 -0.2672 -0.1855
   57MOL   C10518137   2.667   2.836   7.655  0.1872 -0.1030  0.7147
   57MOL   H10618138   2.402   2.924   7.971  1.3154  0.2829  2.9200
   57MOL   H10718139   2.489   2.791   7.892 -1.9501  0.1995 -0.6314
   57MOL   H10818140   2.505   3.074   7.794  3.5604 -0.8689  2.6864
   57MOL   H10918141   2.674   3.180   7.684  1.3791  0.9816 -0.8279
   57MOL   H11018142   2.899   3.143   7.608 -1.0627  1.4689  0.7843
   57MOL   H11118143   2.973   2.914   7.533  1.3249 -3.9903  3.6396
   57MOL   H11218144   2.829   2.723   7.565 -0.9684  0.6467 -3.4772
   57MOL   H11318145   2.603   2.752   7.679  1.2005 -0.2259  3.1835
   57MOL   C11418146   2.371   2.952   7.673  0.1223 -0.1810 -0.5424
   57MOL   C11518147   2.299   2.815   7.669  0.1521 -0.2299  0.4450
   57MOL   C11618148   2.219   2.780   7.791 -0.5953  0.4448  0.1303
   57MOL   C11718149   2.112   2.858   7.841  0.2674  0.3749 -0.0343
   57MOL   C11818150   2.034   2.814   7.956  0.2791 -0.2311 -0.1679
   57MOL   C11918151   2.052   2.685   8.004 -0.1299  0.9142  0.0836
   57MOL   C12018152   2.159   2.605   7.959 -0.3470  0.1657  0.9375
   57MOL   C12118153   2.244   2.655   7.856 -0.4058  0.5580  0.0843
   57MOL   H12218154   2.414   2.987   7.579 -1.9337 -0.9349 -1.7876
   57MOL   H12318155   2.299   3.025   7.707  1.6820  1.0305  0.2207
   57MOL   H12418156   2.381   2.744   7.659 -0.4230 -0.4127 -4.0411
   57MOL   H12518157   2.097   2.956   7.797 -0.2391 -0.7333 -2.4607
   57MOL   H12618158   1.953   2.881   7.982  0.1856 -0.9017  1.3000
   57MOL   H12718159   1.994   2.646   8.086  0.8219 -1.1951 -0.2199
   57MOL   H12818160   2.183   2.505   7.994  2.0710  0.3769 -0.0734
   57MOL   H12918161   2.307   2.586   7.802 -1.3374 -0.2823  0.0596
   57MOL   C13018162   2.208   2.791   7.542  0.5883  0.7880 -0.3210
   57MOL   C13118163   2.282   2.787   7.409  0.0857  0.1157 -0.1829
   57MOL   C13218164   2.416   2.708   7.404 -0.7615  0.1951  0.3129
   57MOL   C13318165   2.527   2.770   7.345  0.0218  0.2325  0.1227
   57MOL   C13418166   2.649   2.712   7.323 -0.3979 -0.1526 -0.0483
   57MOL   C13518167   2.663   2.579   7.369  0.3874  0.1805 -0.9949
   57MOL   C13618168   2.554   2.512   7.436  0.3563  0.2315  0.2126
   57MOL   C13718169   2.434   2.577   7.448  0.5010 -0.2371 -0.5769
   57MOL   H13818170   2.119   2.854   7.538 -0.0304  0.2392  3.0205
   57MOL   H13918171   2.172   2.688   7.542 -1.4614  1.4706 -0.7413
   57MOL   H14018172   2.321   2.886   7.390  2.4283 -0.4030  1.8098
   57MOL   H14118173   2.513   2.868   7.301  0.8514 -0.9826 -2.9794
   57MOL   H14218174   2.730   2.769   7.279  1.3932 -0.7160  2.3972
   57MOL   H14318175   2.750   2.526   7.334  0.4672  0.5001 -1.2766
   57MOL   H14418176   2.561   2.407   7.460  1.0852  0.6296  1.7984
   57MOL   H14518177   2.354   2.520   7.493 -0.7229  0.1989 -2.1419
   57MOL   C14618178   2.176   2.758   7.298 -0.0542 -0.2071 -0.2150
   57MOL   C14718179   2.209   2.752   7.150 -0.0673 -0.2733  0.1296
   57MOL   C14818180   2.095   2.676   7.070  0.0281  0.4008 -0.1911
   57MOL   C14918181   1.962   2.706   7.096  0.0377  0.4886  0.3027
   57MOL   C15018182   1.859   2.645   7.020 -0.1239 -0.4223 -0.0233
   57MOL   C15118183   1.894   2.546   6.925  0.1795 -0.6293  0.0973
   57MOL   C15218184   2.029   2.518   6.902 -0.5781 -0.5179  0.1419
   57MOL   C15318185   2.128   2.584   6.970  0.4543  1.0098  0.8603
   57MOL   H15418186   2.094   2.830   7.306 -1.9733 -1.9972 -2.9537
   57MOL   H15518187   2.142   2.659   7.328 -0.8551 -0.4769 -1.9234
   57MOL   H15618188   2.292   2.681   7.144  0.4067  0.2554  0.3751
   57MOL   H15718189   1.937   2.772   7.178 -0.4370  0.9728 -0.2261
   57MOL   H15818190   1.760   2.670   7.055  0.4753 -1.1495  2.2309
   57MOL   H15918191   1.815   2.498   6.869 -0.9698  1.0545  0.2071
   57MOL   H16018192   2.062   2.447   6.828  0.9678  1.2745 -0.9347
   57MOL   H16118193   2.233   2.570   6.949  0.2318 -0.3017  0.5717
   57MOL   C16218194   2.250   2.893   7.082 -0.2467  0.8907 -0.4147
   57MOL   C16318195   2.349   2.885   6.963 -0.0636  0.7326 -0.5964
   57MOL   C16418196   2.364   3.021   6.893  0.4892  0.1442 -0.4512
   57MOL   C16518197   2.321   3.046   6.758 -0.1709  0.1048  0.1540
   57MOL   C16618198   2.343   3.176   6.702 -0.0169 -0.2402 -0.3498
   57MOL   C16718199   2.391   3.281   6.779 -0.6322  0.5136 -0.0828
   57MOL   C16818200   2.428   3.257   6.911  0.0089 -0.8296  0.7793
   57MOL   C16918201   2.426   3.125   6.966  0.3623 -0.4894  0.4802
   57MOL   H17018202   2.286   2.962   7.158  2.9792 -0.3167 -0.7518
   57MOL   H17118203   2.151   2.934   7.061 -1.0681  0.6090  2.6367
   57MOL   H17218204   2.302   2.827   6.883  0.8994 -0.9555  0.0381
   57MOL   H17318205   2.276   2.965   6.704  0.8024 -1.4082  1.5405
   57MOL   H17418206   2.313   3.177   6.598 -0.5952  0.6062 -0.1702
   57MOL   H17518207   2.404   3.377   6.731 -2.5857  0.3535 -0.9538
   57MOL   H17618208   2.477   3.343   6.955  0.1693 -0.7322  0.4159
   57MOL   H17718209   2.460   3.122   7.068  2.1805 -0.8377 -0.1287
   57MOL   C17818210   2.483   2.831   7.009 -0.5096  0.4495 -0.5785
   57MOL   C17918211   2.588   2.828   6.891  0.0399  0.1418 -0.1064
   57MOL   C18018212   2.723   2.783   6.945  0.1320 -0.8228  0.0510
   57MOL   C18118213   2.777   2.652   6.948 -0.5023 -0.3640 -0.0583
   57MOL   C18218214   2.899   2.612   7.014  0.0359  0.1038  0.1624
   57MOL   C18318215   2.979   2.718   7.067  0.8352 -0.3451 -0.1077
   57MOL   C18418216   2.927   2.853   7.067 -0.3970  0.3539  0.4194
   57MOL   C18518217   2.799   2.886   7.008 -0.3279  0.0722 -0.7864
   57MOL   H18618218   2.478   2.735   7.060 -1.6363  0.5631 -0.4651
   57MOL   H18718219   2.530   2.899   7.079  0.5902  0.3144 -1.1664
   57MOL   H18818220   2.613   2.924   6.846  0.0013 -0.7069 -1.9783
   57MOL   H18918221   2.727   2.573   6.894 -1.6222 -0.4374  1.0610
   57MOL   H19018222   2.935   2.510   7.013 -1.5885 -0.4706 -0.5841
   57MOL   H19118223   3.076   2.698   7.111  0.7392  0.6475  0.5595
   57MOL   H19218224   2.991   2.924   7.118  2.5718 -0.4938 -2.0099
   57MOL   H19318225   2.753   2.984   7.009  2.8609  1.6277  1.7066
   57MOL   C19418226   2.558   2.753   6.766 -0.4509  0.3986  0.0559
   57MOL   C19518227   2.650   2.786   6.643  0.0725 -0.3507 -0.5642
   57MOL   C19618228   2.693   2.665   6.562  0.0460  0.1901  0.0952
   57MOL   C19718229   2.624   2.627   6.436 -0.5103  0.2516 -0.4330
   57MOL   C19818230   2.656   2.505   6.372 -0.5471 -0.6260 -0.4253
   57MOL   C19918231   2.771   2.435   6.412 -0.3964  0.0771 -0.0654
   57MOL   C20018232   2.845   2.474   6.520  0.0914  0.1524 -0.1074
   57MOL   C20118233   2.807   2.583   6.597  0.3248 -0.2949  0.3510
   57MOL   H20218234   2.455   2.769   6.732  0.7235 -0.2596 -4.1235
   57MOL   H20318235   2.560   2.645   6.784  2.6770  0.4482  0.1557
   57MOL   H20418236   2.747   2.825   6.675  0.7158 -2.6351  0.3829
   57MOL   H20518237   2.529   2.674   6.413 -1.5645 -1.0504  1.1072
   57MOL   H20618238   2.590   2.452   6.304 -0.3857 -0.6459 -0.5674
   57MOL   H20718239   2.806   2.347   6.359 -1.4091 -0.9831  0.9892
   57MOL   H20818240   2.933   2.416   6.545 -0.0937  0.4844  1.3624
   57MOL   H20918241   2.872   2.606   6.680 -0.0259 -1.9875  1.1291
   57MOL   C21018242   2.589   2.903   6.559  0.3189  0.1408  0.0843
   57MOL   C21118243   2.681   2.969   6.450 -0.7543  0.2151  0.4284
   57MOL   C21218244   2.601   2.958   6.318  0.3239  0.1367  0.1467
   57MOL   C21318245   2.478   3.031   6.291 -0.0931 -1.0002  0.2759
   57MOL   C21418246   2.406   3.013   6.172 -0.2849 -0.2203  0.4808
   57MOL   C21518247   2.461   2.928   6.072  0.2646 -0.5281  0.0221
   57MOL   C21618248   2.576   2.858   6.097  0.6250 -0.0437 -0.1724
   57MOL   C21718249   2.644   2.864   6.220 -0.6987 -0.3437 -0.0045
   57MOL   H21818250   2.556   2.976   6.632  1.0837  0.7679 -0.1826
   57MOL   H21918251   2.497   2.868   6.512  0.4027  0.0761 -0.0333
   57MOL   H22018252   2.761   2.902   6.420 -0.4667  1.1635 -1.0051
   57MOL   H22118253   2.425   3.096   6.359 -0.3792 -0.6936 -0.2286
   57MOL   H22218254   2.306   3.052   6.164 -0.7396 -0.9508  2.2925
   57MOL   H22318255   2.405   2.918   5.980  0.8144 -0.0787 -0.3584
   57MOL   H22418256   2.615   2.797   6.016 -0.8326 -3.3660  1.5041
   57MOL   H22518257   2.720   2.789   6.235  0.1375  0.1265 -1.8131
   57MOL   C22618258   2.742   3.114   6.478  0.2333 -0.1868  0.4091
   57MOL   C22718259   2.857   3.116   6.582 -0.6707 -0.6090 -0.1679
   57MOL   C22818260   2.975   3.018   6.558  0.0867 -0.2062  0.0894
   57MOL   C22918261   3.039   2.995   6.437  0.3179 -0.4675  0.0075
   57MOL   C23018262   3.154   2.911   6.428 -0.7553  0.2393  0.5161
   57MOL   C23118263   3.203   2.836   6.538 -0.1031 -0.4217  0.9165
   57MOL   C23218264   3.129   2.855   6.661 -0.1653 -0.8272 -0.6358
   57MOL   C23318265   3.020   2.946   6.673 -0.6439 -0.5983  0.6565
   57MOL   H23418266   2.661   3.181   6.504 -0.0800 -0.6325  0.5902
   57MOL   H23518267   2.791   3.143   6.385  1.1435 -1.1472  0.5760
   57MOL   H23618268   2.798   3.102   6.673  1.2198  2.4056  1.6072
   57MOL   H23718269   3.000   3.048   6.352 -2.2433 -2.1060  0.1184
   57MOL   H23818270   3.205   2.911   6.333 -0.2276  0.8196  0.7925
   57MOL   H23918271   3.298   2.787   6.530 -0.1242 -0.4958  1.1240
   57MOL   H24018272   3.161   2.811   6.754  0.3020  0.5419 -0.1404
   57MOL   H24118273   2.999   2.976   6.774 -0.4026 -1.8410  1.0832
   57MOL   C24218274   2.915   3.259   6.604  0.0525  0.6901  0.2415
   57MOL   C24318275   3.013   3.291   6.717 -0.5923  0.1736  0.7892
   57MOL   C24418276   3.093   3.420   6.693  0.2323 -0.1543 -0.1800
   57MOL   C24518277   3.233   3.422   6.694  0.1834 -0.5913 -0.2970
   57MOL   C24618278   3.304   3.545   6.696 -0.1138  0.0581 -0.4296
   57MOL   C24718279   3.227   3.662   6.669  0.4040 -0.2198  0.2257
   57MOL   C24818280   3.090   3.662   6.650  0.6116  0.4200 -0.1048
   57MOL   C24918281   3.022   3.542   6.659  0.5747  0.4762 -0.1414
   57MOL   H25018282   2.826   3.322   6.600 -0.2256  0.3736  1.3808
   57MOL   H25118283   2.973   3.287   6.516  1.6997  0.1131  1.1415
   57MOL   H25218284   3.097   3.222   6.707 -2.3143 -1.8446 -0.0311
   57MOL   H25318285   3.280   3.327   6.713 -0.4291 -0.3617  2.4882
   57MOL   H25418286   3.410   3.559   6.689  0.1228 -1.5649 -0.2682
   57MOL   H25518287   3.292   3.748   6.661  0.1733 -0.1502 -0.9571
   57MOL   H25618288   3.028   3.750   6.635  0.5311  0.8123  2.3112
   57MOL   H25718289   2.916   3.550   6.641  0.6140  2.2769  0.3114
   57MOL   C25818290   2.944   3.286   6.852  0.1587 -0.4081 -0.2662
   57MOL   C25918291   3.039   3.294   6.983 -0.1516 -0.3329  0.1648
   57MOL   C26018292   2.957   3.312   7.115  0.1438  0.4270  0.8208
   57MOL   C26118293   2.834   3.243   7.135 -0.9447  0.2671 -1.0158
   57MOL   C26218294   2.783   3.239   7.262  0.0404  0.0244  0.0241
   57MOL   C26318295   2.828   3.328   7.362 -0.1709  0.6205  0.9867
   57MOL   C26418296   2.934   3.420   7.329 -0.7560 -0.1875  0.4750
   57MOL   C26518297   3.002   3.406   7.209 -0.1851 -0.5461 -0.2678
   57MOL   H26618298   2.879   3.199   6.856  0.6494 -0.7397  0.5059
   57MOL   H26718299   2.870   3.367   6.850  2.1082  1.4274  0.0133
   57MOL   H26818300   3.107   3.378   6.974  0.0741 -0.5250  0.0609
   57MOL   H26918301   2.792   3.173   7.064 -1.0865 -2.7109  1.8756
   57MOL   H27018302   2.704   3.170   7.289  1.6024 -1.5286  0.7150
   57MOL   H27118303   2.780   3.332   7.459 -1.3308  0.2114  0.4474
   57MOL   H27218304   2.973   3.493   7.398  2.8939 -1.3068 -0.2884
   57MOL   H27318305   3.090   3.466   7.194 -1.5987  1.7302  0.2713
   57MOL   C27418306   3.117   3.159   6.993  0.4032 -0.2284  0.2897
   57MOL   C27518307   3.204   3.136   7.115 -0.4335  0.0648  0.0279
   57MOL   C27618308   3.248   2.992   7.123  0.3993 -0.3040  0.6558
   57MOL   C27718309   3.212   2.906   7.232 -0.1166 -0.2922  0.1883
   57MOL   C27818310   3.265   2.776   7.240 -0.1531  0.0284 -0.2923
   57MOL   C27918311   3.338   2.729   7.128  0.1476  0.0178 -0.1624
   57MOL   C28018312   3.368   2.813   7.021 -0.3253  0.4651 -1.2994
   57MOL   C28118313   3.318   2.942   7.014 -0.4569 -0.3835 -0.3646
   57MOL   H28218314   3.177   3.155   6.901 -0.5239  0.3596 -0.3500
   57MOL   H28318315   3.042   3.080   6.982  0.3035 -0.2770  1.3143
   57MOL   H28418316   3.140   3.150   7.202 -0.7335 -0.0056 -0.1787
   57MOL   H28518317   3.164   2.938   7.323 -0.2062  0.7766 -0.2213
   57MOL   H28618318   3.257   2.717   7.329  2.3469  1.1414  0.7223
   57MOL   H28718319   3.379   2.629   7.136  3.3673  1.1471 -1.8558
   57MOL   H28818320   3.431   2.776   6.942  0.4894 -0.6595 -0.1512
   57MOL   H28918321   3.350   2.998   6.928  0.4111 -1.6330 -0.8788
   57MOL   C29018322   3.331   3.234   7.108 -0.2478 -0.0124  0.1753
   57MOL   C29118323   3.417   3.224   7.236 -0.0339  0.2248  0.1147
   57MOL   C29218324   3.547   3.301   7.220 -0.1853 -0.3061  0.8468
   57MOL   C29318325   3.547   3.440   7.245 -0.0078  0.1473 -0.4571
   57MOL   C29418326   3.657   3.515   7.197  0.0969  0.0293  0.1892
   57MOL   C29518327   3.769   3.452   7.147 -0.2745 -0.4479  0.0283
   57MOL   C29618328   3.778   3.314   7.138  0.8885  0.4563 -0.6563
   57MOL   C29718329   3.666   3.233   7.176 -0.2233  0.1464  0.2326
   57MOL   H29818330   3.304   3.339   7.101  0.1479  0.0073 -1.2539
   57MOL   H29918331   3.397   3.208   7.025  0.6663  1.0593  0.5611
   57MOL   H30018332   3.449   3.120   7.246  1.3024  0.8762  3.3044
   57MOL   H30118333   3.452   3.489   7.255  0.5161  0.8896  0.8786
   57MOL   H30218334   3.649   3.622   7.203 -0.3375 -0.0090  0.3255
   57MOL   H30318335   3.850   3.511   7.108  0.9250 -3.3681 -2.1087
   57MOL   H30418336   3.873   3.266   7.124  1.9663  1.9618  1.2086
   57MOL   H30518337   3.671   3.126   7.164  2.5198  0.2873 -0.3036
   57MOL   C30618338   3.335   3.260   7.361 -0.6455 -0.0536  0.1576
   57MOL   C30718339   3.406   3.279   7.494 -0.3532 -0.1277  0.1678
   57MOL   C30818340   3.304   3.302   7.612  0.2199 -0.2460 -0.1727
   57MOL   C30918341   3.191   3.385   7.601  0.2762 -0.0303 -0.5485
   57MOL   C31018342   3.093   3.379   7.706 -0.0376  0.2476  0.7768
   57MOL   C31118343   3.112   3.307   7.825  1.0784 -0.0044  0.4582
   57MOL   C31218344   3.235   3.236   7.837  0.4531  0.9766  0.5228
   57MOL   C31318345   3.328   3.236   7.733  0.1635  0.3103 -0.7410
   57MOL   H31418346   3.260   3.183   7.376  0.8406 -1.1614  2.1738
   57MOL   H31518347   3.275   3.351   7.346 -2.1082 -0.9282  0.5701
   57MOL   H31618348   3.482   3.356   7.478 -0.9952  0.8549  1.6865
   57MOL   H31718349   3.183   3.435   7.506  0.1045 -0.2453 -0.6455
   57MOL   H31818350   3.015   3.451   7.686  0.0741 -0.0449 -0.7776
   57MOL   H31918351   3.038   3.304   7.904 -2.3134 -1.9061 -2.6610
   57MOL   H32018352   3.263   3.175   7.922  0.0324  0.4538  0.2938
   57MOL   H32118353   3.413   3.170   7.743 -1.0418 -1.4186 -1.7242
   57MOL   H32218354   3.467   3.189   7.507 -1.5614 -0.8832  0.6739
   58MOL     C118355   5.683   6.517   1.591  0.3390  0.1380 -0.3002
   58MOL     C218356   5.654   6.529   1.440 -0.1829  0.0511 -0.8971
   58MOL     C318357   5.618   6.667   1.393 -0.8959 -0.5072  0.1483
   58MOL     C418358   5.708   6.772   1.410  0.5383  0.4513  0.2063
   58MOL     C518359   5.670   6.906   1.398 -0.5415 -0.1175 -0.1854
   58MOL     C618360   5.543   6.935   1.344 -0.3166 -0.6408 -0.0720
   58MOL     C718361   5.453   6.832   1.317  0.3487 -0.1039  0.1727
   58MOL     C818362   5.493   6.694   1.336 -0.2474 -0.3259  0.0238
   58MOL     H918363   5.764   6.582   1.625 -0.2310  0.6541  0.0750
   58MOL    H1018364   5.595   6.521   1.655 -1.5933 -1.3834 -2.7929
   58MOL    H1118365   5.561   6.477   1.419 -0.3574 -0.5127  1.2214
   58MOL    H1218366   5.807   6.750   1.446 -0.2088 -1.8753  0.8872
   58MOL    H1318367   5.743   6.983   1.419 -1.8683  1.1493 -0.1256
   58MOL    H1418368   5.515   7.038   1.329 -0.7533 -0.5353  1.3785
   58MOL    H1518369   5.355   6.867   1.288  0.9273  2.3255  1.0278
   58MOL    H1618370   5.431   6.608   1.323  1.2034 -1.3839 -0.0040
   58MOL    H1718371   5.721   6.418   1.617 -2.1808 -1.0784 -1.1191
   58MOL    C1818372   5.768   6.478   1.348 -0.2046  0.1947 -0.4174
   58MOL    C1918373   5.781   6.326   1.343  0.1744  0.4032 -0.1488
   58MOL    C2018374   5.653   6.253   1.310 -0.0380  0.3132 -0.2740
   58MOL    C2118375   5.612   6.239   1.173 -0.0017 -0.3186  0.7403
   58MOL    C2218376   5.496   6.164   1.137  0.1460 -0.0111 -0.3297
   58MOL    C2318377   5.430   6.097   1.239 -0.3195  1.0582  0.3030
   58MOL    C2418378   5.473   6.103   1.373 -0.0246 -0.9229 -0.7866
   58MOL    C2518379   5.579   6.183   1.407 -0.5138  0.3630  0.2156
   58MOL    H2618380   5.857   6.532   1.379 -1.2027  0.7890  1.4945
   58MOL    H2718381   5.738   6.503   1.246 -0.3359  1.9759  0.0499
   58MOL    H2818382   5.820   6.297   1.440  1.0004 -0.9704 -0.8794
   58MOL    H2918383   5.675   6.281   1.096  2.1587 -2.2805  1.4029
   58MOL    H3018384   5.449   6.147   1.041 -1.5718 -1.6324  0.7563
   58MOL    H3118385   5.347   6.035   1.210  1.9050 -0.6115 -2.7814
   58MOL    H3218386   5.412   6.050   1.444 -0.8048 -1.3035 -1.7291
   58MOL    H3318387   5.605   6.185   1.512  0.3620 -0.2663  0.0143
   58MOL    C3418388   5.897   6.277   1.247  0.0501 -0.0330 -0.0498
   58MOL    C3518389   6.049   6.306   1.287  0.1815 -0.5329 -0.6604
   58MOL    C3618390   6.101   6.223   1.399 -0.3697  0.1594  0.2998
   58MOL    C3718391   6.055   6.092   1.430 -0.3942 -0.5151  1.4171
   58MOL    C3818392   6.109   6.017   1.535  0.5756  0.1710 -0.4435
   58MOL    C3918393   6.214   6.072   1.611  0.1114 -0.6730  0.9155
   58MOL    C4018394   6.273   6.198   1.574  0.4481 -0.0924  0.1665
   58MOL    C4118395   6.207   6.276   1.470 -0.2115  0.2935 -0.1029
   58MOL    H4218396   5.876   6.324   1.151 -0.1157 -2.9016 -1.4686
   58MOL    H4318397   5.883   6.170   1.233 -0.7066  0.2527 -1.5305
   58MOL    H4418398   6.049   6.409   1.321  0.1332 -0.7251 -0.0664
   58MOL    H4518399   5.967   6.046   1.386 -0.5692 -0.9038  2.1683
   58MOL    H4618400   6.070   5.922   1.569  1.4810  0.9128  2.7612
   58MOL    H4718401   6.263   6.023   1.694  0.1280 -1.8582  0.2116
   58MOL    H4818402   6.354   6.241   1.632  0.4138 -0.9355  0.8560
   58MOL    H4918403   6.252   6.369   1.439  1.5090  0.4667  2.7599
   58MOL    C5018404   6.146   6.300   1.164  0.1506 -0.6526  0.1488
   58MOL    C5118405   6.136   6.423   1.075  0.4259  0.5565 -0.1630
   58MOL    C5218406   6.154   6.556   1.150  0.0178 -0.0865 -0.4470
   58MOL    C5318407   6.272   6.582   1.223 -0.1913 -0.2154  0.2747
   58MOL    C5418408   6.285   6.696   1.304  0.5278  0.4116 -0.2945
   58MOL    C5518409   6.183   6.786   1.321 -0.3306  1.1279  0.8706
   58MOL    C5618410   6.064   6.764   1.243 -0.1772  0.1500  0.7704
   58MOL    C5718411   6.049   6.654   1.161 -0.5198  0.3673  0.2765
   58MOL    H5818412   6.128   6.214   1.099 -1.5471  0.3898 -0.8051
   58MOL    H5918413   6.247   6.291   1.204 -0.3356 -0.9310  1.3472
   58MOL    H6018414   6.032   6.420   1.039 -0.4509 -1.9354  2.3912
   58MOL    H6118415   6.352   6.510   1.228  0.2220  0.2123 -0.1056
   58MOL    H6218416   6.372   6.721   1.362  0.3751  0.4930 -0.0994
   58MOL    H6318417   6.191   6.865   1.394 -0.3698  2.6253 -0.7138
   58MOL    H6418418   5.975   6.823   1.255  0.1814  0.7877  0.3338
   58MOL    H6518419   5.955   6.641   1.110 -0.7521 -1.0030  1.0259
   58MOL    C6618420   6.230   6.406   0.951  0.1229  0.4964 -0.5319
   58MOL    C6718421   6.180   6.324   0.829  0.4847 -0.2138 -0.4515
   58MOL    C6818422   6.038   6.365   0.805  0.0332 -0.5074  0.6208
   58MOL    C6918423   6.004   6.501   0.778  0.0757  0.1002  0.0439
   58MOL    C7018424   5.870   6.537   0.757 -0.2748  0.6146  0.4822
   58MOL    C7118425   5.772   6.437   0.733  0.4533  0.2953 -0.3202
   58MOL    C7218426   5.801   6.304   0.762  0.2231  0.4138  0.4471
   58MOL    C7318427   5.933   6.267   0.799  0.4796  0.4288  0.2029
   58MOL    H7418428   6.316   6.349   0.986 -0.7407  0.3708  1.4408
   58MOL    H7518429   6.277   6.501   0.925  1.5760  0.1930  0.8927
   58MOL    H7618430   6.184   6.216   0.844  1.1825  0.1296  2.0096
   58MOL    H7718431   6.069   6.585   0.796 -0.8123  0.4905  1.5795
   58MOL    H7818432   5.846   6.640   0.736 -0.9134  0.2498 -0.6785
   58MOL    H7918433   5.681   6.464   0.682 -0.3712 -1.8710 -0.0454
   58MOL    H8018434   5.734   6.219   0.763  0.5250  0.1080 -1.8142
   58MOL    H8118435   5.957   6.165   0.821 -0.4070 -0.3485 -2.2063
   58MOL    C8218436   6.267   6.348   0.704  0.5437 -0.4890 -0.3396
   58MOL    C8318437   6.404   6.277   0.715 -0.3728 -0.2718 -0.0356
   58MOL    C8418438   6.399   6.132   0.766  0.1159  0.5453  0.1259
   58MOL    C8518439   6.427   6.102   0.903 -0.0039 -0.2409  0.4492
   58MOL    C8618440   6.429   5.968   0.950  0.3726 -0.2414 -0.2828
   58MOL    C8718441   6.395   5.859   0.864  0.5022 -0.1707  0.0411
   58MOL    C8818442   6.359   5.890   0.731  0.5934  0.2311  0.6269
   58MOL    C8918443   6.361   6.025   0.681 -0.2502 -0.8800  0.0605
   58MOL    H9018444   6.273   6.456   0.690 -0.9446 -0.3933 -0.3584
   58MOL    H9118445   6.215   6.303   0.620 -2.0879  1.4679  0.1625
   58MOL    H9218446   6.450   6.338   0.793 -0.9496  0.5861 -0.3682
   58MOL    H9318447   6.464   6.178   0.970  0.4061 -1.4236  1.5798
   58MOL    H9418448   6.447   5.926   1.048 -0.1292  1.6248  0.6141
   58MOL    H9518449   6.397   5.758   0.899 -0.1780 -0.5054 -0.8612
   58MOL    H9618450   6.316   5.814   0.666  1.4785  0.1398  0.1296
   58MOL    H9718451   6.330   6.049   0.580 -1.2402  0.2338  0.6269
   58MOL    C9818452   6.479   6.295   0.583 -0.6881  0.3566 -0.2212
   58MOL    C9918453   6.619   6.227   0.579 -0.5473 -0.2388 -0.0349
   58MOL   C10018454   6.675   6.236   0.438 -0.3267  0.4806 -0.5111
   58MOL   C10118455   6.734   6.352   0.399 -0.1520  0.4057 -0.5715
   58MOL   C10218456   6.801   6.365   0.280 -0.1305 -0.1056 -0.2845
   58MOL   C10318457   6.796   6.259   0.189 -0.2242 -0.3659  0.5885
   58MOL   C10418458   6.719   6.146   0.220  0.2289  0.2571 -0.3372
   58MOL   C10518459   6.648   6.136   0.340  0.2017  0.2454  1.5850
   58MOL   H10618460   6.479   6.397   0.544 -1.0659  0.8651  1.0878
   58MOL   H10718461   6.425   6.248   0.500  2.0329 -1.7959 -0.8507
   58MOL   H10818462   6.596   6.121   0.597 -1.8278  0.0623  0.1603
   58MOL   H10918463   6.735   6.439   0.464  0.5449 -1.5910  2.1556
   58MOL   H11018464   6.849   6.459   0.255 -0.6047  0.1463 -0.2596
   58MOL   H11118465   6.841   6.263   0.091  0.8434  3.2818  1.1517
   58MOL   H11218466   6.691   6.074   0.145  1.5888 -1.6503  0.9281
   58MOL   H11318467   6.592   6.049   0.371  2.1404 -2.5623 -2.4404
   58MOL   C11418468   6.721   6.273   0.685 -0.3906  0.0731 -0.3677
   58MOL   C11518469   6.859   6.208   0.679 -0.7579 -0.9542 -0.0460
   58MOL   C11618470   6.960   6.271   0.776 -0.2351 -1.0131  0.8291
   58MOL   C11718471   7.083   6.313   0.722 -0.2416 -0.4315 -0.1066
   58MOL   C11818472   7.191   6.342   0.810 -0.0582  0.3030  0.4172
   58MOL   C11918473   7.180   6.323   0.952  0.0270 -0.5796  0.1389
   58MOL   C12018474   7.055   6.289   0.996  0.2154  0.2584  0.1364
   58MOL   C12118475   6.947   6.258   0.913 -0.2187 -0.2642 -0.3399
   58MOL   H12218476   6.685   6.249   0.785  0.3842 -2.2867 -0.6196
   58MOL   H12318477   6.715   6.382   0.682  0.2599  0.1036 -0.7829
   58MOL   H12418478   6.893   6.225   0.577 -1.0085  1.1829  0.2104
   58MOL   H12518479   7.085   6.327   0.615 -0.9104 -1.5027 -0.2632
   58MOL   H12618480   7.284   6.365   0.760 -0.1562 -2.5925 -1.2235
   58MOL   H12718481   7.260   6.321   1.024 -0.5514 -0.7318  0.7871
   58MOL   H12818482   7.043   6.269   1.101  2.0660  1.8936  0.6995
   58MOL   H12918483   6.854   6.222   0.955 -0.0474 -0.6875 -0.3222
   58MOL   C13018484   6.858   6.048   0.689  0.1668 -0.0991  0.2312
   58MOL   C13118485   6.935   5.975   0.573  0.0393  0.6934  0.0779
   58MOL   C13218486   7.083   5.976   0.593 -0.2766 -0.2675  0.9446
   58MOL   C13318487   7.144   5.879   0.677  0.9057  0.3841  0.0723
   58MOL   C13418488   7.276   5.876   0.684 -0.2146  0.3776  0.4093
   58MOL   C13518489   7.358   5.975   0.625 -0.1428  0.3566 -0.3954
   58MOL   C13618490   7.299   6.078   0.547  0.1751 -0.5659  0.3047
   58MOL   C13718491   7.159   6.076   0.527  0.2635  0.0656  0.4146
   58MOL   H13818492   6.758   6.007   0.678  0.3901 -0.2627 -1.2170
   58MOL   H13918493   6.910   6.014   0.779 -1.0348  2.2372  1.8775
   58MOL   H14018494   6.917   6.019   0.475 -1.0627  0.9583  0.3912
   58MOL   H14118495   7.092   5.793   0.715  0.0434 -0.1433 -2.1925
   58MOL   H14218496   7.316   5.796   0.745  0.9871 -0.6384 -1.6712
   58MOL   H14318497   7.464   5.972   0.647 -1.3554  0.1076  6.2278
   58MOL   H14418498   7.358   6.151   0.494 -0.6234  0.0713  0.2847
   58MOL   H14518499   7.105   6.153   0.474  2.4768  0.7591 -0.9165
   58MOL   C14618500   6.871   5.833   0.550 -0.0967  0.5566 -0.8317
   58MOL   C14718501   6.923   5.727   0.448 -0.4695 -0.3741 -0.6072
   58MOL   C14818502   6.847   5.600   0.450 -1.0670  0.1094 -0.5483
   58MOL   C14918503   6.712   5.601   0.441 -0.0386 -0.3554 -0.6053
   58MOL   C15018504   6.631   5.484   0.426  0.1681  0.0171 -0.0368
   58MOL   C15118505   6.705   5.360   0.421 -0.0230 -0.0966  0.2044
   58MOL   C15218506   6.840   5.350   0.438  0.5211  0.0437  0.1894
   58MOL   C15318507   6.913   5.473   0.447 -0.0929 -0.3093 -0.0324
   58MOL   H15418508   6.775   5.859   0.504 -0.3736  0.2551 -0.4231
   58MOL   H15518509   6.872   5.793   0.651 -1.3326  2.2377 -0.1184
   58MOL   H15618510   7.025   5.702   0.476  0.3407  1.5945 -1.7405
   58MOL   H15718511   6.653   5.691   0.443 -0.3580 -0.5825  1.7203
   58MOL   H15818512   6.527   5.483   0.399 -0.1094 -1.4164  1.0379
   58MOL   H15918513   6.646   5.273   0.400 -2.0197  1.4935 -0.9972
   58MOL   H16018514   6.894   5.256   0.435 -1.6204 -1.1742 -3.4592
   58MOL   H16118515   7.019   5.463   0.459 -0.3469 -0.4830  2.2861
   58MOL   C16218516   6.921   5.779   0.306 -0.0571  0.1144 -1.0773
   58MOL   C16318517   7.061   5.840   0.256  0.9591 -0.3564 -0.2478
   58MOL   C16418518   7.191   5.758   0.275  0.8586  0.1553 -0.0418
   58MOL   C16518519   7.200   5.623   0.223 -0.4659 -0.2107 -0.7362
   58MOL   C16618520   7.326   5.551   0.222  0.0185 -0.1365  0.1723
   58MOL   C16718521   7.434   5.607   0.290 -0.2961  0.0743  0.1784
   58MOL   C16818522   7.419   5.734   0.334  0.1285 -0.1869  0.5606
   58MOL   C16918523   7.308   5.813   0.328  0.1695  0.2236  0.0801
   58MOL   H17018524   6.830   5.837   0.291 -0.1568  0.4945  0.8541
   58MOL   H17118525   6.917   5.690   0.245  1.3749 -0.0301 -0.9864
   58MOL   H17218526   7.082   5.934   0.308 -1.7078  1.4782 -2.3047
   58MOL   H17318527   7.108   5.572   0.198 -2.1286  1.5896  1.4747
   58MOL   H17418528   7.331   5.455   0.173  3.3117  0.4409 -0.7158
   58MOL   H17518529   7.529   5.556   0.292  0.9454  2.1804 -2.4243
   58MOL   H17618530   7.508   5.781   0.374  0.3524 -0.3254  0.2244
   58MOL   H17718531   7.321   5.919   0.344 -0.3217  0.4088 -0.7169
   58MOL   C17818532   7.044   5.867   0.104 -0.2681  0.3951 -0.3581
   58MOL   C17918533   7.163   5.927   0.032 -0.5250  0.1459  0.0614
   58MOL   C18018534   7.185   5.871   8.007  0.3372 -0.5419 -0.4308
   58MOL   C18118535   7.097   5.905   7.901  0.3317 -0.4529 -0.0063
   58MOL   C18218536   7.115   5.846   7.778  0.3244 -0.0909  0.3551
   58MOL   C18318537   7.225   5.767   7.746 -0.4535 -0.4203 -0.2092
   58MOL   C18418538   7.309   5.734   7.851 -0.1757  0.2058 -0.2281
   58MOL   C18518539   7.292   5.783   7.980  0.0637 -0.5599  0.7303
   58MOL   H18618540   6.954   5.925   0.082  0.4703  2.3726  1.5756
   58MOL   H18718541   7.043   5.772   0.051  0.1436 -0.7128  1.5712
   58MOL   H18818542   7.254   5.901   0.086  0.7659 -2.8160 -3.3619
   58MOL   H18918543   7.003   5.952   7.925  1.5947  1.0021  2.3172
   58MOL   H19018544   7.045   5.857   7.697  0.4898 -0.0227  0.2227
   58MOL   H19118545   7.242   5.746   7.641 -0.7209 -0.3850 -0.2587
   58MOL   H19218546   7.393   5.670   7.830 -1.7393 -2.0956  0.3506
   58MOL   H19318547   7.359   5.743   8.055 -1.7404 -1.9355  1.6486
   58MOL   C19418548   7.146   6.075   0.028  0.2764  0.1545  0.4744
   58MOL   C19518549   7.277   6.152   8.112  0.2445 -0.2252  0.6776
   58MOL   C19618550   7.248   6.297   8.067  0.0868 -0.1488  0.2764
   58MOL   C19718551   7.252   6.337   7.933  1.1805 -1.4350  0.2153
   58MOL   C19818552   7.207   6.474   7.899  0.2861  0.1585  0.4606
   58MOL   C19918553   7.174   6.562   7.999  0.5428  0.3540 -0.4826
   58MOL   C20018554   7.167   6.517   0.015 -0.3832 -0.0422  0.2205
   58MOL   C20118555   7.206   6.385   0.051  0.0359 -0.5023  0.0941
   58MOL   H20218556   7.116   6.102   0.129 -1.3652  0.6586 -0.1389
   58MOL   H20318557   7.057   6.109   8.089 -0.2399 -0.5545  0.8700
   58MOL   H20418558   7.319   6.110   8.020  1.4744 -0.0560  1.1486
   58MOL   H20518559   7.281   6.262   7.861  0.5727  0.1727 -1.7289
   58MOL   H20618560   7.208   6.510   7.797  0.0284  1.4753  0.9219
   58MOL   H20718561   7.150   6.663   7.970  2.0672  0.4411 -1.4836
   58MOL   H20818562   7.140   6.576   0.101 -0.7825 -1.4432  1.0803
   58MOL   H20918563   7.184   6.345   0.149  0.8380  0.5695  0.7247
   58MOL   C21018564   7.384   6.135   0.109 -0.4313 -0.1211 -0.3427
   58MOL   C21118565   7.514   6.216   0.098  0.4566 -0.5813 -0.6315
   58MOL   C21218566   7.581   6.217   0.232 -0.5309 -0.1084  0.6970
   58MOL   C21318567   7.650   6.101   0.274  0.0915 -0.8578  0.4939
   58MOL   C21418568   7.707   6.102   0.405 -0.2079  0.1414  0.0835
   58MOL   C21518569   7.692   6.218   0.490 -0.2879 -0.8446  0.5143
   58MOL   C21618570   7.617   6.326   0.452  0.3145 -0.0900  0.0432
   58MOL   C21718571   7.572   6.328   0.321 -1.1928  0.4108 -0.6004
   58MOL   H21818572   7.425   6.034   0.110  1.2739  0.5059  4.2794
   58MOL   H21918573   7.352   6.162   0.209  0.5265  0.8302 -0.2817
   58MOL   H22018574   7.486   6.321   0.086 -0.4364 -0.7569 -0.1532
   58MOL   H22118575   7.652   6.008   0.219 -0.2931 -0.1488 -0.7258
   58MOL   H22218576   7.753   6.012   0.442  0.6466  0.8248  0.6952
   58MOL   H22318577   7.722   6.218   0.594 -0.7623 -1.5841  0.6540
   58MOL   H22418578   7.585   6.404   0.520 -0.7347 -1.4872  1.1666
   58MOL   H22518579   7.520   6.418   0.290 -0.5272  1.0146  0.0256
   58MOL   C22618580   7.614   6.170   8.110 -0.6313  0.1728  0.2124
   58MOL   C22718581   7.621   6.265   7.977  0.1562  0.5091  0.5982
   58MOL   C22818582   7.672   6.404   8.011  1.1559 -0.1691 -0.1262
   58MOL   C22918583   7.585   6.514   7.995 -0.2888  0.1779  0.7446
   58MOL   C23018584   7.617   6.644   8.032  0.2240 -0.1391  1.2811
   58MOL   C23118585   7.748   6.675   8.091 -0.7884  0.3502  0.1161
   58MOL   C23218586   7.832   6.559   8.098 -0.1608  0.2236 -0.5244
   58MOL   C23318587   7.800   6.430   8.055 -0.3387  0.1229 -0.4446
   58MOL   H23418588   7.589   6.068   8.082  1.9857 -0.8214  1.3300
   58MOL   H23518589   7.713   6.168   0.040 -0.0435 -2.3413 -1.1045
   58MOL   H23618590   7.518   6.266   7.939  0.6071 -2.5294 -0.9263
   58MOL   H23718591   7.487   6.490   7.957  0.1299 -2.0151  0.9563
   58MOL   H23818592   7.543   6.721   8.016  1.4338  1.1458  1.7661
   58MOL   H23918593   7.777   6.774   0.008  0.5604 -0.0168  0.0581
   58MOL   H24018594   7.929   6.573   0.028  0.8956 -0.9399 -2.3796
   58MOL   H24118595   7.867   6.347   8.068 -0.6968 -0.1484 -0.3436
   58MOL   C24218596   7.734   6.201   7.887  1.5959 -0.0281 -0.1893
   58MOL   C24318597   7.687   6.072   7.815  0.6605  0.2662  0.1453
   58MOL   C24418598   7.590   6.097   7.698  0.2998 -0.6129 -0.1270
   58MOL   C24518599   7.645   6.165   7.589  0.3659  0.8266 -0.0429
   58MOL   C24618600   7.569   6.186   7.471  0.0400 -0.7261 -0.0524
   58MOL   C24718601   7.440   6.137   7.467 -0.3670 -0.3847  0.2343
   58MOL   C24818602   7.382   6.062   7.574 -1.0058 -0.9543  0.1566
   58MOL   C24918603   7.458   6.045   7.688 -0.3197 -1.0073 -0.2663
   58MOL   H25018604   7.824   6.176   7.944  0.7462 -0.5692  0.9339
   58MOL   H25118605   7.775   6.254   7.802 -0.2189 -0.7603 -1.5507
   58MOL   H25218606   7.633   6.005   7.881  1.8414 -0.9919 -0.1351
   58MOL   H25318607   7.741   6.216   7.593  0.2752  0.8918  1.6523
   58MOL   H25418608   7.613   6.248   7.394  0.1813  0.6405  1.1087
   58MOL   H25518609   7.369   6.144   7.386  0.4040  1.9840 -0.2765
   58MOL   H25618610   7.286   6.013   7.574 -0.8722 -1.2624 -2.0657
   58MOL   H25718611   7.409   5.995   7.770 -2.6202 -0.6730 -1.3910
   58MOL   C25818612   7.816   6.002   7.758  0.7944  0.7618 -0.1692
   58MOL   C25918613   7.892   5.917   7.866  0.2708  0.3904  0.1798
   58MOL   C26018614   7.791   5.840   7.950 -0.1968 -0.2077  0.0054
   58MOL   C26118615   7.728   5.730   7.892 -0.2252  0.4351  0.2037
   58MOL   C26218616   7.638   5.649   7.964  0.1742 -0.1165  0.2640
   58MOL   C26318617   7.617   5.674   8.096 -0.1637 -0.3031  0.0393
   58MOL   C26418618   7.689   5.779   0.044 -0.4310  0.1069 -0.4456
   58MOL   C26518619   7.769   5.861   8.084  0.1899  0.5649  0.0858
   58MOL   H26618620   7.886   6.068   7.708 -0.2609  1.7630 -0.3332
   58MOL   H26718621   7.789   5.936   7.676 -1.4819 -0.3398  1.3971
   58MOL   H26818622   7.937   5.994   7.928  0.1614 -0.3419  1.1876
   58MOL   H26918623   7.721   5.702   7.788  1.0189 -0.3236  0.3262
   58MOL   H27018624   7.590   5.568   7.912 -1.0051 -0.5724  2.0214
   58MOL   H27118625   7.554   5.601   0.032  0.3875 -0.7034  0.1456
   58MOL   H27218626   7.672   5.799   0.148 -0.0396  2.6674 -0.8327
   58MOL   H27318627   7.824   5.937   0.023 -1.5332  0.9017  1.4204
   58MOL   C27418628   8.010   5.821   7.808 -0.6264 -0.5550 -0.4622
   58MOL   C27518629   0.013   5.892   7.744 -0.2882 -0.1140 -0.0221
   58MOL   C27618630   0.084   5.993   7.832 -0.3911 -0.1582 -0.4204
   58MOL   C27718631   0.109   5.964   7.968  0.5732 -0.4504  0.1254
   58MOL   C27818632   0.176   6.059   8.047 -0.3484 -0.1880  0.4608
   58MOL   C27918633   0.216   6.179   7.993  0.6772 -0.4334 -0.1169
   58MOL   C28018634   0.191   6.206   7.856  0.5449 -0.2855  0.4634
   58MOL   C28118635   0.127   6.116   7.776 -0.8754  0.0624  0.1368
   58MOL   H28218636   7.977   5.756   7.728  0.6451 -0.6931 -0.8808
   58MOL   H28318637   8.044   5.756   7.889  1.5462 -0.0785 -0.9686
   58MOL   H28418638   8.088   5.964   7.673  0.4550  0.6545  0.3320
   58MOL   H28518639   0.088   5.868   8.013 -0.6012 -1.2785 -2.0762
   58MOL   H28618640   0.202   6.048   0.036  1.4455  1.6603  0.2390
   58MOL   H28718641   0.254   6.257   8.057 -1.0641 -0.7240  1.3080
   58MOL   H28818642   0.227   6.300   7.817  0.6965 -0.6716 -0.3343
   58MOL   H28918643   0.103   6.132   7.672 -0.1330  0.3585  0.0086
   58MOL   C29018644   0.108   5.797   7.669  0.1762 -0.2243 -0.1229
   58MOL   C29118645   0.066   5.768   7.520  0.6714  0.5323  0.0829
   58MOL   C29218646   0.069   5.899   7.439  0.6019 -0.8535 -0.2215
   58MOL   C29318647   0.187   5.968   7.415  0.1476 -0.1278 -0.0494
   58MOL   C29418648   0.181   6.088   7.340  0.0538 -0.9118  0.4034
   58MOL   C29518649   0.055   6.125   7.282 -0.5420  0.4760 -0.6205
   58MOL   C29618650   8.056   6.057   7.300  0.1655  0.8296  0.2208
   58MOL   C29718651   8.065   5.949   7.382  0.1699  0.2530 -0.3594
   58MOL   H29818652   0.118   5.708   7.731 -0.9322 -0.8961 -0.9084
   58MOL   H29918653   0.211   5.833   7.680  0.0490  0.2495 -0.4725
   58MOL   H30018654   8.076   5.739   7.523  0.6744  0.5204  0.1049
   58MOL   H30118655   0.275   5.929   7.464 -1.1836 -0.7394  1.9334
   58MOL   H30218656   0.268   6.152   7.332 -0.1179 -0.5651  1.2330
   58MOL   H30318657   0.045   6.217   7.227 -1.2965  0.0972 -1.1226
   58MOL   H30418658   7.969   6.101   7.252  0.8940  0.1984 -1.7452
   58MOL   H30518659   7.975   5.898   7.414  0.6825  0.1354  0.9654
   58MOL   C30618660   0.159   5.660   7.449  0.1174  0.4914 -0.2397
   58MOL   C30718661   0.109   5.616   7.312  0.7141  0.5421  0.1578
   58MOL   C30818662   0.182   5.689   7.201  0.1059 -0.7640 -0.3321
   58MOL   C30918663   0.314   5.661   7.174 -0.3728  0.0251 -0.1556
   58MOL   C31018664   0.387   5.720   7.075  0.1423 -0.1368 -0.3272
   58MOL   C31118665   0.324   5.827   7.002  0.3708 -0.5783  0.3861
   58MOL   C31218666   0.200   5.872   7.038  0.4106 -0.2082 -0.0750
   58MOL   C31318667   0.124   5.804   7.131  0.6834  0.3242  0.5406
   58MOL   H31418668   0.165   5.573   7.514  0.6989  0.8895  0.2446
   58MOL   H31518669   0.265   5.685   7.446  0.5448 -1.1509  0.6971
   58MOL   H31618670   0.002   5.636   7.305  0.4855 -1.1505 -1.5461
   58MOL   H31718671   0.355   5.582   7.235  0.9623  0.1560 -0.8744
   58MOL   H31818672   0.485   5.679   7.054  0.6509  0.3129  1.1572
   58MOL   H31918673   0.379   5.871   6.920 -1.0715 -1.1923 -0.9412
   58MOL   H32018674   0.152   5.964   7.007 -0.8555 -0.5146  0.9360
   58MOL   H32118675   0.023   5.838   7.148 -0.2097 -1.7063 -0.5237
   58MOL   H32218676   0.126   5.512   7.286 -0.0935  0.8368 -1.5957
   59MOL     C118677   7.137   6.951   7.346  0.8092 -0.2694  0.2480
   59MOL     C218678   7.107   6.823   7.430 -0.6670 -0.2171  0.8663
   59MOL     C318679   7.161   6.838   7.573  0.5850 -0.7606  0.0077
   59MOL     C418680   7.103   6.928   7.672 -0.1975 -0.6205 -0.0018
   59MOL     C518681   7.155   6.932   7.798 -0.0750  0.2695  0.2836
   59MOL     C618682   7.268   6.856   7.830  0.2421 -0.7058 -0.3123
   59MOL     C718683   7.327   6.769   7.739  0.7471 -0.1790  0.8138
   59MOL     C818684   7.262   6.752   7.613 -0.7970 -0.6596 -0.3790
   59MOL     H918685   7.099   7.038   7.398  0.6406  0.2412 -0.7030
   59MOL    H1018686   7.244   6.973   7.346  1.0114 -1.2310  1.5743
   59MOL    H1118687   7.167   6.740   7.392 -0.5455  0.2661 -0.0144
   59MOL    H1218688   7.015   6.980   7.636  0.3911  0.1448 -0.3499
   59MOL    H1318689   7.110   7.000   7.869 -0.5259  0.0566  0.1989
   59MOL    H1418690   7.308   6.859   7.930 -1.4184  2.7425  0.3121
   59MOL    H1518691   7.418   6.715   7.760  2.1818  2.0225  0.4056
   59MOL    H1618692   7.322   6.692   7.546  1.6975  1.2613  0.0625
   59MOL    H1718693   7.100   6.952   7.243  0.8013 -1.2086  0.2386
   59MOL    C1818694   6.960   6.787   7.423 -0.0482 -0.1071  0.9753
   59MOL    C1918695   6.916   6.748   7.280  0.1950  0.1620 -0.2415
   59MOL    C2018696   6.943   6.605   7.235  1.0282 -0.2121  0.2152
   59MOL    C2118697   6.936   6.497   7.330 -0.4639  0.0140  0.1369
   59MOL    C2218698   6.982   6.373   7.303 -0.3753 -0.2675  0.0012
   59MOL    C2318699   7.014   6.336   7.170 -0.1430 -0.1918  0.3126
   59MOL    C2418700   6.999   6.432   7.065 -0.1274 -0.3241  0.4958
   59MOL    C2518701   6.980   6.573   7.101 -0.0594  0.1572 -0.0661
   59MOL    H2618702   6.912   6.879   7.456  3.5964  2.4416 -0.4685
   59MOL    H2718703   6.918   6.718   7.496  2.4649 -1.9538  0.7516
   59MOL    H2818704   6.969   6.816   7.213  1.9152  0.4796  1.4148
   59MOL    H2918705   6.907   6.510   7.434 -0.1699 -1.6151  0.4435
   59MOL    H3018706   6.978   6.301   7.383  1.5639 -0.9429 -0.4676
   59MOL    H3118707   7.026   6.231   7.149 -0.8713 -0.4018  0.9310
   59MOL    H3218708   7.011   6.405   6.961 -2.0347 -0.7239  0.3655
   59MOL    H3318709   6.981   6.654   7.030  1.1368 -0.2930 -0.5743
   59MOL    C3418710   6.769   6.787   7.254 -0.0349  0.9378 -0.2197
   59MOL    C3518711   6.663   6.725   7.358  0.5721 -0.4604  0.4044
   59MOL    C3618712   6.584   6.837   7.422 -0.6911  0.1310  0.1208
   59MOL    C3718713   6.503   6.916   7.343 -0.4384 -0.5191  0.3387
   59MOL    C3818714   6.447   7.034   7.399  0.2143  0.8376 -0.5668
   59MOL    C3918715   6.469   7.073   7.531  0.6183 -0.4895 -0.5375
   59MOL    C4018716   6.534   6.978   7.615  0.2118 -0.9851  0.4862
   59MOL    C4118717   6.591   6.861   7.556  0.3428 -0.1230  0.1456
   59MOL    H4218718   6.726   6.762   7.157  3.5099  0.3523 -1.7033
   59MOL    H4318719   6.788   6.894   7.251 -0.1883  0.9196 -2.6195
   59MOL    H4418720   6.711   6.663   7.434  0.8677  0.1443  0.7104
   59MOL    H4518721   6.500   6.902   7.236  2.2214  0.5197  0.0970
   59MOL    H4618722   6.391   7.099   7.333 -1.1703 -0.9551 -1.1972
   59MOL    H4718723   6.428   7.166   7.569 -2.4919 -1.7278 -0.6867
   59MOL    H4818724   6.541   6.996   7.721  0.2048  0.7567  0.2066
   59MOL    H4918725   6.650   6.793   7.616  0.3542  0.6736  1.0577
   59MOL    C5018726   6.564   6.628   7.275  0.3502  0.4767  0.2795
   59MOL    C5118727   6.445   6.560   7.352  0.3087 -0.0844 -0.2610
   59MOL    C5218728   6.340   6.497   7.261  0.2314 -0.4743 -0.1616
   59MOL    C5318729   6.204   6.545   7.269 -0.2187  0.3808 -0.7698
   59MOL    C5418730   6.105   6.486   7.189 -0.5944 -0.3214  0.4811
   59MOL    C5518731   6.139   6.398   7.085  0.0564 -1.3215  0.1917
   59MOL    C5618732   6.271   6.364   7.062 -0.2496 -0.1176  0.2684
   59MOL    C5718733   6.371   6.409   7.159  0.1243 -0.3607  0.1106
   59MOL    H5818734   6.620   6.547   7.227  4.1780  3.7787 -1.1105
   59MOL    H5918735   6.522   6.683   7.191 -0.9518 -1.1185 -0.1361
   59MOL    H6018736   6.389   6.642   7.396 -1.3551 -0.9755 -0.7082
   59MOL    H6118737   6.173   6.620   7.341  0.8761 -1.1199  1.3155
   59MOL    H6218738   6.002   6.514   7.203 -0.9049 -1.2309  0.0581
   59MOL    H6318739   6.059   6.356   7.025 -0.3846  0.7203 -0.6809
   59MOL    H6418740   6.290   6.298   6.979  2.0840 -0.8171  1.3350
   59MOL    H6518741   6.472   6.369   7.159  0.8931  1.4972 -0.3415
   59MOL    C6618742   6.492   6.475   7.474  0.4877  0.6025  0.0911
   59MOL    C6718743   6.440   6.512   7.622  0.1347 -0.6268 -0.5173
   59MOL    C6818744   6.294   6.542   7.631 -0.2611 -0.6900  0.1190
   59MOL    C6918745   6.202   6.452   7.575 -0.2245  0.2057 -0.3511
   59MOL    C7018746   6.063   6.482   7.578  0.1232  0.3418  0.1896
   59MOL    C7118747   6.018   6.598   7.643  0.0629  0.3974 -0.5485
   59MOL    C7218748   6.109   6.689   7.703 -0.4223 -0.4003 -0.0692
   59MOL    C7318749   6.247   6.658   7.699  0.1481 -0.5348 -0.4860
   59MOL    H7418750   6.601   6.470   7.471  0.4661 -0.1262  0.3238
   59MOL    H7518751   6.461   6.372   7.455 -1.0595  0.7934  1.4734
   59MOL    H7618752   6.497   6.601   7.649 -1.5679  0.9420 -1.9370
   59MOL    H7718753   6.241   6.359   7.537  0.8843  0.1186  0.9666
   59MOL    H7818754   5.989   6.423   7.526  1.5739 -1.9955  0.7214
   59MOL    H7918755   5.913   6.625   7.642  0.3088  1.3835 -1.1055
   59MOL    H8018756   6.075   6.770   7.766  2.5402  0.2622  0.7395
   59MOL    H8118757   6.315   6.722   7.753 -2.3977  0.8510  1.2412
   59MOL    C8218758   6.476   6.415   7.734  0.2050 -0.6295 -0.2665
   59MOL    C8318759   6.626   6.393   7.763  0.5531 -0.0951 -0.2261
   59MOL    C8418760   6.704   6.516   7.812  0.4878  0.0215  0.1277
   59MOL    C8518761   6.833   6.552   7.763  0.2437  0.3735 -0.2836
   59MOL    C8618762   6.903   6.662   7.812 -0.0098 -0.0076  0.7872
   59MOL    C8718763   6.845   6.742   7.908 -0.5698  0.8334  0.2690
   59MOL    C8818764   6.716   6.706   7.965 -0.4344  0.1424 -0.3246
   59MOL    C8918765   6.645   6.592   7.913  0.5723  0.3114 -0.0142
   59MOL    H9018766   6.436   6.317   7.707 -1.9253 -0.0388  0.6829
   59MOL    H9118767   6.413   6.445   7.817  2.4145 -0.8163  1.5243
   59MOL    H9218768   6.663   6.358   7.667  0.1141 -0.7135 -0.1721
   59MOL    H9318769   6.879   6.497   7.682 -1.8137  0.0774 -1.2798
   59MOL    H9418770   7.001   6.687   7.775 -0.1559 -1.9527 -1.0189
   59MOL    H9518771   6.897   6.827   7.950  0.8678  0.2354 -0.2838
   59MOL    H9618772   6.680   6.765   8.048  1.1992 -1.0369  1.2728
   59MOL    H9718773   6.547   6.566   7.950  0.6993 -0.2346 -0.0670
   59MOL    C9818774   6.648   6.275   7.858 -0.2253  0.1162  0.8685
   59MOL    C9918775   6.657   6.139   7.792  0.0290  0.4325 -0.0224
   59MOL   C10018776   6.774   6.124   7.683  0.8082  0.4566 -0.1892
   59MOL   C10118777   6.754   6.087   7.546  0.1446 -0.3142 -0.6034
   59MOL   C10218778   6.868   6.056   7.462 -0.1872  0.1648 -0.1429
   59MOL   C10318779   6.996   6.073   7.509 -0.1470  0.2313  0.0552
   59MOL   C10418780   7.017   6.119   7.642 -0.2768  0.9430  0.7110
   59MOL   C10518781   6.910   6.141   7.727  0.3712  0.3462  0.0072
   59MOL   H10618782   6.571   6.275   7.935 -0.9330 -1.7869  0.2054
   59MOL   H10718783   6.736   6.294   7.918  0.4099 -0.5062  0.1470
   59MOL   H10818784   6.565   6.120   7.737 -0.3394 -1.3054  1.1643
   59MOL   H10918785   6.656   6.092   7.500 -0.9441  0.6791  1.7710
   59MOL   H11018786   6.861   6.024   7.359 -2.7781 -0.5747  0.2246
   59MOL   H11118787   7.082   6.046   7.449 -0.2871 -0.5865  0.2269
   59MOL   H11218788   7.117   6.148   7.668  1.3217 -0.1058 -3.9578
   59MOL   H11318789   6.917   6.173   7.829 -2.0749 -0.6051  0.5180
   59MOL   C11418790   6.664   6.032   7.903  0.2587 -1.0855  0.2786
   59MOL   C11518791   6.676   5.890   7.850  0.4197  0.7585  0.0277
   59MOL   C11618792   6.695   5.794   7.966 -0.6103 -0.3770 -0.3720
   59MOL   C11718793   6.593   5.772   8.063 -0.0292 -0.1010 -0.0453
   59MOL   C11818794   6.614   5.672   0.050  0.6405  0.2354  0.4386
   59MOL   C11918795   6.737   5.599   0.062  0.1645  0.2377  0.0457
   59MOL   C12018796   6.840   5.629   8.087  0.0918 -0.1297  0.3887
   59MOL   C12118797   6.817   5.727   7.988  0.0053  0.2619  1.2076
   59MOL   H12218798   6.570   6.039   7.957  0.6378  1.3475  0.6984
   59MOL   H12318799   6.745   6.050   7.973  1.1001  0.3625 -1.0318
   59MOL   H12418800   6.758   5.879   7.779 -0.2476 -0.7539 -0.5369
   59MOL   H12518801   6.499   5.824   8.056 -0.7409 -1.2019  1.2565
   59MOL   H12618802   6.542   5.655   0.128 -1.1323  0.8011 -1.0168
   59MOL   H12718803   6.749   5.527   0.142 -1.0191  0.1353  0.1291
   59MOL   H12818804   6.934   5.575   8.089 -0.5650 -1.2792  0.4163
   59MOL   H12918805   6.890   5.752   7.912  0.4079 -1.8452  0.8935
   59MOL   C13018806   6.538   5.843   7.779  0.9659 -0.0376 -0.3177
   59MOL   C13118807   6.556   5.754   7.652  0.5902  0.1380 -0.1279
   59MOL   C13218808   6.667   5.644   7.661  0.7248  0.3861  0.5941
   59MOL   C13318809   6.649   5.541   7.749  0.1155  0.6875  0.1771
   59MOL   C13418810   6.740   5.430   7.756  0.9237  0.5531  0.8297
   59MOL   C13518811   6.865   5.428   7.688 -0.1423  0.2196  0.4186
   59MOL   C13618812   6.888   5.543   7.609 -0.0084  0.0024  0.3462
   59MOL   C13718813   6.793   5.650   7.594 -0.0036  0.9531 -0.1381
   59MOL   H13818814   6.480   5.928   7.745 -0.7923 -1.0342  0.1308
   59MOL   H13918815   6.469   5.800   7.851  0.0861  0.5067 -0.8341
   59MOL   H14018816   6.580   5.821   7.570  1.8206  0.4678  0.4866
   59MOL   H14118817   6.562   5.540   7.813 -0.5592 -1.3885 -0.7197
   59MOL   H14218818   6.720   5.359   7.834 -1.0046  0.3232  0.1672
   59MOL   H14318819   6.936   5.348   7.697 -2.5571 -2.0600 -0.0795
   59MOL   H14418820   6.981   5.546   7.555  0.1885  2.6422  0.7388
   59MOL   H14518821   6.812   5.729   7.523  1.7154  1.5484  0.9598
   59MOL   C14618822   6.424   5.683   7.604  0.0670  0.1100 -0.4775
   59MOL   C14718823   6.300   5.763   7.571 -0.2784 -0.9809  0.5367
   59MOL   C14818824   6.322   5.865   7.462 -0.3251  0.7238 -0.0969
   59MOL   C14918825   6.308   6.006   7.479 -0.6172  0.1597  0.0374
   59MOL   C15018826   6.352   6.092   7.375 -0.0548 -0.0100  0.1189
   59MOL   C15118827   6.414   6.042   7.260 -0.6116 -0.3018 -0.0410
   59MOL   C15218828   6.436   5.903   7.251  0.4881 -0.6968 -0.2626
   59MOL   C15318829   6.379   5.817   7.344 -0.0092  0.4653  0.2463
   59MOL   H15418830   6.392   5.598   7.664 -1.8916  0.1655 -1.3980
   59MOL   H15518831   6.459   5.635   7.513  1.2820 -2.7350  1.4452
   59MOL   H15618832   6.265   5.808   7.664 -1.2113 -0.2435 -0.1513
   59MOL   H15718833   6.271   6.050   7.570 -1.3128  0.2777 -0.2949
   59MOL   H15818834   6.344   6.198   7.392  1.4283  0.4433 -1.8567
   59MOL   H15918835   6.444   6.111   7.182  1.0125 -1.8248 -0.8235
   59MOL   H16018836   6.473   5.859   7.160  0.0041 -2.7418  0.4974
   59MOL   H16118837   6.378   5.710   7.331 -1.1464  0.3298  1.3680
   59MOL   C16218838   6.178   5.673   7.531 -0.2008 -0.2209 -1.1238
   59MOL   C16318839   6.135   5.568   7.633  0.2591 -0.2788 -0.2288
   59MOL   C16418840   6.115   5.623   7.774 -0.1557 -0.3134  0.6209
   59MOL   C16518841   6.211   5.594   7.873 -0.0908  0.3581  1.0374
   59MOL   C16618842   6.212   5.661   7.998 -0.4539  0.9860 -0.2065
   59MOL   C16718843   6.090   5.734   8.030 -0.3844  0.6889 -0.2043
   59MOL   C16818844   6.005   5.783   7.931  0.0395 -0.2159  0.2790
   59MOL   C16918845   6.019   5.724   7.803  0.4974  0.7265  0.4929
   59MOL   H17018846   6.190   5.629   7.433  1.2250  0.4759 -1.2770
   59MOL   H17118847   6.097   5.746   7.523 -1.2768 -0.8956  2.3806
   59MOL   H17218848   6.225   5.509   7.647  0.5387  0.0778 -0.5261
   59MOL   H17318849   6.291   5.527   7.843 -0.9665 -0.7855  1.2205
   59MOL   H17418850   6.292   5.657   8.070 -0.0304  0.9894 -0.6735
   59MOL   H17518851   6.089   5.774   0.016  0.1191 -2.0272  0.9230
   59MOL   H17618852   5.926   5.853   7.951 -0.6582 -0.7892 -0.4457
   59MOL   H17718853   5.955   5.749   7.720  2.0081 -0.4011 -1.0280
   59MOL   C17818854   6.015   5.482   7.585 -0.1384 -0.1494  0.5926
   59MOL   C17918855   5.978   5.357   7.671 -0.0112 -0.1530 -0.1462
   59MOL   C18018856   5.880   5.388   7.789  1.1978  0.1377 -0.0111
   59MOL   C18118857   5.740   5.419   7.766 -1.0121  0.1488  0.3785
   59MOL   C18218858   5.656   5.449   7.874 -0.1562 -1.3773  0.5899
   59MOL   C18318859   5.702   5.438   8.005  0.1526  0.1487 -0.1776
   59MOL   C18418860   5.836   5.411   8.029 -0.4406 -0.5509 -0.3383
   59MOL   C18518861   5.927   5.390   7.922 -0.7998 -0.5593  0.6864
   59MOL   H18618862   6.048   5.449   7.487  0.5105 -0.5485  0.9400
   59MOL   H18718863   5.932   5.552   7.575  0.3295  0.5808  1.6555
   59MOL   H18818864   6.070   5.326   7.720 -0.6818  0.7561  1.7313
   59MOL   H18918865   5.698   5.433   7.668  0.4921 -0.1965 -0.3308
   59MOL   H19018866   5.552   5.477   7.859  0.2555  1.9925  3.2924
   59MOL   H19118867   5.633   5.444   8.088  1.4258 -0.1257  0.9286
   59MOL   H19218868   5.865   5.386   0.015 -2.0482  1.8595  0.7629
   59MOL   H19318869   6.031   5.374   7.946 -0.9894 -1.2918  1.0223
   59MOL   C19418870   5.937   5.228   7.593  0.8030 -0.9777 -1.1084
   59MOL   C19518871   6.048   5.173   7.502  0.7009  0.8522  0.2918
   59MOL   C19618872   6.175   5.136   7.590 -0.0181 -0.2860  0.7340
   59MOL   C19718873   6.294   5.221   7.585  0.2007 -0.1132  0.0902
   59MOL   C19818874   6.405   5.185   7.663 -0.0627  1.2527 -0.0352
   59MOL   C19918875   6.404   5.071   7.747  0.2571  0.4813 -0.0673
   59MOL   C20018876   6.285   4.990   7.755  0.6961  0.5656  0.1702
   59MOL   C20118877   6.169   5.024   7.677  0.1968 -0.2861 -0.0210
   59MOL   H20218878   5.849   5.263   7.539  1.2209  0.3394 -0.9536
   59MOL   H20318879   5.908   5.153   7.666 -0.4803  1.4611  0.9616
   59MOL   H20418880   6.083   5.252   7.435  0.8271  1.6114  1.2432
   59MOL   H20518881   6.299   5.311   7.526 -0.5446 -1.1626 -1.6231
   59MOL   H20618882   6.494   5.245   7.654  0.1450  0.8543 -0.6852
   59MOL   H20718883   6.496   5.042   7.795  0.4696  0.1194 -0.6842
   59MOL   H20818884   6.287   4.894   7.804 -0.6170 -0.2088 -1.2583
   59MOL   H20918885   6.083   4.960   7.676 -0.3941  0.4915  0.3031
   59MOL   C21018886   5.986   5.048   7.432  0.1590  0.5298  0.2833
   59MOL   C21118887   6.066   4.987   7.314  0.4488  1.0004 -0.7822
   59MOL   C21218888   6.097   5.089   7.210  0.1715  0.0729 -0.3468
   59MOL   C21318889   6.004   5.110   7.106  0.3391  0.0295 -0.3702
   59MOL   C21418890   6.039   5.194   6.994 -0.0430  0.0042 -0.4417
   59MOL   C21518891   6.161   5.256   6.993 -0.1328  0.5071  0.5330
   59MOL   C21618892   6.255   5.235   7.098  0.0454  0.7129  1.1609
   59MOL   C21718893   6.215   5.162   7.213  0.0484  0.1438  0.0772
   59MOL   H21818894   5.900   5.092   7.381 -0.6058 -0.1408  0.9832
   59MOL   H21918895   5.960   4.970   7.503 -0.0727  0.2494 -0.1147
   59MOL   H22018896   5.997   4.918   7.266 -1.2327  1.6147  0.6787
   59MOL   H22118897   5.906   5.064   7.107  1.2632 -2.0026  0.8472
   59MOL   H22218898   5.975   5.207   6.908 -1.9579  3.0794  1.3423
   59MOL   H22318899   6.193   5.314   6.907  1.8383  1.0388  1.5915
   59MOL   H22418900   6.355   5.275   7.092  0.7826 -1.0415  1.6278
   59MOL   H22518901   6.282   5.147   7.296 -0.7907  1.0415  0.9226
   59MOL   C22618902   6.189   4.896   7.365  0.4827 -1.3809  0.1306
   59MOL   C22718903   6.276   4.822   7.264 -0.1627  0.4851 -0.0182
   59MOL   C22818904   6.385   4.739   7.343 -0.4220 -0.6787  0.0311
   59MOL   C22918905   6.347   4.640   7.438  1.3642  0.7713 -0.1231
   59MOL   C23018906   6.451   4.558   7.494 -0.0108  0.6558 -0.8294
   59MOL   C23118907   6.584   4.597   7.478 -0.1686  0.0223  0.0178
   59MOL   C23218908   6.621   4.704   7.393  0.4796 -0.0413  0.1111
   59MOL   C23318909   6.519   4.773   7.324  0.2924  0.3437  0.7571
   59MOL   H23418910   6.151   4.826   7.439 -0.1170  0.7657  1.9085
   59MOL   H23518911   6.261   4.957   7.421  0.3722 -0.8977 -0.2528
   59MOL   H23618912   6.333   4.892   7.203  1.3088 -2.9500 -2.7755
   59MOL   H23718913   6.245   4.619   7.465  1.3505 -0.0212 -0.7593
   59MOL   H23818914   6.430   4.493   7.578 -0.3571  0.7316 -0.8566
   59MOL   H23918915   6.659   4.538   7.528 -0.0840  0.9391  0.9927
   59MOL   H24018916   6.728   4.719   7.384  0.4984 -1.3714 -2.4204
   59MOL   H24118917   6.533   4.865   7.270 -0.7875 -0.2854 -0.6174
   59MOL   C24218918   6.201   4.727   7.166 -0.0762 -0.3737  0.5391
   59MOL   C24318919   6.272   4.709   7.039 -0.0560  0.5781  0.1720
   59MOL   C24418920   6.388   4.607   7.039  0.0921 -0.4305  0.0111
   59MOL   C24518921   6.512   4.641   6.986  0.2166  0.5520 -0.4149
   59MOL   C24618922   6.618   4.546   6.991  0.1198 -0.2343 -0.8055
   59MOL   C24718923   6.599   4.430   7.061 -0.2744  0.1056 -0.2409
   59MOL   C24818924   6.481   4.396   7.120  0.3634  0.2099  0.4053
   59MOL   C24918925   6.377   4.485   7.106  0.7303  0.4039 -0.2394
   59MOL   H25018926   6.107   4.771   7.134 -0.7557 -1.7100  0.6646
   59MOL   H25118927   6.163   4.638   7.217  0.2438 -0.8685 -0.0762
   59MOL   H25218928   6.321   4.802   7.012  0.8928  0.9345  3.0160
   59MOL   H25318929   6.523   4.736   6.936 -1.6164  3.0566  3.6640
   59MOL   H25418930   6.712   4.564   6.941  1.0155 -0.8059  0.6176
   59MOL   H25518931   6.676   4.355   7.070  0.2924  0.7559  0.5040
   59MOL   H25618932   6.467   4.303   7.173  1.3855 -0.0593  0.2236
   59MOL   H25718933   6.279   4.457   7.142  0.8888 -0.4893 -0.4957
   59MOL   C25818934   6.187   4.664   6.922  1.0787 -0.2828  0.6209
   59MOL   C25918935   6.117   4.784   6.850 -0.4474 -0.2906 -0.4546
   59MOL   C26018936   6.216   4.856   6.756  0.2664 -0.0645  0.1593
   59MOL   C26118937   6.269   4.788   6.644  0.6815 -0.0267 -0.0627
   59MOL   C26218938   6.345   4.854   6.552  0.3503  0.0950  0.5595
   59MOL   C26318939   6.383   4.990   6.570 -0.4567  0.1125 -0.4047
   59MOL   C26418940   6.347   5.057   6.691 -0.4160 -0.3209  0.6016
   59MOL   C26518941   6.254   4.989   6.776 -0.5781 -0.8813  0.2535
   59MOL   H26618942   6.116   4.589   6.956  0.4282  0.6549  1.3791
   59MOL   H26718943   6.251   4.613   6.850  2.0526  0.9299  0.5996
   59MOL   H26818944   6.090   4.851   6.932 -1.8003 -0.6063 -0.6233
   59MOL   H26918945   6.253   4.682   6.635 -3.1752  0.2639  1.9573
   59MOL   H27018946   6.367   4.792   6.467 -1.1826 -0.9160  0.8813
   59MOL   H27118947   6.443   5.044   6.499 -0.3489 -1.0288 -1.1797
   59MOL   H27218948   6.386   5.157   6.699  2.6594 -1.3715 -0.4010
   59MOL   H27318949   6.229   5.044   6.866  0.6019 -0.3571  0.2817
   59MOL   C27418950   5.989   4.750   6.776  0.2488  0.4117 -0.4014
   59MOL   C27518951   5.883   4.664   6.850 -1.1012  0.5296  0.2694
   59MOL   C27618952   5.827   4.718   6.983  0.8786 -0.4467  0.2916
   59MOL   C27718953   5.775   4.853   7.001 -0.1013  0.1091 -0.3682
   59MOL   C27818954   5.718   4.897   7.124 -0.1530 -0.0817  0.2729
   59MOL   C27918955   5.714   4.809   7.238  0.3814 -0.3921  0.0154
   59MOL   C28018956   5.777   4.683   7.222 -0.0338  0.1499 -0.1051
   59MOL   C28118957   5.825   4.637   7.100 -0.4847 -0.1908  0.2506
   59MOL   H28218958   6.017   4.695   6.686 -1.0171  0.5500 -0.8926
   59MOL   H28318959   5.952   4.845   6.738  1.7821  0.9946 -0.4833
   59MOL   H28418960   5.916   4.563   6.873 -1.0128  0.2492 -1.0591
   59MOL   H28518961   5.793   4.924   6.921 -0.3592 -1.6756 -2.0755
   59MOL   H28618962   5.683   4.999   7.133  1.5875  0.8282 -2.5807
   59MOL   H28718963   5.687   4.844   7.336  0.8355  1.1205 -0.3819
   59MOL   H28818964   5.781   4.614   7.305 -1.2190 -0.7920 -0.8152
   59MOL   H28918965   5.872   4.540   7.097 -2.6958 -1.2515 -1.4159
   59MOL   C29018966   5.765   4.648   6.763  0.2079  0.0222 -0.6947
   59MOL   C29118967   5.671   4.522   6.783 -0.2234  0.5772 -0.2001
   59MOL   C29218968   5.531   4.553   6.731 -0.2240 -0.3954 -0.2766
   59MOL   C29318969   5.519   4.622   6.609 -0.3676 -0.6184  0.2988
   59MOL   C29418970   5.392   4.658   6.555 -0.1726  0.3962  0.0164
   59MOL   C29518971   5.275   4.598   6.621  0.6213  0.1558  0.3607
   59MOL   C29618972   5.297   4.525   6.747  0.2404 -0.7739  0.5534
   59MOL   C29718973   5.424   4.505   6.802  0.3729 -0.2980  0.2309
   59MOL   H29818974   5.798   4.645   6.659 -0.9159  2.8527 -1.1878
   59MOL   H29918975   5.722   4.748   6.766 -0.5119 -0.3332  1.3675
   59MOL   H30018976   5.664   4.491   6.887  2.0515  0.2626 -0.1189
   59MOL   H30118977   5.611   4.644   6.557 -1.2239 -1.9484 -1.8241
   59MOL   H30218978   5.378   4.713   6.463  0.8773 -0.7611 -0.8576
   59MOL   H30318979   5.172   4.611   6.589  1.0082  1.9330 -0.2097
   59MOL   H30418980   5.216   4.489   6.809  0.5300  1.2154  2.1256
   59MOL   H30518981   5.440   4.444   6.890  1.1731  0.3118  0.5156
   59MOL   C30618982   5.719   4.395   6.708 -0.4235  0.1342 -0.0526
   59MOL   C30718983   5.634   4.265   6.711 -0.1702  0.8199  0.0612
   59MOL   C30818984   5.707   4.155   6.629  0.0113 -0.0123 -0.5067
   59MOL   C30918985   5.659   4.127   6.495 -0.3695  0.1970  0.1304
   59MOL   C31018986   5.720   4.029   6.415 -0.4227 -0.8288  0.5525
   59MOL   C31118987   5.837   3.962   6.460  0.1996  0.7404  0.0666
   59MOL   C31218988   5.889   3.994   6.587  0.0310 -0.0192  0.0733
   59MOL   C31318989   5.831   4.089   6.672 -0.1996  0.1560  0.3813
   59MOL   H31418990   5.819   4.372   6.745 -0.9561  0.7421  1.7963
   59MOL   H31518991   5.730   4.415   6.601 -0.2734 -0.0864 -0.0792
   59MOL   H31618992   5.534   4.271   6.669  0.0303 -0.3865 -0.6289
   59MOL   H31718993   5.563   4.164   6.460 -0.1735  0.5218 -0.0643
   59MOL   H31818994   5.683   4.005   6.316  0.1586  1.8333 -0.3392
   59MOL   H31918995   5.903   3.919   6.387 -0.4562  0.6887 -0.5008
   59MOL   H32018996   5.978   3.938   6.614 -0.1647 -0.6514 -0.5720
   59MOL   H32118997   5.868   4.101   6.773 -4.0006 -0.9797  2.0277
   59MOL   H32218998   5.630   4.219   6.810  1.6230 -0.3600 -0.3856
   60MOL     C118999   7.537   7.913   2.086  0.2967 -0.2076  0.3643
   60MOL     C219000   7.390   7.931   2.116 -0.0276  0.2022  0.1803
   60MOL     C319001   7.368   8.061   2.199 -0.5907 -0.0580 -0.0762
   60MOL     C419002   7.416   0.069   2.152 -0.5633 -0.7506 -0.2443
   60MOL     C519003   7.371   0.185   2.215  0.0232 -0.0233 -0.3384
   60MOL     C619004   7.288   0.177   2.330  0.4325 -0.6094  0.6805
   60MOL     C719005   7.252   0.051   2.380  0.6696 -0.0500 -0.3309
   60MOL     C819006   7.284   8.055   2.309 -0.3121  0.0135 -0.1574
   60MOL     H919007   7.556   7.821   2.032  1.0032  1.1913 -1.8526
   60MOL    H1019008   7.591   7.991   2.032  0.6565  0.3077  1.4464
   60MOL    H1119009   7.372   7.853   2.189  1.5947  0.0662  0.4385
   60MOL    H1219010   7.471   0.094   2.063  1.3999 -1.3360  0.7836
   60MOL    H1319011   7.400   0.283   2.179 -1.2834 -0.0573 -1.5322
   60MOL    H1419012   7.248   0.271   2.367  0.3295  0.6721 -2.5240
   60MOL    H1519013   7.189   0.046   2.467 -0.4409  0.1400 -1.1134
   60MOL    H1619014   7.251   7.956   2.339 -0.9595  0.3212  0.1425
   60MOL    H1719015   7.602   7.922   2.172  1.0914  1.8243 -0.4095
   60MOL    C1819016   7.313   7.917   1.986 -0.0215 -0.6403  0.5412
   60MOL    C1919017   7.163   7.955   1.987  0.3022 -0.0143 -0.4730
   60MOL    C2019018   7.098   7.934   1.847  0.2129  0.2862 -1.0238
   60MOL    C2119019   7.038   8.047   1.780  0.0000 -0.0039 -0.0829
   60MOL    C2219020   6.990   8.025   1.651  0.0844 -0.3504  0.4590
   60MOL    C2319021   7.000   7.899   1.585 -0.5353  0.0716 -0.2134
   60MOL    C2419022   7.063   7.796   1.649 -0.6701  0.4701 -0.4795
   60MOL    C2519023   7.107   7.805   1.780  0.0174  0.2439 -0.3285
   60MOL    H2619024   7.323   7.813   1.957  0.8278  0.4688 -3.4177
   60MOL    H2719025   7.353   7.979   1.906 -0.8273  0.6401  1.1192
   60MOL    H2819026   7.162   8.061   2.011 -3.2991  0.0161 -0.4985
   60MOL    H2919027   7.044   0.028   1.829  0.4334 -0.1642  0.1741
   60MOL    H3019028   6.953   8.111   1.596 -3.4920 -2.5058 -0.6741
   60MOL    H3119029   6.971   7.888   1.481  2.6092  1.4003 -1.2977
   60MOL    H3219030   7.074   7.700   1.600  0.4235  1.1395 -1.5819
   60MOL    H3319031   7.156   7.727   1.836  0.9549  2.8550  2.6802
   60MOL    C3419032   7.071   7.880   2.098 -0.9169 -0.1618 -0.2519
   60MOL    C3519033   6.941   7.955   2.127 -0.1783 -0.3044  0.7031
   60MOL    C3619034   6.841   7.875   2.201  0.4008  1.1120 -0.2175
   60MOL    C3719035   6.864   7.835   2.334 -0.1282  0.3966 -0.1887
   60MOL    C3819036   6.768   7.773   2.414  0.3555 -0.4248 -0.4133
   60MOL    C3919037   6.653   7.718   2.362  0.1115 -0.1709 -0.5523
   60MOL    C4019038   6.626   7.750   2.226 -0.0513 -0.4809 -0.7473
   60MOL    C4119039   6.712   7.840   2.152  1.0589  0.1973  0.0624
   60MOL    H4219040   7.132   7.853   2.185  0.2424 -0.8545 -1.2551
   60MOL    H4319041   7.046   7.776   2.075 -0.7341 -0.7518  2.0244
   60MOL    H4419042   6.901   7.986   2.030 -0.0966 -2.2275  0.0293
   60MOL    H4519043   6.953   7.858   2.391 -1.0911  0.1728  1.4380
   60MOL    H4619044   6.802   7.759   2.516 -1.0489  0.4898  0.2103
   60MOL    H4719045   6.583   7.655   2.413  0.0485 -0.6209 -1.1867
   60MOL    H4819046   6.537   7.710   2.178 -0.2324  1.1506 -1.7906
   60MOL    H4919047   6.669   7.862   2.055 -1.3608  1.0039  1.2710
   60MOL    C5019048   6.962   8.089   2.202 -0.0137  0.2227 -0.2913
   60MOL    C5119049   6.844   0.076   2.213  0.2110 -0.1126  0.4644
   60MOL    C5219050   6.860   0.191   2.317  0.0621  0.1851 -0.0699
   60MOL    C5319051   6.929   0.312   2.288  0.2452 -0.1965  0.5602
   60MOL    C5419052   6.946   0.402   2.394 -0.4852  0.7556  0.4080
   60MOL    C5519053   6.887   0.375   2.521  0.5968  0.0043  0.5220
   60MOL    C5619054   6.833   0.250   2.552 -0.4208 -0.2198 -0.3808
   60MOL    C5719055   6.818   0.159   2.449 -0.0205  0.0339 -0.7983
   60MOL    H5819056   7.050   0.020   2.156 -0.3646  1.2057 -0.0093
   60MOL    H5919057   7.000   8.072   2.303 -0.6789 -1.0009 -0.2464
   60MOL    H6019058   6.750   0.025   2.236  0.2518  0.0852  1.0604
   60MOL    H6119059   6.966   0.331   2.189 -2.0012 -2.1608 -0.7056
   60MOL    H6219060   7.002   0.493   2.378 -1.2250  0.9012 -1.4345
   60MOL    H6319061   6.895   0.448   2.599 -1.3255  0.6377  0.1526
   60MOL    H6419062   6.805   0.226   2.653  1.6500  0.0409  0.2690
   60MOL    H6519063   6.760   0.070   2.470 -0.2089  0.2861 -0.2538
   60MOL    C6619064   6.801   0.132   2.069 -0.0242  0.3816  0.1030
   60MOL    C6719065   6.680   0.230   2.056 -0.0204  0.6844  0.0033
   60MOL    C6819066   6.690   0.319   1.934 -0.3914 -1.2732  0.8286
   60MOL    C6919067   6.630   0.451   1.934  1.0595  0.4370 -0.2371
   60MOL    C7019068   6.638   0.534   1.822  0.4063  0.2142 -0.2696
   60MOL    C7119069   6.709   0.488   1.706 -0.2567 -0.6467  0.6911
   60MOL    C7219070   6.764   0.360   1.704 -0.5163  0.1981  0.7177
   60MOL    C7319071   6.754   0.278   1.814  0.0313 -0.5941  0.2418
   60MOL    H7419072   6.787   0.048   2.001 -1.1789  1.0069 -0.4376
   60MOL    H7519073   6.892   0.176   2.027  0.9084 -3.2848 -1.9849
   60MOL    H7619074   6.706   0.305   2.131  0.0002  2.6324 -1.8816
   60MOL    H7719075   6.579   0.489   2.022  0.7303 -0.6692  0.0657
   60MOL    H7819076   6.589   0.631   1.817 -0.7941 -0.3491  0.2832
   60MOL    H7919077   6.713   0.549   1.617  0.1522 -2.7104 -0.7273
   60MOL    H8019078   6.807   0.329   1.609  0.7810  3.3420  0.2038
   60MOL    H8119079   6.780   0.173   1.805 -1.9947 -1.1375  0.4944
   60MOL    C8219080   6.545   0.162   2.080 -0.0990 -0.6398  0.1297
   60MOL    C8319081   6.483   0.182   2.224  0.4661 -0.3896  0.6688
   60MOL    C8419082   6.427   0.322   2.230 -0.3139  0.3387  0.1178
   60MOL    C8519083   6.490   0.415   2.324  0.1666  0.0497  0.0950
   60MOL    C8619084   6.429   0.543   2.345  0.0107  0.2234 -0.3300
   60MOL    C8719085   6.318   0.593   2.276 -0.1198 -0.0794  0.2738
   60MOL    C8819086   6.253   0.496   2.194 -0.2908 -0.0641  0.4174
   60MOL    C8919087   6.308   0.366   2.173 -0.6918 -0.5447 -0.0448
   60MOL    H9019088   6.577   0.060   2.098  0.8137 -0.3290  0.2765
   60MOL    H9119089   6.485   0.168   1.989 -0.1809  2.1575  0.3177
   60MOL    H9219090   6.566   0.190   2.295 -0.9299  0.5530  2.2457
   60MOL    H9319091   6.581   0.384   2.374  0.5248  0.1801 -0.4574
   60MOL    H9419092   6.481   0.602   2.419  0.0259  2.2241 -1.8866
   60MOL    H9519093   6.273   0.690   2.289 -0.7354 -0.4358  0.8068
   60MOL    H9619094   6.162   0.518   2.141 -0.7106 -0.9094  0.7709
   60MOL    H9719095   6.240   0.301   2.119  0.2239 -0.8480 -0.8402
   60MOL    C9819096   6.383   0.070   2.258  0.0915  0.5751  0.2712
   60MOL    C9919097   6.362   0.061   2.414  0.3878 -0.2729 -0.0608
   60MOL   C10019098   6.252   0.147   2.465  0.2697  0.2339 -0.6149
   60MOL   C10119099   6.276   0.269   2.544 -0.6385  0.1566 -0.3666
   60MOL   C10219100   6.164   0.341   2.593 -1.0810  0.7627  0.6145
   60MOL   C10319101   6.034   0.303   2.566  0.5190  0.1882  0.8073
   60MOL   C10419102   6.008   0.186   2.487  0.1894  0.1100  0.0013
   60MOL   C10519103   6.116   0.109   2.448  0.2152  0.1487  0.1886
   60MOL   H10619104   6.419   8.088   2.222 -1.2911 -0.8748  2.6191
   60MOL   H10719105   6.296   0.077   2.192  0.7889  2.1589 -0.5020
   60MOL   H10819106   6.450   0.093   2.469 -0.1581  0.3946  0.4256
   60MOL   H10919107   6.375   0.310   2.561 -1.6347  2.2879  0.4693
   60MOL   H11019108   6.187   0.430   2.650  3.1043 -0.5331  1.1375
   60MOL   H11119109   5.954   0.362   2.608 -0.6284 -0.1238 -0.8953
   60MOL   H11219110   5.904   0.159   2.475  0.8668 -1.6601 -2.2152
   60MOL   H11319111   6.099   0.018   2.391 -0.8368 -0.6289  1.7050
   60MOL   C11419112   6.344   8.023   2.455  0.9759 -0.6158 -0.6423
   60MOL   C11519113   6.368   7.996   2.608 -0.6756 -0.3178 -0.0530
   60MOL   C11619114   6.300   7.859   2.648 -0.7385  0.4790 -0.2077
   60MOL   C11719115   6.180   7.846   2.727 -0.2935  0.2955  0.6425
   60MOL   C11819116   6.128   7.726   2.771  0.1898 -0.2203  0.3720
   60MOL   C11919117   6.180   7.606   2.718 -0.4878  1.0721 -0.0463
   60MOL   C12019118   6.291   7.608   2.625  0.2345  0.6098 -0.0628
   60MOL   C12119119   6.350   7.738   2.593  1.0859  0.1891 -0.0725
   60MOL   H12219120   6.423   7.966   2.407  0.6673  0.3684 -2.3535
   60MOL   H12319121   6.251   7.978   2.420  0.8567 -2.1368  1.5062
   60MOL   H12419122   6.305   8.068   2.660 -1.5174 -1.9875  1.3113
   60MOL   H12519123   6.136   7.938   2.761  0.7717  1.3229 -0.7311
   60MOL   H12619124   6.042   7.726   2.836 -0.5647  1.7023 -0.5819
   60MOL   H12719125   6.129   7.512   2.726 -0.6517  0.9291 -2.6570
   60MOL   H12819126   6.317   7.522   2.566 -0.0697  0.0015  0.6959
   60MOL   H12919127   6.427   7.742   2.518 -0.0169  0.2156 -1.2348
   60MOL   C13019128   6.523   8.004   2.656  0.3179  0.2070  0.6575
   60MOL   C13119129   6.556   7.945   2.798  0.7820 -0.3334  0.5456
   60MOL   C13219130   6.683   7.866   2.793  0.4285 -0.2178  1.0618
   60MOL   C13319131   6.687   7.735   2.837  0.2194  1.0037  0.4728
   60MOL   C13419132   6.801   7.650   2.821  1.0857 -0.3292  0.2963
   60MOL   C13519133   6.919   7.712   2.759 -0.4895  0.1602 -0.6927
   60MOL   C13619134   6.917   7.850   2.730 -0.7690  0.2156 -0.0813
   60MOL   C13719135   6.801   7.924   2.746  0.0100  0.7464  0.2584
   60MOL   H13819136   6.560   8.106   2.648 -0.9610  0.6308  0.0382
   60MOL   H13919137   6.571   7.944   2.578  0.8955  0.6897  0.6377
   60MOL   H14019138   6.472   7.887   2.838 -0.4744  1.2099  0.1885
   60MOL   H14119139   6.603   7.693   2.892 -1.0695 -0.4363 -2.4904
   60MOL   H14219140   6.801   7.551   2.863  1.4566  0.7157  2.8455
   60MOL   H14319141   7.011   7.661   2.736 -0.3394  0.8691 -1.6654
   60MOL   H14419142   7.003   7.907   2.696  1.2863 -2.6097  0.1606
   60MOL   H14519143   6.803   8.027   2.716 -0.2978 -0.0476 -2.5925
   60MOL   C14619144   6.570   8.053   2.912 -0.1646 -0.1148 -0.5277
   60MOL   C14719145   6.462   0.048   2.924  0.1900  0.1760  0.4751
   60MOL   C14819146   6.328   8.110   2.962  0.1237  0.1898  0.2816
   60MOL   C14919147   6.312   8.006   3.056  0.0158  0.0118  0.6542
   60MOL   C15019148   6.183   7.966   3.104 -0.0371  0.1736  0.0982
   60MOL   C15119149   6.069   8.034   3.056 -0.1629  0.5594 -0.6354
   60MOL   C15219150   6.080   0.015   2.951 -0.8247  0.0592  0.2851
   60MOL   C15319151   6.210   0.058   2.912  0.9352  0.2408 -0.2797
   60MOL   H15419152   6.657   8.113   2.884 -0.0892  0.7001  1.3717
   60MOL   H15519153   6.585   8.008   3.010  0.1331  1.2121  0.0462
   60MOL   H15619154   6.463   0.097   2.827 -1.0971 -1.6039 -0.4727
   60MOL   H15719155   6.396   7.957   3.102 -0.3697  0.0574  1.4225
   60MOL   H15819156   6.181   7.881   3.171 -1.3131  1.4558  1.7003
   60MOL   H15919157   5.972   7.999   3.087 -0.4802  3.1236  1.4631
   60MOL   H16019158   5.991   0.051   2.902 -1.6326 -1.0656  0.8933
   60MOL   H16119159   6.220   0.141   2.844 -0.5138 -0.5389 -1.4975
   60MOL   C16219160   6.501   0.155   3.035  0.0579  0.0471  0.1730
   60MOL   C16319161   6.620   0.254   3.015 -0.4945 -0.1220  0.5530
   60MOL   C16419162   6.566   0.370   2.933  0.0517 -0.3582 -0.0521
   60MOL   C16519163   6.495   0.468   3.004  0.3056  0.1851 -0.7987
   60MOL   C16619164   6.450   0.580   2.936  0.2035  0.0217 -0.4384
   60MOL   C16719165   6.464   0.598   2.797 -0.4068 -0.3290  0.0090
   60MOL   C16819166   6.532   0.497   2.732 -0.1051  0.5487 -0.0502
   60MOL   C16919167   6.592   0.388   2.798 -0.3742  0.0500 -0.1272
   60MOL   H17019168   6.529   0.085   3.115 -3.8965 -0.2138  1.4574
   60MOL   H17119169   6.410   0.207   3.062  0.0106 -0.0388  0.1812
   60MOL   H17219170   6.690   0.204   2.948 -1.1738 -0.3423  0.0073
   60MOL   H17319171   6.489   0.461   3.111 -1.2822 -1.3409 -0.9726
   60MOL   H17419172   6.399   0.642   3.007  1.4656  0.9110 -0.2932
   60MOL   H17519173   6.435   0.685   2.740 -0.8095 -0.3084  0.2405
   60MOL   H17619174   6.560   0.514   2.629 -0.1780  0.3859 -0.0959
   60MOL   H17719175   6.649   0.315   2.742 -1.5069 -1.4666  0.6528
   60MOL   C17819176   6.701   0.293   3.141 -0.2373  0.5304  0.1937
   60MOL   C17919177   6.808   0.195   3.182  0.5184 -0.3003 -0.3285
   60MOL   C18019178   6.931   0.180   3.085 -0.1094  0.1895  0.1767
   60MOL   C18119179   6.957   0.054   3.028  0.1246 -0.5179 -0.2045
   60MOL   C18219180   7.057   0.045   2.927  0.0579  0.0827  0.1783
   60MOL   C18319181   7.154   0.149   2.906  0.5432 -0.3975  0.6331
   60MOL   C18419182   7.138   0.272   2.970  0.2468  0.5218 -0.6853
   60MOL   C18519183   7.029   0.287   3.061  0.4665 -0.1263 -0.6297
   60MOL   H18619184   6.638   0.318   3.227 -0.7443 -0.6426  0.1695
   60MOL   H18719185   6.755   0.387   3.133 -2.8852  1.9927 -1.4285
   60MOL   H18819186   6.761   0.097   3.179 -1.9249  0.7917  0.6223
   60MOL   H18919187   6.895   8.083   3.051 -1.2331  0.5029  0.0076
   60MOL   H19019188   7.078   8.061   2.888  1.3752  0.3467  0.1933
   60MOL   H19119189   7.239   0.127   2.842 -0.1559 -0.3511 -0.3190
   60MOL   H19219190   7.210   0.346   2.942  0.4595  0.4416 -0.3423
   60MOL   H19319191   7.014   0.385   3.105 -2.0277  0.4866 -2.6990
   60MOL   C19419192   6.859   0.220   3.328  0.8923  0.1568  0.3478
   60MOL   C19519193   6.748   0.188   3.429  0.7767  0.3623 -0.3514
   60MOL   C19619194   6.657   0.061   3.410 -0.2208 -0.0774 -0.2618
   60MOL   C19719195   6.714   8.051   3.402 -0.1169  0.6420  0.2107
   60MOL   C19819196   6.633   7.939   3.378 -0.3257  0.7069  0.2788
   60MOL   C19919197   6.494   7.949   3.355  0.0314 -0.1972  0.0005
   60MOL   C20019198   6.432   8.078   3.376  0.1949  0.9241 -0.1011
   60MOL   C20119199   6.516   0.077   3.391  0.5685  0.6431  0.4897
   60MOL   H20219200   6.897   0.322   3.335 -0.1313  0.5389  0.4782
   60MOL   H20319201   6.937   0.151   3.360  0.6212 -0.4033 -0.2035
   60MOL   H20419202   6.681   0.274   3.427 -0.4669 -0.6207 -1.6380
   60MOL   H20519203   6.820   8.032   3.407 -0.4163 -1.2832 -0.3111
   60MOL   H20619204   6.680   7.842   3.373 -0.5366  0.6390 -0.3819
   60MOL   H20719205   6.424   7.870   3.336 -0.6295  0.0627  1.3321
   60MOL   H20819206   6.326   8.096   3.383  0.0993  1.5455 -2.7098
   60MOL   H20919207   6.481   0.178   3.397 -1.1771  0.1265 -0.6739
   60MOL   C21019208   6.807   0.182   3.572 -0.2785 -0.1579  0.2788
   60MOL   C21119209   6.719   0.209   3.699  0.1973 -0.6269 -0.1138
   60MOL   C21219210   6.641   0.340   3.693  0.1154  0.3829  0.4017
   60MOL   C21319211   6.695   0.456   3.740  0.3112  0.2388 -0.1107
   60MOL   C21419212   6.631   0.583   3.724 -0.5989  0.4039 -0.1965
   60MOL   C21519213   6.509   0.589   3.653  0.1147  0.1478  0.6609
   60MOL   C21619214   6.442   0.470   3.615 -0.0060 -0.0118 -0.5079
   60MOL   C21719215   6.511   0.348   3.636  0.0174 -0.0622  0.5815
   60MOL   H21819216   6.880   0.263   3.573 -2.4588  1.8867  0.9051
   60MOL   H21919217   6.863   0.089   3.579  0.3536  0.1191 -0.9789
   60MOL   H22019218   6.787   0.226   3.783  0.2092  1.5406 -0.5381
   60MOL   H22119219   6.785   0.451   3.800 -0.6723 -2.0318  1.2851
   60MOL   H22219220   6.690   0.670   3.751 -1.7418  1.1110  0.0582
   60MOL   H22319221   6.472   0.689   3.637 -0.1563  0.2252  1.6999
   60MOL   H22419222   6.338   0.471   3.585 -0.7749 -0.2206  2.0200
   60MOL   H22519223   6.455   0.264   3.598 -1.0887  0.6930  0.5340
   60MOL   C22619224   6.634   0.087   3.740  0.5281 -0.1891 -0.2761
   60MOL   C22719225   6.719   8.082   3.800 -0.1343  0.6510  0.5186
   60MOL   C22819226   6.814   8.111   3.907 -0.5246  0.2420 -0.1689
   60MOL   C22919227   6.944   8.058   3.898 -0.3959  0.2601  0.1043
   60MOL   C23019228   7.037   8.079   4.001 -0.2765 -0.2941 -0.4408
   60MOL   C23119229   6.999   0.032   4.121  0.3603 -0.7097  0.2119
   60MOL   C23219230   6.867   0.090   4.122 -0.0231 -0.1189 -0.4211
   60MOL   C23319231   6.772   0.066   4.024  0.8431 -0.5309  0.6586
   60MOL   H23419232   6.578   0.050   3.653  0.3210 -1.2384  0.3007
   60MOL   H23519233   6.554   0.124   3.805  0.0216 -0.1562 -0.9055
   60MOL   H23619234   6.776   8.050   3.713 -0.5041 -1.8530  1.1548
   60MOL   H23719235   6.961   7.985   3.820 -1.9711 -0.2014  0.1735
   60MOL   H23819236   7.132   8.027   3.991  0.3169  0.6581  0.1280
   60MOL   H23919237   7.061   0.056   4.205 -0.7922  1.5585  0.4461
   60MOL   H24019238   6.835   0.129   4.217 -0.4986 -0.6158 -0.3752
   60MOL   H24119239   6.672   0.101   4.042  0.6958  0.1683 -1.3473
   60MOL   C24219240   6.615   7.970   3.833 -0.0911 -0.3164  0.3294
   60MOL   C24319241   6.624   7.842   3.756 -0.8366 -0.2116  0.6712
   60MOL   C24419242   6.760   7.779   3.765  0.0731 -0.7895  0.1204
   60MOL   C24519243   6.820   7.750   3.891  0.1825  0.1982 -0.0535
   60MOL   C24619244   6.948   7.695   3.891 -0.5538 -0.1713 -0.6249
   60MOL   C24719245   7.020   7.671   3.776  0.0722 -0.7493 -0.0809
   60MOL   C24819246   6.962   7.701   3.654 -0.5382  0.0408  1.0384
   60MOL   C24919247   6.834   7.750   3.643  0.0352 -0.0724  0.0283
   60MOL   H25019248   6.513   7.998   3.806 -0.8134 -1.2490  2.0652
   60MOL   H25119249   6.612   7.961   3.941 -0.5521 -1.3615  0.2342
   60MOL   H25219250   6.608   7.879   3.654 -0.1674  0.7960  0.9265
   60MOL   H25319251   6.767   7.774   3.982 -2.8516  0.2764 -1.7659
   60MOL   H25419252   7.003   7.675   3.981  0.9087 -3.2869 -2.1210
   60MOL   H25519253   7.124   7.644   3.787  0.0348 -0.6305  0.6084
   60MOL   H25619254   7.028   7.694   3.569  1.6750  1.7698  2.5539
   60MOL   H25719255   6.796   7.787   3.549  1.8715 -0.2612 -0.8125
   60MOL   C25819256   6.508   7.748   3.797  0.0176  0.1637  0.0280
   60MOL   C25919257   6.512   7.614   3.719 -0.3340 -0.0143  0.0861
   60MOL   C26019258   6.456   7.499   3.796  0.7623 -0.1778 -0.4495
   60MOL   C26119259   6.320   7.506   3.831 -0.4520  0.1729  0.0504
   60MOL   C26219260   6.266   7.407   3.912 -0.1788 -0.4245 -0.0724
   60MOL   C26319261   6.351   7.301   3.968 -0.1807 -0.9887  0.4123
   60MOL   C26419262   6.487   7.304   3.941  0.3571  0.2961 -0.4468
   60MOL   C26519263   6.539   7.402   3.850  0.4375 -0.3276 -1.0739
   60MOL   H26619264   6.410   7.791   3.774 -0.1166 -0.4408 -0.5475
   60MOL   H26719265   6.522   7.740   3.905  0.0342 -1.6013 -0.0826
   60MOL   H26819266   6.617   7.585   3.714  0.1352  1.8046 -0.8161
   60MOL   H26919267   6.260   7.587   3.792  3.0334  1.9790 -1.9197
   60MOL   H27019268   6.164   7.418   3.946 -0.0038 -0.7046  0.5521
   60MOL   H27119269   6.295   7.236   4.034 -0.2475 -2.1902 -0.8142
   60MOL   H27219270   6.555   7.236   3.991  0.3333 -0.4592 -1.4145
   60MOL   H27319271   6.642   7.403   3.817 -0.0805 -1.1536 -2.7524
   60MOL   C27419272   6.451   7.625   3.581  0.2272 -0.2516 -0.6519
   60MOL   C27519273   6.435   7.497   3.498 -0.1861 -0.4710 -0.6130
   60MOL   C27619274   6.358   7.524   3.366  0.1045 -0.5739  0.1847
   60MOL   C27719275   6.226   7.477   3.349  0.5347  0.4553  0.2154
   60MOL   C27819276   6.152   7.514   3.237 -0.0634 -0.5471 -0.4572
   60MOL   C27919277   6.208   7.591   3.135  0.2768 -0.3081  0.3251
   60MOL   C28019278   6.345   7.632   3.148  0.1254  0.3452 -0.0861
   60MOL   C28119279   6.416   7.597   3.265  0.0138  0.1251  0.2413
   60MOL   H28219280   6.498   7.704   3.523 -0.3365  0.3983 -0.2266
   60MOL   H28319281   6.348   7.659   3.587 -0.1509 -1.3634 -0.6233
   60MOL   H28419282   6.378   7.435   3.567  1.4161  0.5533  1.6959
   60MOL   H28519283   6.176   7.430   3.432  0.2244 -0.5776 -0.5477
   60MOL   H28619284   6.046   7.493   3.232 -0.0835 -0.0576 -3.0610
   60MOL   H28719285   6.144   7.630   3.057  0.3404  0.7675  0.8000
   60MOL   H28819286   6.391   7.701   3.080  0.2130  1.4191  1.0477
   60MOL   H28919287   6.517   7.634   3.257  0.2306 -0.9965 -3.0078
   60MOL   C29019288   6.566   7.426   3.474 -0.1834 -0.3386  0.0002
   60MOL   C29119289   6.564   7.289   3.393 -0.2698 -0.0985  0.2696
   60MOL   C29219290   6.470   7.191   3.475 -0.0793  0.1643  0.6789
   60MOL   C29319291   6.339   7.166   3.422 -0.0299 -0.5114 -0.3770
   60MOL   C29419292   6.252   7.078   3.491  0.1833  1.3741  0.7879
   60MOL   C29519293   6.293   7.019   3.614  0.2764  0.3122 -0.3217
   60MOL   C29619294   6.425   7.050   3.658  0.7221  0.3522  0.1944
   60MOL   C29719295   6.512   7.135   3.596 -0.4937  0.6416  0.2086
   60MOL   H29819296   6.610   7.412   3.573  2.3898 -1.9694 -1.3331
   60MOL   H29919297   6.641   7.492   3.431  0.0972 -2.4373 -2.8476
   60MOL   H30019298   6.666   7.254   3.408  0.3253  0.7325 -1.6820
   60MOL   H30119299   6.294   7.216   3.337 -0.9503  0.1127  0.4621
   60MOL   H30219300   6.155   7.063   3.444  0.7929  2.0990 -0.7175
   60MOL   H30319301   6.223   6.963   3.674  1.0524 -1.4230 -1.0285
   60MOL   H30419302   6.461   7.021   3.756  0.0735 -1.1880 -0.0172
   60MOL   H30519303   6.613   7.153   3.629 -0.3572  0.4023 -0.0817
   60MOL   C30619304   6.539   7.296   3.241  0.1588  0.7210 -0.3097
   60MOL   C30719305   6.593   7.174   3.165 -1.3196 -0.1729  0.2268
   60MOL   C30819306   6.743   7.152   3.189 -0.0142  0.3742  0.3833
   60MOL   C30919307   6.825   7.238   3.119 -0.0591  0.0422 -0.5804
   60MOL   C31019308   6.968   7.230   3.132  0.2076  0.1881  0.7415
   60MOL   C31119309   7.022   7.138   3.219 -0.1563  0.7162  0.2269
   60MOL   C31219310   6.940   7.037   3.279  0.3708  0.3703  0.0682
   60MOL   C31319311   6.799   7.043   3.269  0.3096  0.3266  0.2747
   60MOL   H31419312   6.583   7.382   3.192 -0.2367  0.3056 -1.4137
   60MOL   H31519313   6.434   7.310   3.214  0.6170  2.4864 -1.2041
   60MOL   H31619314   6.589   7.182   3.057  2.4760  0.6651  0.0751
   60MOL   H31719315   6.783   7.312   3.052 -1.7852 -0.6414 -0.2682
   60MOL   H31819316   7.021   7.310   3.083 -0.5721  0.5416  0.4658
   60MOL   H31919317   7.129   7.130   3.225 -0.0813  1.8967  0.6062
   60MOL   H32019318   6.983   6.955   3.335  0.2190 -1.1285 -1.9376
   60MOL   H32119319   6.743   6.964   3.317 -1.7501  0.7971 -1.2951
   60MOL   H32219320   6.536   7.087   3.199 -1.0998  0.8878  3.4879
   61MOL     C119321   6.929   7.919   7.625 -0.5024  0.0337  0.0452
   61MOL     C219322   6.804   7.919   7.728  0.1684  0.0285 -0.8165
   61MOL     C319323   6.750   7.783   7.735  0.1554 -0.8789 -0.6921
   61MOL     C419324   6.622   7.753   7.683  0.4311 -0.8395 -0.0773
   61MOL     C519325   6.573   7.623   7.693 -0.5709 -0.0573 -0.3234
   61MOL     C619326   6.637   7.525   7.776 -0.0771  0.1101  0.0397
   61MOL     C719327   6.768   7.556   7.831 -0.3463 -0.1558  0.0226
   61MOL     C819328   6.825   7.678   7.804  0.5773  0.2357  0.3814
   61MOL     H919329   7.002   7.850   7.667 -1.0027  0.3598  1.4722
   61MOL    H1019330   6.905   7.895   7.522  0.4654 -0.7269 -0.0042
   61MOL    H1119331   6.726   7.988   7.695 -0.2335  0.6692  1.4080
   61MOL    H1219332   6.574   7.832   7.627 -1.2850  0.8746  3.6256
   61MOL    H1319333   6.475   7.599   7.657 -1.1373  3.6106 -1.3972
   61MOL    H1419334   6.595   7.428   7.798 -0.0073 -0.1514 -0.9315
   61MOL    H1519335   6.822   7.479   7.883  1.4912  0.1155 -1.4038
   61MOL    H1619336   6.926   7.701   7.834  0.7395  2.5265 -1.7397
   61MOL    H1719337   6.975   8.018   7.626  0.3451 -0.3535  0.4739
   61MOL    C1819338   6.838   7.971   7.874  0.4723 -0.5157 -0.2928
   61MOL    C1919339   6.857   0.008   7.891 -0.8239  0.2512  0.2303
   61MOL    C2019340   6.729   0.092   7.878 -0.0502  0.1476 -0.9131
   61MOL    C2119341   6.663   0.145   7.993 -1.1796 -0.5350  0.9311
   61MOL    C2219342   6.549   0.222   7.974  1.4919  0.7002 -0.3290
   61MOL    C2319343   6.500   0.249   7.842  0.3792 -0.1635  0.0389
   61MOL    C2419344   6.566   0.198   7.733 -0.9427 -0.0602  0.4486
   61MOL    C2519345   6.684   0.123   7.744  0.0157  0.4560  0.3771
   61MOL    H2619346   6.922   7.913   7.913 -1.8150 -2.0108  2.6986
   61MOL    H2719347   6.771   7.931   7.951  1.4175  0.5578  1.1256
   61MOL    H2819348   6.925   0.041   7.813 -0.7198 -1.3305 -0.3766
   61MOL    H2919349   6.703   0.117   8.089  2.7772  0.7185 -0.2759
   61MOL    H3019350   6.501   0.261   8.062 -0.3076 -0.3430 -0.8094
   61MOL    H3119351   6.410   0.305   7.820 -0.1550 -1.6861 -1.7093
   61MOL    H3219352   6.536   0.226   7.633  2.4204 -0.7508 -0.8169
   61MOL    H3319353   6.741   0.102   7.655  0.1731  3.3950 -0.2645
   61MOL    C3419354   6.933   0.047   8.019 -0.0044 -0.2972  0.0322
   61MOL    C3519355   7.079   0.001   8.028 -0.0313  0.0137 -0.5346
   61MOL    C3619356   7.182   0.079   7.951 -0.8374 -0.3062 -0.5399
   61MOL    C3719357   7.245   0.007   7.842 -0.4208 -0.1049  0.4857
   61MOL    C3819358   7.342   0.079   7.760  0.4619 -0.2346  0.5924
   61MOL    C3919359   7.365   0.214   7.788 -0.0821 -0.1099  0.5035
   61MOL    C4019360   7.301   0.284   7.887 -0.3336 -0.3332 -0.0413
   61MOL    C4119361   7.216   0.216   7.976  0.1376  0.1904 -0.0249
   61MOL    H4219362   6.874   0.017   8.105  2.0059  0.9496  1.8710
   61MOL    H4319363   6.937   0.155   8.026 -1.5625 -0.3012  1.1746
   61MOL    H4419364   7.087   8.012   7.995  1.2195 -0.2155  0.4156
   61MOL    H4519365   7.221   8.018   7.827 -3.9000  1.0282 -2.5089
   61MOL    H4619366   7.393   0.032   7.678  1.0952  3.3317 -1.1494
   61MOL    H4719367   7.423   0.270   7.716  0.9194 -0.5511  0.9556
   61MOL    H4819368   7.315   0.390   7.901 -0.6842 -0.2264 -0.4931
   61MOL    H4919369   7.176   0.278   8.055  0.7769  2.2731 -1.2932
   61MOL    C5019370   7.132   8.101   0.058  0.1828  0.4999  0.2531
   61MOL    C5119371   7.063   8.006   0.152 -0.1687  0.0415 -0.3469
   61MOL    C5219372   7.045   7.866   0.096  0.2314  0.0372  0.7689
   61MOL    C5319373   6.915   7.808   0.078  0.0586 -0.1868 -0.1066
   61MOL    C5419374   6.909   7.680   0.026  0.6529  0.4267  0.6516
   61MOL    C5519375   7.024   7.608   8.103 -0.5242  0.2424 -0.5453
   61MOL    C5619376   7.148   7.667   0.010 -0.1983  0.1442 -0.7124
   61MOL    C5719377   7.163   7.792   0.068  0.5851  0.1847 -0.2141
   61MOL    H5819378   7.136   0.087   0.100  2.8942  0.2322  0.7239
   61MOL    H5919379   7.234   8.063   0.048  0.1890  0.7926 -0.8857
   61MOL    H6019380   6.963   8.049   0.161 -0.7250 -1.6962  2.3416
   61MOL    H6119381   6.820   7.843   0.115 -2.1509 -1.6186 -4.1167
   61MOL    H6219382   6.812   7.638   0.001  0.8259 -1.7701  3.3602
   61MOL    H6319383   7.026   7.509   8.059  1.4094  0.6356 -1.3879
   61MOL    H6419384   7.241   7.614   0.002 -0.2590 -0.3951  1.9391
   61MOL    H6519385   7.254   7.838   0.102  0.4668  0.1273  0.1889
   61MOL    C6619386   7.130   7.997   0.293 -0.5089  0.1426  0.3575
   61MOL    C6719387   7.103   0.001   0.379  0.1707  0.4699 -0.2176
   61MOL    C6819388   6.953   0.003   0.411  0.2051  0.1747  0.5048
   61MOL    C6919389   6.894   8.028   0.504 -0.0119  0.6469 -0.0334
   61MOL    C7019390   6.755   8.036   0.538 -0.6492  0.6155  0.5971
   61MOL    C7119391   6.678   0.030   0.484 -0.3425  0.6824  0.0102
   61MOL    C7219392   6.738   0.118   0.385  0.1655  0.3791 -0.5017
   61MOL    C7319393   6.872   0.103   0.351 -0.2479 -0.2896  0.0002
   61MOL    H7419394   7.237   7.979   0.284 -0.9198 -1.4570 -1.9748
   61MOL    H7519395   7.084   7.916   0.349 -0.1337  0.4646  1.1388
   61MOL    H7619396   7.124   0.084   0.310 -1.1974  1.4886  0.5872
   61MOL    H7719397   6.947   7.948   0.553  2.6781  2.3735 -0.0184
   61MOL    H7819398   6.706   7.963   0.602 -0.6409 -1.0873 -1.2900
   61MOL    H7919399   6.573   0.039   0.509  0.0638  2.1458  1.3124
   61MOL    H8019400   6.670   0.190   0.343  0.0176  1.2100  1.1057
   61MOL    H8119401   6.916   0.173   0.280  0.2133  0.4541  1.0129
   61MOL    C8219402   7.187   0.019   0.501 -0.4879 -0.1678  0.4341
   61MOL    C8319403   7.333   0.049   0.474  0.1519 -0.1492  0.3548
   61MOL    C8419404   7.345   0.151   0.358 -0.7030 -0.8120 -0.3251
   61MOL    C8519405   7.426   0.124   0.246 -0.7820 -0.0473 -0.4174
   61MOL    C8619406   7.447   0.221   0.146 -0.2898 -0.3833  0.3476
   61MOL    C8719407   7.388   0.348   0.158 -0.3168  0.8806  0.2083
   61MOL    C8819408   7.297   0.378   0.268  0.6190  0.4871 -0.1813
   61MOL    C8919409   7.277   0.278   0.367  0.1172 -0.0941 -0.0093
   61MOL    H9019410   7.169   8.045   0.562 -0.5451 -1.2984 -1.1821
   61MOL    H9119411   7.130   0.099   0.549  1.5963  2.1530 -0.8602
   61MOL    H9219412   7.379   8.075   0.429  1.7864  0.6075  0.4978
   61MOL    H9319413   7.477   0.030   0.231  1.5664  1.2355 -0.7039
   61MOL    H9419414   7.503   0.203   0.056  2.1316  2.0809  1.3062
   61MOL    H9519415   7.407   0.420   0.080 -0.4795  0.2133 -0.4633
   61MOL    H9619416   7.254   0.476   0.282  1.1433  0.4821  1.6433
   61MOL    H9719417   7.221   0.292   0.459 -1.0648 -1.0793 -0.5608
   61MOL    C9819418   7.414   0.092   0.607 -0.5552 -0.2365  0.0031
   61MOL    C9919419   7.425   8.089   0.708  0.9151 -0.2734  0.1383
   61MOL   C10019420   7.516   7.981   0.654 -0.3263  0.1231 -0.5364
   61MOL   C10119421   7.657   8.003   0.622 -0.3287 -0.4459  0.5294
   61MOL   C10219422   7.743   7.897   0.575 -0.1828 -0.1766  0.2953
   61MOL   C10319423   7.687   7.770   0.550 -0.1629  0.0646 -0.3556
   61MOL   C10419424   7.550   7.749   0.578  0.0631 -0.0998  0.3383
   61MOL   C10519425   7.466   7.852   0.628 -0.3315  0.6045  0.2654
   61MOL   H10619426   7.361   0.172   0.658  1.2482  0.2248  1.1746
   61MOL   H10719427   7.517   0.121   0.588 -0.3221 -0.0809  1.4670
   61MOL   H10819428   7.327   8.043   0.715 -0.2788  2.0450 -0.7674
   61MOL   H10919429   7.702   8.098   0.647  2.4539 -0.9608 -2.3040
   61MOL   H11019430   7.846   7.925   0.558 -0.2058 -0.8670 -1.0617
   61MOL   H11119431   7.748   7.682   0.538 -1.4483 -0.9607  0.5672
   61MOL   H11219432   7.501   7.653   0.565 -3.3207  1.5242  0.4239
   61MOL   H11319433   7.363   7.832   0.654 -0.2361 -1.0388 -0.5473
   61MOL   C11419434   7.462   0.016   0.848  0.5710 -0.5238 -0.8861
   61MOL   C11519435   7.350   0.078   0.938  0.1904 -0.1881 -0.0282
   61MOL   C11619436   7.210   0.013   0.915  0.2269  0.0620 -0.4658
   61MOL   C11719437   7.109   0.088   0.854  0.3781 -0.1191 -0.4707
   61MOL   C11819438   6.990   0.026   0.817  1.0610  0.6366  0.2231
   61MOL   C11919439   6.965   8.008   0.852 -0.6672  0.5456  0.1195
   61MOL   C12019440   7.068   7.930   0.922  0.1798  0.6175 -0.0483
   61MOL   C12119441   7.189   7.988   0.948 -0.1186 -0.0500 -0.5098
   61MOL   H12219442   7.548   0.084   0.846 -0.5893  1.2251  2.8005
   61MOL   H12319443   7.494   8.036   0.891 -0.4614 -1.3079 -1.8584
   61MOL   H12419444   7.348   0.186   0.926  1.2591 -0.3667 -2.0140
   61MOL   H12519445   7.116   0.194   0.831  0.2383 -0.7792 -3.8352
   61MOL   H12619446   6.912   0.087   0.775  2.5184  3.1441  1.0359
   61MOL   H12719447   6.867   7.964   0.838  0.2685 -1.7676  0.6555
   61MOL   H12819448   7.052   7.826   0.946 -0.5340  0.5720 -0.7177
   61MOL   H12919449   7.265   7.929   0.997 -1.0626 -1.9421 -1.2775
   61MOL   C13019450   7.402   0.064   1.085 -0.3554  0.3728  0.0620
   61MOL   C13119451   7.470   0.197   1.141 -1.1136  0.4989 -0.4003
   61MOL   C13219452   7.367   0.309   1.178  0.6624  1.1440 -0.3566
   61MOL   C13319453   7.263   0.276   1.275  0.2091  0.2597  0.0243
   61MOL   C13419454   7.169   0.377   1.301  0.4304 -0.3028 -0.1311
   61MOL   C13519455   7.175   0.504   1.234 -0.7741  0.0577  0.1915
   61MOL   C13619456   7.276   0.539   1.144 -0.6652  0.5461 -0.2856
   61MOL   C13719457   7.368   0.435   1.113  0.2994  0.0751 -0.4523
   61MOL   H13819458   7.481   8.106   1.097 -2.0034 -1.3292  0.8889
   61MOL   H13919459   7.323   0.045   1.159  1.2748 -1.7334  1.3295
   61MOL   H14019460   7.533   0.231   1.058 -0.6722  1.1521  0.1925
   61MOL   H14119461   7.257   0.180   1.323  0.0513 -0.4094 -1.3105
   61MOL   H14219462   7.087   0.368   1.372  0.4394  0.9412  0.0628
   61MOL   H14319463   7.101   0.575   1.267 -2.1156 -0.4702 -1.5958
   61MOL   H14419464   7.275   0.641   1.108  2.1607  0.3220 -1.1124
   61MOL   H14519465   7.441   0.450   1.035  0.2653 -1.8477 -0.8790
   61MOL   C14619466   7.562   0.176   1.262 -0.5940 -0.5490 -0.0930
   61MOL   C14719467   7.680   0.079   1.253 -0.0626  0.4035  0.0533
   61MOL   C14819468   7.783   0.144   1.156 -0.7382  0.2186  0.0607
   61MOL   C14919469   7.783   0.091   1.023 -0.0768  0.5432  0.2963
   61MOL   C15019470   7.849   0.150   0.915 -0.0029 -0.0048  0.3807
   61MOL   C15119471   7.937   0.256   0.942 -0.0870  0.7255  0.3601
   61MOL   C15219472   7.944   0.309   1.072 -0.0916 -0.1881 -0.7778
   61MOL   C15319473   7.865   0.258   1.182 -0.2782 -0.2005 -0.2451
   61MOL   H15419474   7.497   0.152   1.346  0.5735  1.0803  1.3245
   61MOL   H15519475   7.587   0.277   1.293 -1.6859 -0.6678  1.2404
   61MOL   H15619476   7.649   8.095   1.217 -3.6471  0.6285  2.2936
   61MOL   H15719477   7.716   0.009   0.999  0.1559  0.0772  1.2041
   61MOL   H15819478   7.835   0.103   0.819  0.6899  1.8955 -0.6771
   61MOL   H15919479   8.008   0.296   0.872  1.6661 -1.3228  0.9083
   61MOL   H16019480   8.015   0.388   1.092  2.1043 -1.7729 -2.1732
   61MOL   H16119481   7.874   0.304   1.279  0.9205 -0.8229 -0.0473
   61MOL   C16219482   7.740   0.046   1.393 -0.7915 -0.5397  0.1834
   61MOL   C16319483   7.872   8.078   1.394 -0.2325  0.0782 -0.3536
   61MOL   C16419484   7.989   0.058   1.434 -0.6259  0.4005  0.0360
   61MOL   C16519485   8.006   0.116   1.566  0.5674  0.2385  0.6679
   61MOL   C16619486   0.006   0.187   1.597  0.0410 -0.0396  0.0886
   61MOL   C16719487   0.104   0.214   1.504  0.1403 -0.2746  0.0135
   61MOL   C16819488   0.084   0.165   1.369  0.1456  0.1583 -0.6195
   61MOL   C16919489   8.087   0.084   1.337 -0.3354  0.8490  0.2320
   61MOL   H17019490   7.664   8.112   1.454 -0.6915  0.2652  0.9568
   61MOL   H17119491   7.751   0.143   1.440 -1.0478 -0.2912 -0.2654
   61MOL   H17219492   7.891   8.035   1.296 -0.4315  1.5526 -1.0569
   61MOL   H17319493   7.926   0.093   1.635 -1.1790 -0.7056 -1.6139
   61MOL   H17419494   0.017   0.236   1.693 -2.2631 -2.7344  1.7813
   61MOL   H17519495   0.187   0.277   1.530 -1.0903  0.6562  1.8547
   61MOL   H17619496   0.157   0.185   1.292 -0.4291  4.1153 -0.2225
   61MOL   H17719497   8.077   0.038   1.239  2.0188 -0.0269  0.3822
   61MOL   C17819498   7.872   7.960   1.493  0.0193 -0.5413  0.3232
   61MOL   C17919499   7.807   7.829   1.449 -0.0263 -0.1951  0.5765
   61MOL   C18019500   7.897   7.771   1.338  0.1250 -0.3269  0.1823
   61MOL   C18119501   7.838   7.744   1.212 -0.6551  0.0902 -0.2652
   61MOL   C18219502   7.918   7.694   1.109 -0.4882  0.0313 -0.5653
   61MOL   C18319503   8.054   7.662   1.129  0.3249 -0.7071 -0.4558
   61MOL   C18419504   8.112   7.673   1.255  0.4469 -0.8012 -0.0530
   61MOL   C18519505   8.031   7.725   1.359 -0.0925 -0.3106  0.3826
   61MOL   H18619506   7.832   7.998   1.588 -1.1210 -0.9580  0.0243
   61MOL   H18719507   7.975   7.934   1.517 -0.1682 -2.0717 -0.4852
   61MOL   H18819508   7.714   7.859   1.402 -0.6288 -0.7607  1.4029
   61MOL   H18919509   7.736   7.773   1.191 -0.5908 -1.4021 -2.8258
   61MOL   H19019510   7.892   7.690   1.004  1.1830  0.5387 -1.0146
   61MOL   H19119511   8.104   7.625   1.041  0.0671 -1.0421 -0.4597
   61MOL   H19219512   0.102   7.652   1.266  0.0870 -2.3280  0.6993
   61MOL   H19319513   8.077   7.739   1.456  1.9887  1.8119 -0.8396
   61MOL   C19419514   7.783   7.728   1.557 -0.2509 -0.1540  0.7899
   61MOL   C19519515   7.695   7.761   1.677 -0.2977 -0.1037  0.9821
   61MOL   C19619516   7.579   7.855   1.642 -0.9226 -0.4475 -0.2396
   61MOL   C19719517   7.568   7.981   1.705  0.1829 -0.0532 -0.6681
   61MOL   C19819518   7.464   8.070   1.678 -0.1233  0.1919 -0.8702
   61MOL   C19919519   7.356   8.018   1.602  0.1072 -0.1400  0.5079
   61MOL   C20019520   7.371   7.903   1.523 -0.4330 -0.2621  0.3881
   61MOL   C20119521   7.485   7.823   1.547 -0.2701  0.0575 -0.1887
   61MOL   H20219522   7.881   7.703   1.598 -0.6168 -2.6204  0.2795
   61MOL   H20319523   7.743   7.639   1.508  1.3666 -0.0880 -0.6744
   61MOL   H20419524   7.761   7.804   1.752  2.6595 -0.1922 -1.4980
   61MOL   H20519525   7.646   8.017   1.770 -0.9599 -1.4431  1.5183
   61MOL   H20619526   7.463   0.051   1.728  2.2253 -0.3678  0.3139
   61MOL   H20719527   7.269   8.082   1.594  0.9278  0.7797 -1.3270
   61MOL   H20819528   7.293   7.875   1.455  1.2970  0.3722 -1.9148
   61MOL   H20919529   7.503   7.731   1.493 -0.0501  1.0250 -1.8179
   61MOL   C21019530   7.637   7.636   1.745  0.0519 -0.2980 -0.4149
   61MOL   C21119531   7.738   7.539   1.818  0.4690  0.0468 -0.3425
   61MOL   C21219532   7.844   7.612   1.902 -0.7483 -0.3841 -0.2903
   61MOL   C21319533   7.983   7.614   1.869 -0.1637 -0.0750 -0.6633
   61MOL   C21419534   8.075   7.662   1.966  0.7217  0.4145  0.2152
   61MOL   C21519535   8.028   7.732   2.076  0.5367 -0.3194  0.0178
   61MOL   C21619536   7.889   7.731   2.112  0.1874  0.6049  0.5054
   61MOL   C21719537   7.797   7.662   2.027 -0.4518  0.4167  0.0434
   61MOL   H21819538   7.582   7.569   1.679  0.9002 -0.5498 -0.8710
   61MOL   H21919539   7.564   7.668   1.819 -1.2456  1.9526 -2.6225
   61MOL   H22019540   7.803   7.502   1.738 -0.5279  2.7423 -2.4871
   61MOL   H22119541   8.019   7.560   1.782  0.4625 -1.1596  0.2434
   61MOL   H22219542   0.068   7.653   1.956  0.8229  1.6604  0.1070
   61MOL   H22319543   8.097   7.782   2.143  2.2641  1.6627 -3.1119
   61MOL   H22419544   7.841   7.782   2.194 -1.3068 -1.3837  0.8867
   61MOL   H22519545   7.693   7.654   2.055 -0.1426 -1.7789  0.6366
   61MOL   C22619546   7.669   7.421   1.895 -0.5541 -0.3541 -0.1261
   61MOL   C22719547   7.648   7.297   1.805  0.2722 -0.4841 -0.0782
   61MOL   C22819548   7.783   7.231   1.784  0.3163  0.3325 -0.8839
   61MOL   C22919549   7.847   7.157   1.886 -0.3643 -0.0368 -0.1305
   61MOL   C23019550   7.974   7.099   1.864  0.0757 -0.5821 -0.8310
   61MOL   C23119551   8.026   7.111   1.734 -0.3419 -0.1590 -0.5272
   61MOL   C23219552   7.968   7.183   1.633  0.0361 -0.3081 -0.6688
   61MOL   C23319553   7.838   7.233   1.657 -0.5060  0.3014 -0.3713
   61MOL   H23419554   7.579   7.457   1.945  0.4781  0.7294  0.9725
   61MOL   H23519555   7.746   7.393   1.966  0.1066 -0.5162 -0.9038
   61MOL   H23619556   7.606   7.333   1.711 -1.3362  1.0082  1.1844
   61MOL   H23719557   7.796   7.160   1.981 -2.3691 -0.6934 -1.1517
   61MOL   H23819558   8.022   7.034   1.936  2.6013  1.2387 -0.7740
   61MOL   H23919559   0.006   7.061   1.720  0.2930  0.9680 -0.3390
   61MOL   H24019560   8.000   7.172   1.530 -0.7435  2.0649 -1.2100
   61MOL   H24119561   7.776   7.263   1.573  0.8395 -2.1821 -2.3445
   61MOL   C24219562   7.543   7.199   1.846  0.3201  0.5030 -0.4002
   61MOL   C24319563   7.398   7.249   1.854  0.7632 -0.3690  0.2462
   61MOL   C24419564   7.351   7.304   1.720  0.3225 -0.1982 -0.5865
   61MOL   C24519565   7.339   7.443   1.694 -0.3064  1.1006  0.4622
   61MOL   C24619566   7.308   7.495   1.566  0.0923 -0.1469  0.6855
   61MOL   C24719567   7.301   7.403   1.461 -0.0288  0.0533  0.6927
   61MOL   C24819568   7.299   7.264   1.488 -0.8636 -0.5655  0.5964
   61MOL   C24919569   7.333   7.213   1.613  0.0089  0.4072 -0.1921
   61MOL   H25019570   7.563   7.147   1.940  0.8319  0.0412 -0.7614
   61MOL   H25119571   7.546   7.115   1.777  0.6133  0.7770 -0.7217
   61MOL   H25219572   7.402   7.331   1.925 -0.4095 -0.2607  0.1816
   61MOL   H25319573   7.350   7.522   1.767 -1.9673  2.3366 -0.5656
   61MOL   H25419574   7.297   7.603   1.563  2.4445  0.1974  3.0182
   61MOL   H25519575   7.276   7.436   1.362 -0.2033  0.8057  0.9830
   61MOL   H25619576   7.282   7.196   1.406  1.1833 -0.3412 -0.0377
   61MOL   H25719577   7.347   7.106   1.616 -0.9871  0.2783 -0.0700
   61MOL   C25819578   7.305   7.137   1.902 -1.1477 -0.7874  0.1111
   61MOL   C25919579   7.153   7.169   1.909 -0.1146  0.6026  0.3285
   61MOL   C26019580   7.064   7.087   1.816  0.1944 -0.5533 -0.0389
   61MOL   C26119581   6.953   7.151   1.765  0.5027 -0.2399 -0.5250
   61MOL   C26219582   6.863   7.088   1.685  0.0723 -0.5215 -0.7237
   61MOL   C26319583   6.888   6.954   1.655 -0.1443  0.6496  0.5670
   61MOL   C26419584   7.003   6.886   1.708  0.2599 -0.2013  0.2645
   61MOL   C26519585   7.095   6.952   1.794 -0.0220 -0.1085  0.5934
   61MOL   H26619586   7.345   7.102   1.997 -0.2405 -0.0102  0.0272
   61MOL   H26719587   7.328   7.049   1.841 -2.2313  0.0130 -1.4907
   61MOL   H26819588   7.144   7.273   1.877  0.0862  0.3396 -0.5886
   61MOL   H26919589   6.933   7.254   1.793  0.2790 -0.1018 -1.1916
   61MOL   H27019590   6.788   7.144   1.631 -0.9734 -1.4125 -0.2231
   61MOL   H27119591   6.825   6.906   1.581  1.8448 -0.1850 -0.6525
   61MOL   H27219592   7.020   6.786   1.672  0.1052  0.2029 -0.9605
   61MOL   H27319593   7.184   6.901   1.828 -0.7683 -1.4181  0.6582
   61MOL   C27419594   7.104   7.154   2.056  0.0175  0.0330 -0.2972
   61MOL   C27519595   7.065   7.294   2.119 -0.0082  0.0334 -0.0570
   61MOL   C27619596   6.952   7.368   2.046 -0.1932 -0.2920  0.6506
   61MOL   C27719597   6.823   7.312   2.047  0.2878  0.4286  0.1472
   61MOL   C27819598   6.714   7.386   1.988  0.3686 -0.7767 -0.6635
   61MOL   C27919599   6.737   7.509   1.929  0.5468 -0.2116  0.6906
   61MOL   C28019600   6.873   7.560   1.928 -0.1929 -0.4871 -0.6446
   61MOL   C28119601   6.980   7.495   1.988 -0.5497 -0.8614  0.0784
   61MOL   H28219602   7.171   7.096   2.119 -0.1819  0.0682 -0.0556
   61MOL   H28319603   7.016   7.089   2.061  0.3272 -0.3440  0.2773
   61MOL   H28419604   7.151   7.359   2.100 -0.9309  0.6594 -2.2742
   61MOL   H28519605   6.804   7.213   2.083 -2.2908  0.9840  0.3521
   61MOL   H28619606   6.611   7.355   1.975 -0.7667  2.4546  0.2453
   61MOL   H28719607   6.657   7.550   1.869  1.7524 -0.6714 -1.2943
   61MOL   H28819608   6.891   7.653   1.877 -0.3406  0.1716  0.4856
   61MOL   H28919609   7.081   7.530   1.980 -0.8168 -0.5902 -2.3225
   61MOL   C29019610   7.023   7.268   2.267  0.1962 -0.2460 -0.7311
   61MOL   C29119611   6.952   7.381   2.347 -0.8768 -0.0747  0.0282
   61MOL   C29219612   6.899   7.345   2.484  0.6935 -0.4974  0.6912
   61MOL   C29319613   6.966   7.245   2.563  0.4280 -0.1052 -0.1757
   61MOL   C29419614   6.913   7.206   2.691 -0.3046  0.3177 -0.1114
   61MOL   C29519615   6.797   7.262   2.731  0.3085 -0.3963  0.2876
   61MOL   C29619616   6.736   7.370   2.661 -0.0046  0.6106  0.0736
   61MOL   C29719617   6.788   7.410   2.539 -0.3996  0.0724  0.4968
   61MOL   H29819618   7.106   7.223   2.322 -1.0938 -3.7181 -1.5464
   61MOL   H29919619   6.955   7.183   2.261  1.6585 -1.4610 -0.4737
   61MOL   H30019620   6.863   7.405   2.288 -1.4157  2.1664  1.6818
   61MOL   H30119621   7.061   7.204   2.533 -0.1173 -0.9848 -0.6878
   61MOL   H30219622   6.956   7.124   2.746  0.5063 -0.3339 -1.6685
   61MOL   H30319623   6.756   7.227   2.824 -0.7818 -2.8811 -1.0483
   61MOL   H30419624   6.656   7.426   2.707  0.8309 -1.2090  3.9608
   61MOL   H30519625   6.739   7.485   2.479 -0.5591 -0.5257 -0.1236
   61MOL   C30619626   7.047   7.509   2.353  0.5003  0.6195  0.1946
   61MOL   C30719627   7.163   7.490   2.454  0.1113  0.2312  0.1719
   61MOL   C30819628   7.291   7.557   2.424  0.2517 -0.2967 -0.0223
   61MOL   C30919629   7.388   7.513   2.332  0.8852 -0.2938 -1.0989
   61MOL   C31019630   7.501   7.583   2.296  0.9158 -0.2425 -0.3531
   61MOL   C31119631   7.523   7.702   2.361 -0.9674 -0.7115  0.3644
   61MOL   C31219632   7.426   7.757   2.450  0.6543 -0.7141 -0.4170
   61MOL   C31319633   7.308   7.679   2.484 -0.5920 -0.3046  0.3253
   61MOL   H31419634   6.995   7.603   2.370  1.0939  1.3991 -2.0507
   61MOL   H31519635   7.095   7.532   2.258  1.9711 -1.0078  0.5178
   61MOL   H31619636   7.195   7.386   2.464 -0.4955 -0.0901 -1.0804
   61MOL   H31719637   7.376   7.420   2.279  0.4638 -0.3138 -0.9665
   61MOL   H31819638   7.572   7.544   2.224 -0.6876 -1.0386 -1.5469
   61MOL   H31919639   7.616   7.753   2.342 -1.4004  0.2042  0.6559
   61MOL   H32019640   7.448   7.852   2.497  1.1470 -0.8936 -0.2850
   61MOL   H32119641   7.237   7.726   2.551 -0.3492 -2.8407  2.4569
   61MOL   H32219642   7.130   7.519   2.554  1.0704 -3.3906  1.6228
   62MOL     C119643   6.475   3.222   3.564  0.6733 -0.9345  0.8760
   62MOL     C219644   6.408   3.109   3.643  0.2931 -0.2374  0.1305
   62MOL     C319645   6.268   3.142   3.697  0.0474  0.8034 -1.1562
   62MOL     C419646   6.187   3.231   3.627 -0.2989 -0.0355 -1.1033
   62MOL     C519647   6.061   3.264   3.679 -0.4066 -0.2198 -0.1552
   62MOL     C619648   6.022   3.216   3.808 -0.8210 -0.3635  0.1847
   62MOL     C719649   6.115   3.145   3.888  0.3649 -0.7677 -0.8336
   62MOL     C819650   6.239   3.099   3.829  0.0691 -0.0594 -0.6747
   62MOL     H919651   6.429   3.251   3.469  1.0321  2.1039  1.5607
   62MOL    H1019652   6.474   3.311   3.627 -0.3944  0.7219 -1.3821
   62MOL    H1119653   6.470   3.094   3.731  0.6635  0.0181 -0.0830
   62MOL    H1219654   6.205   3.268   3.527  1.8561  1.9552 -0.0265
   62MOL    H1319655   6.010   3.343   3.627 -2.3722 -1.1214  0.3744
   62MOL    H1419656   5.922   3.242   3.837 -0.2890  0.5256  1.2921
   62MOL    H1519657   6.085   3.104   3.984 -2.0808  0.4734 -1.0132
   62MOL    H1619658   6.308   3.041   3.888 -0.0408  0.9016  0.4157
   62MOL    H1719659   6.576   3.193   3.534  1.1056  0.1887  1.2009
   62MOL    C1819660   6.404   2.987   3.550 -0.5759  0.1833  0.0392
   62MOL    C1919661   6.345   2.851   3.606  0.1682 -0.8864  0.4497
   62MOL    C2019662   6.219   2.811   3.526 -0.2876 -0.0063 -0.9198
   62MOL    C2119663   6.100   2.785   3.597 -0.7901 -0.3414 -0.3962
   62MOL    C2219664   5.985   2.728   3.533  0.1950  0.0067  0.2407
   62MOL    C2319665   5.992   2.702   3.396 -0.5082  0.8110 -0.8191
   62MOL    C2419666   6.105   2.741   3.319  0.0638  0.6152  0.0402
   62MOL    C2519667   6.214   2.795   3.387  0.6478  0.6587 -0.0635
   62MOL    H2619668   6.509   2.974   3.525 -0.2303  1.5837  0.7251
   62MOL    H2719669   6.353   3.019   3.459 -1.8812 -1.6110  0.1171
   62MOL    H2819670   6.313   2.866   3.709  0.1696  3.8554 -0.1131
   62MOL    H2919671   6.106   2.796   3.704 -0.7981 -0.0478 -0.4268
   62MOL    H3019672   5.894   2.712   3.590  0.0215  1.6212  0.4411
   62MOL    H3119673   5.912   2.651   3.346  0.3592 -0.4974 -0.8872
   62MOL    H3219674   6.112   2.740   3.211 -0.2267  0.5221  0.0213
   62MOL    H3319675   6.296   2.826   3.325  1.0980 -1.1984 -0.4337
   62MOL    C3419676   6.446   2.735   3.610 -0.3510 -0.1716 -0.0886
   62MOL    C3519677   6.564   2.766   3.702  0.0093 -0.5663 -0.4840
   62MOL    C3619678   6.517   2.785   3.846  0.0176  0.3238  0.2915
   62MOL    C3719679   6.557   2.895   3.920 -1.3416  1.0857  0.1537
   62MOL    C3819680   6.500   2.926   4.045  0.1373 -0.1997 -0.3230
   62MOL    C3919681   6.401   2.839   4.094 -0.5685  0.0811  0.1520
   62MOL    C4019682   6.366   2.724   4.027  0.9040 -0.0431  0.2822
   62MOL    C4119683   6.427   2.693   3.906 -0.3120  0.3688  0.7920
   62MOL    H4219684   6.476   2.709   3.508 -0.6331  1.7714 -0.6893
   62MOL    H4319685   6.388   2.653   3.653 -2.0707 -0.5164 -2.9351
   62MOL    H4419686   6.609   2.859   3.667  0.1867 -0.0308  1.1063
   62MOL    H4519687   6.629   2.960   3.873 -0.2486  2.4450  3.5620
   62MOL    H4619688   6.535   3.017   4.091  1.0107  0.9660 -3.1720
   62MOL    H4719689   6.369   2.857   4.196  0.4825  0.2736  0.4566
   62MOL    H4819690   6.290   2.657   4.065  0.9490 -0.9821 -1.2516
   62MOL    H4919691   6.399   2.595   3.869  1.4995 -0.0307  0.4186
   62MOL    C5019692   6.664   2.647   3.692 -0.5553  0.9779  0.5006
   62MOL    C5119693   6.744   2.648   3.560  0.0764 -0.4722 -0.6965
   62MOL    C5219694   6.824   2.778   3.552 -0.1329  0.9377  0.4535
   62MOL    C5319695   6.939   2.808   3.627  0.4755 -1.0689 -0.0324
   62MOL    C5419696   7.015   2.927   3.598  0.5384  0.4920 -0.1057
   62MOL    C5519697   6.976   3.017   3.494 -0.1622  0.0376 -0.0472
   62MOL    C5619698   6.863   2.986   3.420  0.7731  0.4531 -0.4314
   62MOL    C5719699   6.792   2.865   3.441  0.0688 -0.2500 -0.2526
   62MOL    H5819700   6.620   2.550   3.714 -1.4775  1.2925  0.0434
   62MOL    H5919701   6.732   2.654   3.777 -1.2011  0.2611  1.0808
   62MOL    H6019702   6.676   2.644   3.475  0.1253 -0.6570 -0.7277
   62MOL    H6119703   6.978   2.742   3.703  1.4165  1.0820  1.4163
   62MOL    H6219704   7.101   2.947   3.661  1.8672  0.3911 -1.8427
   62MOL    H6319705   7.033   3.108   3.482 -0.4506  0.2756  0.3604
   62MOL    H6419706   6.835   3.060   3.346 -0.9409  1.2498  0.9677
   62MOL    H6519707   6.706   2.839   3.380 -0.3443  0.8983 -0.1620
   62MOL    C6619708   6.840   2.532   3.545 -0.4200 -1.1583  0.1704
   62MOL    C6719709   6.784   2.388   3.524  0.2313 -0.4283 -0.7652
   62MOL    C6819710   6.703   2.379   3.392  0.5352  0.1806  0.0619
   62MOL    C6919711   6.766   2.357   3.268  0.7033  0.5250  0.8047
   62MOL    C7019712   6.683   2.363   3.149  0.3118  0.2791 -0.3938
   62MOL    C7119713   6.542   2.394   3.154  0.4053 -0.7830 -0.3275
   62MOL    C7219714   6.487   2.422   3.278  0.1492  0.1130 -0.0306
   62MOL    C7319715   6.564   2.413   3.395  0.2161 -0.7529  0.4983
   62MOL    H7419716   6.901   2.536   3.635  0.0346  0.0901 -0.1893
   62MOL    H7519717   6.907   2.551   3.461 -2.1977 -1.4845 -1.3514
   62MOL    H7619718   6.719   2.365   3.608 -0.9082  0.2369 -1.4632
   62MOL    H7719719   6.873   2.341   3.272  0.3352 -2.4180  0.0720
   62MOL    H7819720   6.733   2.344   3.055 -0.2972  0.5601 -0.7796
   62MOL    H7919721   6.476   2.391   3.069 -0.8367 -0.8715  0.6316
   62MOL    H8019722   6.382   2.440   3.293  0.1641 -1.0541  1.6431
   62MOL    H8119723   6.504   2.430   3.483 -1.4828  0.2084 -0.8129
   62MOL    C8219724   6.908   2.288   3.527  0.1941  0.3316 -0.9344
   62MOL    C8319725   6.993   2.272   3.655  0.4376 -1.0904 -0.0710
   62MOL    C8419726   6.909   2.262   3.784 -0.4508 -0.3908 -0.4814
   62MOL    C8519727   6.814   2.153   3.800 -0.1184 -0.8465 -0.0650
   62MOL    C8619728   6.740   2.148   3.920 -0.2445  0.2458  0.0319
   62MOL    C8719729   6.755   2.252   4.017  0.3398 -0.2414 -0.8257
   62MOL    C8819730   6.839   2.361   3.994  0.1622 -0.9729 -0.3998
   62MOL    C8919731   6.921   2.364   3.881 -0.6038 -0.7561  0.6352
   62MOL    H9019732   6.988   2.311   3.457 -0.1073  3.5179 -0.2958
   62MOL    H9119733   6.861   2.191   3.510 -0.4554  0.5481 -0.3961
   62MOL    H9219734   7.058   2.359   3.663 -1.7408  0.4055  2.0951
   62MOL    H9319735   6.792   2.072   3.731 -1.3724  0.6049 -1.4230
   62MOL    H9419736   6.668   2.071   3.943 -1.5637  1.8657  1.4043
   62MOL    H9519737   6.700   2.254   4.110  1.8966  1.1067  0.0937
   62MOL    H9619738   6.847   2.442   4.065 -1.4113 -1.0383 -0.1208
   62MOL    H9719739   6.987   2.446   3.862 -2.6093  0.9429  0.8115
   62MOL    C9819740   7.085   2.148   3.645 -0.5955  0.2417 -0.3866
   62MOL    C9919741   7.203   2.138   3.741  0.3032 -0.6374 -0.0323
   62MOL   C10019742   7.253   1.994   3.761 -0.2118  0.1228 -0.1259
   62MOL   C10119743   7.350   1.969   3.863 -0.1449 -0.0492  0.4059
   62MOL   C10219744   7.388   1.840   3.890  0.1625  0.0206  0.1901
   62MOL   C10319745   7.342   1.729   3.821  0.0957 -0.4566 -0.0901
   62MOL   C10419746   7.263   1.750   3.708 -0.1605  0.0224  0.3162
   62MOL   C10519747   7.214   1.881   3.677  0.1455  0.1960  0.0679
   62MOL   H10619748   7.122   2.136   3.543 -0.2034  1.8274 -0.4402
   62MOL   H10719749   7.035   2.053   3.665  1.0677 -0.0577  2.8099
   62MOL   H10819750   7.166   2.165   3.840  0.4317 -0.7275  0.0412
   62MOL   H10919751   7.379   2.050   3.929  1.5710 -0.3137 -0.0078
   62MOL   H11019752   7.452   1.841   3.977  0.1575 -0.9432  0.2156
   62MOL   H11119753   7.383   1.632   3.845 -0.6935 -0.3477  1.8262
   62MOL   H11219754   7.226   1.659   3.664  1.7930 -0.2818 -0.7726
   62MOL   H11319755   7.140   1.891   3.599  0.7197 -1.0635 -0.6540
   62MOL   C11419756   7.324   2.236   3.717  0.6220  0.0040 -0.7449
   62MOL   C11519757   7.382   2.233   3.570 -0.6983 -0.8298 -0.3094
   62MOL   C11619758   7.309   2.331   3.478  0.1834  0.1422 -0.4760
   62MOL   C11719759   7.270   2.277   3.354 -0.2813 -0.2718 -0.2542
   62MOL   C11819760   7.191   2.353   3.269 -0.1909  0.5093  0.1503
   62MOL   C11919761   7.157   2.490   3.300  0.0453 -0.2416  0.2613
   62MOL   C12019762   7.208   2.545   3.417 -0.2960 -0.0973 -1.4465
   62MOL   C12119763   7.277   2.463   3.509 -0.1760  0.0451  0.0113
   62MOL   H12219764   7.394   2.221   3.800 -0.5005  1.2316  0.4560
   62MOL   H12319765   7.280   2.330   3.748  1.1669  0.3489 -1.0109
   62MOL   H12419766   7.361   2.131   3.537  0.5531 -0.8823 -0.9698
   62MOL   H12519767   7.293   2.174   3.331  3.2625  0.7876 -1.9230
   62MOL   H12619768   7.165   2.316   3.171  0.5317  2.1881 -0.6788
   62MOL   H12719769   7.112   2.558   3.230 -1.0784  1.4556  2.5453
   62MOL   H12819770   7.194   2.651   3.436 -1.8854 -0.8307  1.7380
   62MOL   H12919771   7.319   2.498   3.602  1.0845 -0.2374 -0.4287
   62MOL   C13019772   7.531   2.258   3.557  0.0956 -0.3564 -0.8688
   62MOL   C13119773   7.632   2.151   3.592 -0.2410 -0.2607 -0.0574
   62MOL   C13219774   7.626   2.031   3.493  0.0589  0.1706  0.5161
   62MOL   C13319775   7.676   2.043   3.361  0.5818 -0.1254  0.5220
   62MOL   C13419776   7.679   1.928   3.269 -0.2850  0.6373 -0.1099
   62MOL   C13519777   7.641   1.803   3.320  0.4258 -0.7123  0.3086
   62MOL   C13619778   7.602   1.789   3.456 -0.4233  0.3362  0.4045
   62MOL   C13719779   7.592   1.902   3.539  0.1077 -0.4014  0.0561
   62MOL   H13819780   7.563   2.349   3.607  0.9159 -1.4636  0.6686
   62MOL   H13919781   7.563   2.287   3.457  1.1198  2.2907  0.1808
   62MOL   H14019782   7.607   2.110   3.690  2.3775 -0.3193  0.6232
   62MOL   H14119783   7.698   2.141   3.321  0.3845 -0.6678 -0.9251
   62MOL   H14219784   7.699   1.939   3.164  4.1580  0.0996  0.5803
   62MOL   H14319785   7.652   1.713   3.261 -0.8415 -1.8633  1.7818
   62MOL   H14419786   7.582   1.691   3.498 -0.8701 -0.2011 -1.0181
   62MOL   H14519787   7.562   1.891   3.642  0.9351  0.3114  0.3814
   62MOL   C14619788   7.782   2.198   3.595  0.2206 -0.0941  0.7051
   62MOL   C14719789   7.819   2.278   3.722 -0.0315  0.0559  1.0263
   62MOL   C14819790   7.773   2.216   3.860 -0.0728  0.1968 -0.2936
   62MOL   C14919791   7.724   2.298   3.959  0.1186 -0.9490 -0.5657
   62MOL   C15019792   7.710   2.246   4.089  0.0156  0.5721  0.2637
   62MOL   C15119793   7.718   2.111   4.113 -0.5210  0.0846 -0.2147
   62MOL   C15219794   7.762   2.022   4.010 -0.3277 -0.7137 -0.3413
   62MOL   C15319795   7.796   2.078   3.885 -0.0074 -0.0014  0.4527
   62MOL   H15419796   7.794   2.261   3.507  0.0239  0.1079  0.8208
   62MOL   H15519797   7.841   2.107   3.584 -0.5642 -0.3888 -1.2394
   62MOL   H15619798   7.772   2.376   3.727  0.2642  0.1321  2.6289
   62MOL   H15719799   7.709   2.405   3.952 -2.7066 -1.3746 -1.4812
   62MOL   H15819800   7.691   2.308   4.175 -0.2453 -0.0114  0.6297
   62MOL   H15919801   7.707   2.071   4.213  1.2816 -2.0023 -0.8100
   62MOL   H16019802   7.773   1.918   4.037  1.2965 -0.7914 -1.2017
   62MOL   H16119803   7.838   2.017   3.807 -3.0928 -1.1777 -0.3750
   62MOL   C16219804   7.977   2.296   3.728 -1.0170  0.1787 -0.4696
   62MOL   C16319805   8.033   2.380   3.605 -0.1964 -0.7132 -0.0499
   62MOL   C16419806   7.970   2.524   3.612  0.5819 -0.3317  0.3418
   62MOL   C16519807   8.027   2.619   3.701 -0.4329 -0.3469 -0.0534
   62MOL   C16619808   7.970   2.751   3.708 -0.0382  0.7347  0.1979
   62MOL   C16719809   7.870   2.783   3.614 -0.0865 -0.0328 -0.3290
   62MOL   C16819810   7.814   2.692   3.525  0.0790  0.1265  0.6864
   62MOL   C16919811   7.862   2.561   3.524 -0.1394 -0.5944 -0.0058
   62MOL   H17019812   8.033   2.206   3.753  0.3460  1.1163 -0.0428
   62MOL   H17119813   8.000   2.350   3.820 -0.5280 -0.0663 -0.4485
   62MOL   H17219814   8.000   2.340   3.510 -0.3847  0.0870 -0.3260
   62MOL   H17319815   8.103   2.583   3.769 -0.3146 -1.0400 -0.5340
   62MOL   H17419816   7.999   2.828   3.778  2.2095  1.6242 -1.6451
   62MOL   H17519817   7.831   2.883   3.603  2.9465  1.4269  1.5557
   62MOL   H17619818   7.740   2.712   3.449 -0.3475 -1.1661  0.7629
   62MOL   H17719819   7.831   2.493   3.447  0.4937  0.7629 -1.4828
   62MOL   C17819820   0.074   2.378   3.599 -0.1672 -0.2185  0.1716
   62MOL   C17919821   0.129   2.463   3.478  0.6560 -0.1114 -0.2474
   62MOL   C18019822   0.241   2.558   3.521 -0.1869  0.3752 -0.5442
   62MOL   C18119823   0.367   2.512   3.563  0.1044 -0.4545 -0.6613
   62MOL   C18219824   0.464   2.604   3.612  0.1317 -0.2472  0.2229
   62MOL   C18319825   0.439   2.745   3.607  0.1684  0.2947  0.3019
   62MOL   C18419826   0.315   2.788   3.564 -0.3775 -0.2379  0.0292
   62MOL   C18519827   0.216   2.694   3.529 -0.6930  0.3968  0.5096
   62MOL   H18619828   0.093   2.272   3.582 -1.8117 -0.7397  1.4745
   62MOL   H18719829   0.121   2.411   3.692 -1.6093  2.3254  0.0421
   62MOL   H18819830   0.051   2.533   3.449 -0.1984  0.1007  2.4037
   62MOL   H18919831   0.382   2.406   3.549  1.3666 -0.5964  1.4565
   62MOL   H19019832   0.562   2.565   3.639 -0.0581 -1.2255 -0.4764
   62MOL   H19119833   0.515   2.815   3.641  1.6311 -1.5515  0.9445
   62MOL   H19219834   0.290   2.893   3.569  0.1027 -0.1936  2.0043
   62MOL   H19319835   0.123   2.733   3.489 -0.8917 -0.5020  0.0726
   62MOL   C19419836   0.181   2.378   3.359  0.9366  0.3801 -0.3123
   62MOL   C19519837   0.078   2.285   3.281 -0.1334 -0.2753  0.2713
   62MOL   C19619838   8.077   2.366   3.230  0.2204 -0.5409  0.5403
   62MOL   C19719839   7.951   2.299   3.225 -0.3726 -0.3666 -0.6395
   62MOL   C19819840   7.843   2.365   3.166 -0.1676 -0.1021  0.0048
   62MOL   C19919841   7.857   2.496   3.120  0.2781  0.1514 -0.5147
   62MOL   C20019842   7.977   2.564   3.128  0.2404  0.2824  0.7887
   62MOL   C20119843   8.092   2.498   3.174 -0.1018 -0.2427 -0.2557
   62MOL   H20219844   0.264   2.319   3.398 -0.7436 -0.3639  2.2783
   62MOL   H20319845   0.226   2.454   3.294 -0.9784  1.3516 -0.5374
   62MOL   H20419846   0.048   2.203   3.347 -1.7563 -0.9188 -1.2288
   62MOL   H20519847   7.943   2.197   3.260  0.7789  0.0043  0.7208
   62MOL   H20619848   7.746   2.319   3.176 -1.0958  1.1626 -2.7815
   62MOL   H20719849   7.773   2.550   3.079  2.3048  2.6432 -1.5549
   62MOL   H20819850   7.987   2.667   3.100 -4.2790  0.0060 -2.3857
   62MOL   H20919851   0.071   2.552   3.170  0.5849 -1.4502 -1.2901
   62MOL   C21019852   0.150   2.223   3.161 -0.5981  0.0725  0.1405
   62MOL   C21119853   0.179   2.072   3.179  0.5439  0.5497 -0.0179
   62MOL   C21219854   0.049   1.993   3.142 -0.1072  0.0502 -0.0917
   62MOL   C21319855   0.022   1.957   3.006 -0.0535 -0.3216 -0.1522
   62MOL   C21419856   8.035   1.867   2.974 -0.5439 -0.1947 -0.5183
   62MOL   C21519857   7.953   1.814   3.071  0.6817 -0.9279 -1.0022
   62MOL   C21619858   7.971   1.852   3.207 -0.3015  0.4226  0.3709
   62MOL   C21719859   8.084   1.929   3.239  0.6096  0.7256  0.4691
   62MOL   H21819860   0.239   2.275   3.127 -0.9917 -0.8456 -2.4086
   62MOL   H21919861   0.088   2.245   3.073  0.6048  1.7310 -0.3164
   62MOL   H22019862   0.197   2.042   3.283 -3.1966  0.6209  0.7399
   62MOL   H22119863   0.092   2.003   2.939  0.4091 -1.0251 -0.1539
   62MOL   H22219864   8.023   1.838   2.871  0.5431  0.6558 -0.8936
   62MOL   H22319865   7.873   1.748   3.042 -0.0203 -1.0026  1.0066
   62MOL   H22419866   7.903   1.828   3.288  0.7904 -2.2998  0.5420
   62MOL   H22519867   8.096   1.956   3.343  0.6321  1.2434  0.3370
   62MOL   C22619868   0.300   2.019   3.101  0.4002 -0.6837 -0.4018
   62MOL   C22719869   0.437   2.000   3.176  0.9054  0.7005 -0.3319
   62MOL   C22819870   0.505   2.133   3.175 -0.5415 -0.1273  0.2305
   62MOL   C22919871   0.529   2.218   3.285  0.0920  0.2842  0.4859
   62MOL   C23019872   0.584   2.341   3.264  0.0755  0.2630  0.2866
   62MOL   C23119873   0.640   2.376   3.138 -0.2411  0.1280 -0.9837
   62MOL   C23219874   0.614   2.291   3.033 -1.2429 -0.7457  0.4665
   62MOL   C23319875   0.545   2.168   3.045 -0.1511  0.0463  0.1559
   62MOL   H23419876   0.314   2.076   3.010  2.5146 -1.9413 -0.9017
   62MOL   H23519877   0.277   1.918   3.066 -0.6782 -1.8014  3.2624
   62MOL   H23619878   0.495   1.934   3.110  1.3263  0.2963  0.4363
   62MOL   H23719879   0.489   2.193   3.383 -0.8128  1.5042  0.4275
   62MOL   H23819880   0.586   2.411   3.346  0.1923  1.4472 -0.7233
   62MOL   H23919881   0.683   2.473   3.123  1.4833 -0.8618 -2.6165
   62MOL   H24019882   0.642   2.322   2.933 -0.5845  0.9687  1.1648
   62MOL   H24119883   0.537   2.102   2.960  0.2906 -1.9050  1.5921
   62MOL   C24219884   0.441   1.931   3.313  0.4324 -0.1320 -0.0084
   62MOL   C24319885   0.367   1.800   3.335  0.2515 -0.5773  0.8263
   62MOL   C24419886   0.390   1.690   3.229  0.5660  0.4493 -0.2000
   62MOL   C24519887   0.284   1.612   3.175 -0.0552  0.2557  0.4022
   62MOL   C24619888   0.300   1.530   3.059 -0.0122  0.0086 -0.4525
   62MOL   C24719889   0.433   1.507   3.011  0.8317 -0.0718  0.1456
   62MOL   C24819890   0.541   1.580   3.071 -0.4280 -0.4535 -0.8839
   62MOL   C24919891   0.516   1.675   3.169  0.3556 -0.1119  0.2473
   62MOL   H25019892   0.398   2.000   3.386  1.8803 -0.5060  1.2478
   62MOL   H25119893   0.547   1.925   3.338  0.4173  1.5131  0.5225
   62MOL   H25219894   0.260   1.820   3.336  0.5948  1.4085  3.4505
   62MOL   H25319895   0.185   1.622   3.216 -0.5045 -4.2448  0.7416
   62MOL   H25419896   0.221   1.466   3.021  0.4475 -1.4210  0.9625
   62MOL   H25519897   0.440   1.433   2.932  2.3514  0.0801  0.1115
   62MOL   H25619898   0.639   1.574   3.028 -0.3409  1.5691 -1.0125
   62MOL   H25719899   0.589   1.743   3.211  0.6976 -0.1339 -0.3069
   62MOL   C25819900   0.400   1.740   3.474  0.1705 -0.0760  0.0488
   62MOL   C25919901   0.349   1.819   3.590  0.0805  0.6014 -0.3328
   62MOL   C26019902   0.200   1.827   3.580 -0.3967 -0.5540 -0.3451
   62MOL   C26119903   0.118   1.716   3.572 -0.7509 -0.2102 -0.0352
   62MOL   C26219904   8.092   1.728   3.585  0.2866 -0.1939 -0.2551
   62MOL   C26319905   8.028   1.859   3.594 -0.6343 -0.0656 -0.6218
   62MOL   C26419906   8.111   1.973   3.591  0.0164  1.1301  0.1704
   62MOL   C26519907   0.138   1.954   3.589 -0.4208 -0.9663  0.2157
   62MOL   H26619908   0.505   1.713   3.488 -0.1242 -1.3775 -0.1681
   62MOL   H26719909   0.358   1.640   3.464 -0.3832  0.1337  0.2966
   62MOL   H26819910   0.380   1.923   3.583 -4.4927  2.2591  1.9789
   62MOL   H26919911   0.163   1.618   3.577  1.4849  0.9055  2.9761
   62MOL   H27019912   8.025   1.644   3.595 -2.1536  1.4102 -2.5431
   62MOL   H27119913   7.923   1.870   3.617 -0.5612 -1.5953  0.5133
   62MOL   H27219914   8.070   2.072   3.587 -1.2153  0.6739  1.0032
   62MOL   H27319915   0.195   2.044   3.608  0.1182 -1.1937 -0.3089
   62MOL   C27419916   0.394   1.740   3.720  0.6628 -0.1738 -0.1749
   62MOL   C27519917   0.399   1.821   3.854 -0.4227 -0.4636 -0.7153
   62MOL   C27619918   0.270   1.880   3.904 -0.1732  0.2160 -0.5200
   62MOL   C27719919   0.166   1.799   3.953  0.5946 -0.4082  0.1226
   62MOL   C27819920   0.045   1.850   4.006  0.0792 -0.0548 -0.8782
   62MOL   C27919921   0.021   1.989   4.007 -0.4844  0.5322  0.2374
   62MOL   C28019922   0.121   2.069   3.958  0.0029  0.1045 -0.5666
   62MOL   C28119923   0.248   2.021   3.907 -0.1520  0.3221  0.0340
   62MOL   H28219924   0.500   1.719   3.706  1.1871  0.9318  1.9619
   62MOL   H28319925   0.348   1.643   3.741  1.3525  0.5489  5.3962
   62MOL   H28419926   0.465   1.907   3.841 -0.5775 -0.3775 -0.9516
   62MOL   H28519927   0.184   1.693   3.959  1.8413 -0.3284 -1.7274
   62MOL   H28619928   8.087   1.784   4.052  3.9104 -0.8167  4.5817
   62MOL   H28719929   8.045   2.032   4.046 -0.7337  1.6353 -1.5060
   62MOL   H28819930   0.101   2.175   3.958  1.2985  0.3541 -0.1511
   62MOL   H28919931   0.320   2.087   3.860  1.2436 -0.8047  0.5440
   62MOL   C29019932   0.483   1.754   3.971 -0.4914 -0.4166  0.2943
   62MOL   C29119933   0.520   1.847   4.093  0.0179  0.3338  0.3713
   62MOL   C29219934   0.421   1.823   4.211 -0.3032  0.3159 -0.1583
   62MOL   C29319935   0.319   1.917   4.243 -0.2659  0.4731  0.6234
   62MOL   C29419936   0.228   1.890   4.346  0.7234  0.3527  0.6733
   62MOL   C29519937   0.220   1.760   4.407  0.3751 -0.4878  0.2978
   62MOL   C29619938   0.319   1.668   4.369 -0.0460 -0.3685  0.2334
   62MOL   C29719939   0.427   1.699   4.278 -0.3958 -0.1435  0.0652
   62MOL   H29819940   0.579   1.735   3.923  0.2364 -1.2561  2.0402
   62MOL   H29919941   0.465   1.652   4.003  0.7534 -0.4765  0.8170
   62MOL   H30019942   0.503   1.949   4.059  0.7264 -0.4533 -2.4729
   62MOL   H30119943   0.323   2.016   4.199  0.1472  0.5561  0.8441
   62MOL   H30219944   0.155   1.964   4.376  0.1111 -1.6354  4.5388
   62MOL   H30319945   0.147   1.740   4.485 -0.1326  0.2542  0.0174
   62MOL   H30419946   0.307   1.568   4.408  2.3622  0.4404  3.3070
   62MOL   H30519947   0.500   1.626   4.246 -0.1583  0.0337  0.2030
   62MOL   C30619948   0.669   1.843   4.138 -0.0188  0.2435 -0.0801
   62MOL   C30719949   0.774   1.911   4.055  0.4216 -1.4769  0.5002
   62MOL   C30819950   0.811   1.818   3.943 -0.3742  0.1500 -0.8707
   62MOL   C30919951   0.789   1.867   3.811  0.1990  0.6972 -0.7052
   62MOL   C31019952   0.820   1.788   3.701  0.3463  0.1590 -0.2368
   62MOL   C31119953   0.869   1.655   3.721 -0.0741 -0.3236 -0.3845
   62MOL   C31219954   0.882   1.606   3.853  0.2921 -0.4187 -0.3465
   62MOL   C31319955   0.850   1.688   3.963 -0.2055 -0.0018  0.8258
   62MOL   H31419956   0.695   1.745   4.177  0.7965  0.6463  0.4013
   62MOL   H31519957   0.661   1.908   4.225  0.8441  2.2891 -1.5053
   62MOL   H31619958   0.866   1.931   4.110 -0.4128  1.1181  1.0293
   62MOL   H31719959   0.744   1.964   3.796  0.0728  0.1679 -4.0255
   62MOL   H31819960   0.818   1.831   3.602 -0.6335  1.8271  0.4886
   62MOL   H31919961   0.890   1.598   3.632  0.4815  0.5130 -0.7975
   62MOL   H32019962   0.888   1.498   3.862 -0.2238 -0.5218 -1.2457
   62MOL   H32119963   0.857   1.638   4.058 -1.1997 -2.4152 -0.3312
   62MOL   H32219964   0.743   2.009   4.019 -0.4545 -1.6062  0.8855
   63MOL     C119965   7.694   0.857   0.326  0.6109 -0.4427  0.1091
   63MOL     C219966   7.593   0.780   0.418  0.6749 -0.6362 -0.2005
   63MOL     C319967   7.461   0.856   0.416 -0.0692 -0.2384 -0.0914
   63MOL     C419968   7.411   0.918   0.526  0.2500 -0.0237 -0.3419
   63MOL     C519969   7.279   0.962   0.530  0.7899 -0.4260 -0.0618
   63MOL     C619970   7.198   0.965   0.410 -0.5321 -0.4629 -0.0470
   63MOL     C719971   7.255   0.902   0.298  0.4920  0.2227 -0.0072
   63MOL     C819972   7.384   0.851   0.302  0.4275 -0.8101 -0.2835
   63MOL     H919973   7.788   0.805   0.309  0.1333 -0.7241 -1.6886
   63MOL    H1019974   7.645   0.870   0.230 -0.1574  3.0492  0.9072
   63MOL    H1119975   7.627   0.771   0.521  1.0995  0.6231 -0.2214
   63MOL    H1219976   7.470   0.912   0.616  0.1147 -1.3816 -0.3317
   63MOL    H1319977   7.236   0.991   0.625 -2.8847  0.3566 -1.8789
   63MOL    H1419978   7.100   1.009   0.404 -2.0245 -3.2951  1.9416
   63MOL    H1519979   7.194   0.902   0.210  0.1395 -1.0730  0.2248
   63MOL    H1619980   7.427   0.798   0.218  0.5926 -0.4510 -0.4247
   63MOL    H1719981   7.722   0.954   0.367 -0.2240 -0.6980  1.3376
   63MOL    C1819982   7.581   0.631   0.380  0.8928 -0.1998 -0.5365
   63MOL    C1919983   7.697   0.552   0.446 -0.5932 -0.0548 -0.1592
   63MOL    C2019984   7.677   0.520   0.591  0.3430  0.1165  0.1530
   63MOL    C2119985   7.782   0.560   0.677  0.5657  0.2372 -0.2693
   63MOL    C2219986   7.777   0.516   0.812  0.0719 -0.2537 -0.1067
   63MOL    C2319987   7.662   0.446   0.867  0.0786  0.6938 -0.0242
   63MOL    C2419988   7.560   0.410   0.778 -0.0870  0.2703  0.6906
   63MOL    C2519989   7.564   0.449   0.641 -0.1026  0.1885 -0.8470
   63MOL    H2619990   7.592   0.621   0.272 -0.0132  3.1241 -1.0155
   63MOL    H2719991   7.482   0.585   0.390  0.2276  0.8134 -2.2114
   63MOL    H2819992   7.786   0.615   0.445  1.1641 -2.3859  2.2927
   63MOL    H2919993   7.870   0.618   0.653  0.6289  0.6390  0.8734
   63MOL    H3019994   7.855   0.538   0.884 -1.5371 -1.5657  2.1072
   63MOL    H3119995   7.661   0.418   0.971  0.6074 -1.8735 -0.6826
   63MOL    H3219996   7.480   0.345   0.812 -0.1235  0.1428  0.3613
   63MOL    H3319997   7.485   0.432   0.569  0.2578 -1.9329 -0.7811
   63MOL    C3419998   7.729   0.426   0.355  0.0369  0.2289  0.5535
   63MOL    C3519999   7.850   0.329   0.399 -0.4421  0.3225  0.3689
   63MOL    C3620000   7.846   0.206   0.307 -0.3141  0.1216 -0.4279
   63MOL    C3720001   7.796   0.086   0.354 -0.9136  0.6972 -0.3480
   63MOL    C3820002   7.783   8.089   0.274 -0.1070  0.3683 -0.4419
   63MOL    C3920003   7.831   8.095   0.143  0.2378  0.7825  0.4021
   63MOL    C4020004   7.892   0.095   0.095  0.1188  0.3657 -0.6443
   63MOL    C4120005   7.901   0.207   0.180  0.0018 -0.0573  0.0370
   63MOL    H4220006   7.760   0.471   0.261 -1.4489  0.5404  0.1915
   63MOL    H4320007   7.642   0.360   0.345 -0.4638  0.6890  1.6996
   63MOL    H4420008   7.828   0.279   0.494  2.8051  0.3790  1.2218
   63MOL    H4520009   7.758   0.063   0.453  0.2514  0.3666  0.0373
   63MOL    H4620010   7.756   7.994   0.317  2.7026 -0.1349  0.2814
   63MOL    H4720011   7.818   8.010   0.078 -1.8469  0.4672  1.1927
   63MOL    H4820012   7.931   0.099   8.109  1.4613  0.0193 -0.1383
   63MOL    H4920013   7.937   0.305   0.149  0.1650  0.3669  1.5245
   63MOL    C5020014   7.988   0.399   0.408 -0.4433 -0.1462 -0.2773
   63MOL    C5120015   0.000   0.309   0.430  0.4143  0.3002 -0.1005
   63MOL    C5220016   0.123   0.403   0.429 -0.3214 -0.4570  0.5922
   63MOL    C5320017   0.194   0.432   0.309 -0.5354 -0.9605  0.0538
   63MOL    C5420018   0.301   0.517   0.315 -0.1812 -0.6065  0.2538
   63MOL    C5520019   0.335   0.592   0.431  0.4223  0.5936  0.2456
   63MOL    C5620020   0.265   0.571   0.550  0.8680  0.2337 -0.8450
   63MOL    C5720021   0.159   0.475   0.541  0.3689 -0.4324  0.3396
   63MOL    H5820022   7.993   0.472   0.489  1.5368 -1.8245  1.1558
   63MOL    H5920023   7.991   0.451   0.312  2.6670 -0.7080 -0.5227
   63MOL    H6020024   0.011   0.246   0.342  1.5366  1.8667 -1.1003
   63MOL    H6120025   0.158   0.391   0.216  0.2225 -0.5424 -0.4281
   63MOL    H6220026   0.352   0.536   0.222  0.5928  1.2448  1.0344
   63MOL    H6320027   0.415   0.663   0.418  0.4859  0.5070  0.1596
   63MOL    H6420028   0.284   0.631   0.638 -0.6110  0.0297 -0.3621
   63MOL    H6520029   0.094   0.466   0.627  0.3930 -1.0100  0.3029
   63MOL    C6620030   8.097   0.220   0.564  0.3660  0.0092  0.0636
   63MOL    C6720031   0.102   0.124   0.595 -0.2652 -0.1517  0.6717
   63MOL    C6820032   0.068   0.061   0.729  0.6854 -0.0824  0.3258
   63MOL    C6920033   0.138   0.096   0.849  0.3922 -0.1994 -0.4410
   63MOL    C7020034   0.121   0.023   0.969 -0.3821  0.3384  0.6646
   63MOL    C7120035   0.037   8.022   0.971  0.2969 -0.3859 -0.0756
   63MOL    C7220036   8.086   7.990   0.848 -0.2243 -0.0285  0.1826
   63MOL    C7320037   8.095   8.065   0.733  0.4610  0.0336  0.6735
   63MOL    H7420038   8.004   0.164   0.573  0.0281  0.7943  1.7430
   63MOL    H7520039   8.086   0.294   0.644  1.8266  0.5093 -0.1721
   63MOL    H7620040   0.199   0.174   0.603 -0.6301  0.4705  1.3221
   63MOL    H7720041   0.198   0.186   0.844 -2.0011  1.4545 -0.2472
   63MOL    H7820042   0.164   0.064   1.059 -0.0254  0.2797  0.5238
   63MOL    H7920043   0.013   7.970   1.062 -1.4836  1.8580  0.7846
   63MOL    H8020044   8.036   7.895   0.852 -2.0506  0.8351 -1.4619
   63MOL    H8120045   8.046   8.020   0.648  0.5478  2.3715 -0.6567
   63MOL    C8220046   0.120   0.026   0.475 -0.5006 -0.3986  0.9884
   63MOL    C8320047   0.188   8.004   0.501 -0.1905 -0.0753 -0.5880
   63MOL    C8420048   0.098   7.879   0.503  0.3104  0.1852  0.3226
   63MOL    C8520049   0.119   7.775   0.594  0.7425  0.5667 -0.2143
   63MOL    C8620050   0.046   7.652   0.589 -0.1736  0.3707  0.5073
   63MOL    C8720051   8.066   7.638   0.485 -0.5494  0.7534  0.3023
   63MOL    C8820052   8.041   7.744   0.396 -0.2469  0.6453  0.1632
   63MOL    C8920053   8.109   7.864   0.408 -0.0956 -0.1681 -0.7108
   63MOL    H9020054   0.170   0.092   0.404 -1.6476  0.9703  1.4185
   63MOL    H9120055   0.026   0.020   0.421 -0.1810  1.3474  0.1897
   63MOL    H9220056   0.237   8.006   0.599  0.5767  2.6535 -0.9805
   63MOL    H9320057   0.203   7.773   0.663 -1.0793 -1.7256  2.0720
   63MOL    H9420058   0.072   7.571   0.654 -2.2478 -0.5494  0.2612
   63MOL    H9520059   8.012   7.545   0.471  0.6988 -0.2616  2.0005
   63MOL    H9620060   7.961   7.726   0.325 -0.3999 -2.7596  1.0908
   63MOL    H9720061   8.079   7.950   0.349  0.4185  0.5427  0.0566
   63MOL    C9820062   0.300   7.986   0.394 -0.2518 -0.0137  0.4139
   63MOL    C9920063   0.430   8.067   0.434  0.3040  0.0354  0.5965
   63MOL   C10020064   0.510   8.012   0.550  0.5165  0.3309  0.1354
   63MOL   C10120065   0.606   8.098   0.611 -0.2788  0.7087  0.1686
   63MOL   C10220066   0.687   8.062   0.711 -0.0964 -0.4863 -0.1148
   63MOL   C10320067   0.660   7.935   0.768 -0.6938 -0.0151  0.6618
   63MOL   C10420068   0.577   7.840   0.707  0.2906 -0.0796 -0.4499
   63MOL   C10520069   0.499   7.880   0.597 -0.0517 -0.0631 -0.5926
   63MOL   H10620070   0.261   8.010   0.296  0.7164 -3.6273 -0.9401
   63MOL   H10720071   0.322   7.879   0.388  0.2612  0.0702  0.7204
   63MOL   H10820072   0.389   0.050   0.459  1.9416  1.0221 -0.5039
   63MOL   H10920073   0.618   0.086   0.582  1.0348  0.4125 -0.3455
   63MOL   H11020074   0.758   0.021   0.745 -0.2046 -0.4043 -0.0711
   63MOL   H11120075   0.704   7.898   0.860  0.6817 -1.1599 -0.4326
   63MOL   H11220076   0.566   7.740   0.747  1.0601 -0.7229 -1.8301
   63MOL   H11320077   0.425   7.816   0.551 -0.5703  1.0317 -1.3152
   63MOL   C11420078   0.518   8.096   0.309  0.0505 -0.1528  0.1618
   63MOL   C11520079   0.525   0.124   0.263  0.2650  0.4634 -0.4754
   63MOL   C11620080   0.610   0.216   0.349  0.1344 -0.5330 -0.5701
   63MOL   C11720081   0.754   0.205   0.356 -0.8957  0.4926 -0.4923
   63MOL   C11820082   0.832   0.290   0.440 -0.2800 -0.6310  1.0105
   63MOL   C11920083   0.763   0.382   0.512  0.4668 -0.2363 -0.7797
   63MOL   C12020084   0.623   0.402   0.504  0.4696 -0.2153  0.3003
   63MOL   C12120085   0.548   0.315   0.426  0.6978  0.7007 -0.1989
   63MOL   H12220086   0.467   8.035   0.235 -0.8897  1.7453 -0.8054
   63MOL   H12320087   0.615   8.047   0.317  0.8355  1.2491 -0.3901
   63MOL   H12420088   0.425   0.165   0.244  0.0776  0.9485  1.5091
   63MOL   H12520089   0.809   0.142   0.288 -2.0560 -0.6876 -0.3364
   63MOL   H12620090   0.939   0.298   0.446 -0.1987 -1.5288  0.9564
   63MOL   H12720091   0.823   0.448   0.573 -1.7991  0.2242  1.0311
   63MOL   H12820092   0.579   0.473   0.573 -0.5426 -1.2771  0.7826
   63MOL   H12920093   0.440   0.311   0.418  0.7851  0.0813 -1.0557
   63MOL   C13020094   0.587   0.117   0.121  0.5872  0.5822 -0.2221
   63MOL   C13120095   0.505   0.081   8.112 -0.3660 -0.2076 -0.2502
   63MOL   C13220096   0.398   0.185   8.088 -0.1997 -0.4555  0.0415
   63MOL   C13320097   0.265   0.150   8.103  0.8209  0.0491  0.2903
   63MOL   C13420098   0.160   0.240   8.085  0.3490 -0.2626  0.1315
   63MOL   C13520099   0.194   0.375   8.068 -0.2842 -0.0208 -0.8601
   63MOL   C13620100   0.329   0.416   8.062 -0.5433  0.9374  0.2155
   63MOL   C13720101   0.433   0.321   8.067  0.4567  0.1849  1.1181
   63MOL   H13820102   0.680   0.061   0.132  0.5681  0.6101  0.0973
   63MOL   H13920103   0.620   0.218   0.094 -0.5121  0.4593 -2.0632
   63MOL   H14020104   0.446   8.108   0.022  2.0150 -1.3186  1.7316
   63MOL   H14120105   0.245   0.045   0.008  1.6864 -0.1932 -0.0666
   63MOL   H14220106   0.057   0.210   8.092 -0.8977  3.0218 -3.1533
   63MOL   H14320107   0.117   0.447   8.043  1.0931  2.0219  0.6671
   63MOL   H14420108   0.342   0.518   8.029 -2.6406  0.2074 -3.1532
   63MOL   H14520109   0.537   0.344   8.049  0.3619 -0.1849  0.0114
   63MOL   C14620110   0.594   0.065   7.986  0.2652  0.1002  0.3126
   63MOL   C14720111   0.705   8.068   7.985 -0.1232 -0.4234 -1.4606
   63MOL   C14820112   0.652   7.930   8.015 -0.3967 -0.0587 -0.1702
   63MOL   C14920113   0.728   7.843   8.096  0.4291 -0.6361 -0.1916
   63MOL   C15020114   0.675   7.717   0.025 -0.1667 -0.2903 -0.0362
   63MOL   C15120115   0.558   7.670   8.079 -0.5958 -0.7215  0.3527
   63MOL   C15220116   0.476   7.757   8.001  0.3611  0.8554 -0.1384
   63MOL   C15320117   0.521   7.880   7.969 -0.3081 -0.2672 -0.5043
   63MOL   H15420118   0.636   0.162   7.959  1.3671 -0.5050 -0.2011
   63MOL   H15520119   0.530   0.049   7.900 -0.1309 -3.1633  1.1464
   63MOL   H15620120   0.771   8.085   8.071  2.0367 -2.5145 -2.6480
   63MOL   H15720121   0.826   7.878   0.009  1.3219 -0.9568 -2.8384
   63MOL   H15820122   0.738   7.652   0.085 -1.1125  0.6187  1.9583
   63MOL   H15920123   0.520   7.569   8.073  1.5428 -1.5980  1.3516
   63MOL   H16020124   0.381   7.720   7.964  0.2742 -0.3208  1.1739
   63MOL   H16120125   0.462   7.941   7.902  0.0159  0.6662  0.0472
   63MOL   C16220126   0.799   8.075   7.868 -0.7809  0.0526 -0.0924
   63MOL   C16320127   0.888   0.085   7.844  0.8487  1.1657 -0.7783
   63MOL   C16420128   0.981   0.110   7.962  0.3870 -0.4896  0.3015
   63MOL   C16520129   1.084   0.021   7.992 -0.0325 -0.0362  0.6679
   63MOL   C16620130   1.173   0.038   8.102  0.8972 -0.3331  0.3294
   63MOL   C16720131   1.156   0.156   0.064 -0.0692  0.3188  0.0439
   63MOL   C16820132   1.059   0.254   0.036  0.5221  0.0593  0.8407
   63MOL   C16920133   0.970   0.227   8.042 -0.2506 -0.1476  0.2367
   63MOL   H17020134   0.742   8.068   7.776  1.1619 -0.0313 -1.3196
   63MOL   H17120135   0.865   7.989   7.860  0.8598  1.2475  0.0736
   63MOL   H17220136   0.815   0.166   7.841 -0.7403 -0.1008  1.6615
   63MOL   H17320137   1.086   8.045   7.933 -0.2757  0.1995  0.3031
   63MOL   H17420138   1.245   8.076   0.011  1.8567  1.2078  2.5790
   63MOL   H17520139   1.215   0.171   0.153 -0.1463  1.2884 -0.0621
   63MOL   H17620140   1.052   0.338   0.103 -0.1042  1.1005 -0.5132
   63MOL   H17720141   0.891   0.300   8.025 -2.1762 -2.5115 -1.2408
   63MOL   C17820142   0.965   0.074   7.711 -0.1929 -0.3801 -0.5777
   63MOL   C17920143   0.882   0.103   7.584  0.4458 -0.2212  0.4669
   63MOL   C18020144   0.837   0.250   7.581  0.6124 -0.7115  0.0085
   63MOL   C18120145   0.917   0.359   7.552  0.3757 -0.2079 -0.0013
   63MOL   C18220146   0.873   0.488   7.581  0.0138 -0.5444 -0.4376
   63MOL   C18320147   0.739   0.515   7.617 -0.2054  0.1376  0.4541
   63MOL   C18420148   0.651   0.407   7.618  0.3119  0.9312 -0.3805
   63MOL   C18520149   0.701   0.274   7.617  0.4745  0.7237 -0.8069
   63MOL   H18620150   1.023   8.097   7.700  1.6471  1.1160 -4.1965
   63MOL   H18720151   1.036   0.157   7.711 -1.3167  0.5929 -0.6746
   63MOL   H18820152   0.790   0.045   7.580  0.0574  0.4899 -5.7773
   63MOL   H18920153   1.021   0.344   7.528  0.4020  0.6046 -0.4381
   63MOL   H19020154   0.942   0.571   7.570 -1.0495  0.4958  0.5026
   63MOL   H19120155   0.700   0.612   7.645  0.4256 -0.0452  2.0056
   63MOL   H19220156   0.549   0.421   7.649 -0.5980 -2.1759 -1.7468
   63MOL   H19320157   0.646   0.185   7.641  0.6241  0.4223 -1.5649
   63MOL   C19420158   0.958   0.067   7.454  0.9136  0.0214 -0.1650
   63MOL   C19520159   0.900   8.052   7.389 -0.9785  0.5854  0.4009
   63MOL   C19620160   0.941   8.030   7.244  0.1678 -0.9656 -0.2481
   63MOL   C19720161   1.075   8.046   7.208  0.0985 -0.0846  0.3812
   63MOL   C19820162   1.112   8.042   7.075  0.4147 -0.5825  0.8515
   63MOL   C19920163   1.021   8.037   6.974 -0.6050 -0.2163  0.1038
   63MOL   C20020164   0.887   8.034   7.004 -0.9434  1.2138 -0.1151
   63MOL   C20120165   0.847   8.030   7.139 -0.0944 -0.3497  0.4937
   63MOL   H20220166   1.066   0.056   7.466  1.0702 -0.2449 -1.6978
   63MOL   H20320167   0.944   0.152   7.388  1.1838  1.3296  1.4368
   63MOL   H20420168   0.791   8.060   7.386 -1.1908 -0.1766  3.7992
   63MOL   H20520169   1.154   8.050   7.282  0.7296 -0.5485 -0.2610
   63MOL   H20620170   1.214   8.052   7.041  0.7094 -1.8723  1.2994
   63MOL   H20720171   1.055   8.040   6.871  1.0903 -1.0958  0.6309
   63MOL   H20820172   0.819   8.021   6.921  1.4530 -3.1929 -1.5773
   63MOL   H20920173   0.742   8.023   7.162 -0.5943 -1.1622 -1.9069
   63MOL   C21020174   0.929   7.938   7.490 -0.6155 -0.3631 -0.2443
   63MOL   C21120175   0.876   7.798   7.436  0.3001 -0.3210 -0.1675
   63MOL   C21220176   0.993   7.713   7.387  0.1660  1.2524 -0.2575
   63MOL   C21320177   1.063   7.627   7.472 -0.5367  0.6033 -0.8089
   63MOL   C21420178   1.161   7.532   7.422  0.2764  0.3453  0.8610
   63MOL   C21520179   1.199   7.545   7.287  0.2496  0.1332  0.5730
   63MOL   C21620180   1.134   7.635   7.202 -1.0535  0.4946 -0.4631
   63MOL   C21720181   1.027   7.712   7.246  0.7122 -0.1474 -0.5932
   63MOL   H21820182   0.864   7.964   7.574  0.4427  2.4455 -0.2253
   63MOL   H21920183   1.034   7.930   7.518 -1.1520 -1.0503  1.6612
   63MOL   H22020184   0.820   7.828   7.347  1.5325  1.0685 -0.4978
   63MOL   H22120185   1.042   7.624   7.578  0.1135 -1.7571 -0.7360
   63MOL   H22220186   1.210   7.464   7.489  0.0318  2.1313  2.9103
   63MOL   H22320187   1.271   7.481   7.237  0.6377  2.0107 -1.3580
   63MOL   H22420188   1.156   7.638   7.096 -0.5253  2.1251 -0.3083
   63MOL   H22520189   0.987   7.777   7.170  3.0206  0.3958 -1.3805
   63MOL   C22620190   0.775   7.725   7.539 -0.0564 -0.7804  0.0917
   63MOL   C22720191   0.633   7.766   7.511 -0.8075  0.4714 -0.0287
   63MOL   C22820192   0.538   7.660   7.570 -0.8747 -0.9016  0.1782
   63MOL   C22920193   0.442   7.599   7.492  0.3134  0.1041 -0.2105
   63MOL   C23020194   0.351   7.507   7.544  0.1447  0.6483  0.3403
   63MOL   C23120195   0.361   7.472   7.681  0.1539 -0.5309 -0.3203
   63MOL   C23220196   0.462   7.530   7.758 -0.0353  0.6305 -0.7802
   63MOL   C23320197   0.553   7.618   7.701 -0.1457  0.0797  0.3011
   63MOL   H23420198   0.802   7.753   7.641  1.3668  0.2400 -0.5518
   63MOL   H23520199   0.783   7.617   7.530  2.5494 -0.5693 -0.6667
   63MOL   H23620200   0.612   7.752   7.405 -2.4495  0.4678  0.2849
   63MOL   H23720201   0.421   7.632   7.391  1.4842  0.3203 -0.3918
   63MOL   H23820202   0.265   7.470   7.491  0.2474  0.3709  0.3667
   63MOL   H23920203   0.289   7.406   7.727 -0.1559  1.1456  1.6810
   63MOL   H24020204   0.460   7.496   7.861  2.1849 -0.1392 -0.9556
   63MOL   H24120205   0.639   7.657   7.754  0.6293 -2.2249  0.7867
   63MOL   C24220206   0.579   7.908   7.549  0.5121 -1.0388  0.9486
   63MOL   C24320207   0.443   7.951   7.494 -0.2014 -0.3429  0.0101
   63MOL   C24420208   0.389   8.071   7.565  0.1187 -0.3086  0.2357
   63MOL   C24520209   0.421   0.087   7.519  0.0333  0.5704  0.3832
   63MOL   C24620210   0.375   0.197   7.599  0.3566 -0.2263 -0.2055
   63MOL   C24720211   0.298   0.178   7.719 -0.3872 -0.1183 -0.7722
   63MOL   C24820212   0.272   0.044   7.754  0.4729 -0.4530  0.0554
   63MOL   C24920213   0.316   8.052   7.681  0.0364 -0.3670 -0.1628
   63MOL   H25020214   0.659   7.981   7.537  0.1039 -0.8707 -0.9102
   63MOL   H25120215   0.576   7.904   7.658 -2.3783  0.6739  0.9710
   63MOL   H25220216   0.364   7.882   7.523 -1.1248  0.7178  0.0517
   63MOL   H25320217   0.477   0.111   7.430 -0.9847  2.3113  0.1931
   63MOL   H25420218   0.388   0.301   7.573 -1.5042  0.2497  0.6816
   63MOL   H25520219   0.253   0.260   7.773 -0.3876 -0.7516  0.1989
   63MOL   H25620220   0.205   0.035   7.838  1.5945 -0.4556  0.9574
   63MOL   H25720221   0.298   7.952   7.718 -3.4679  0.2080 -0.1656
   63MOL   C25820222   0.439   7.947   7.333  0.0533  0.2332 -0.3471
   63MOL   C25920223   0.310   7.977   7.268  0.0858  0.3425 -0.6885
   63MOL   C26020224   0.330   8.025   7.134  0.1224 -0.4538 -0.5888
   63MOL   C26120225   0.391   7.945   7.035 -0.5274 -0.1999 -0.1099
   63MOL   C26220226   0.388   7.986   6.901 -0.2697 -0.5296  0.2968
   63MOL   C26320227   0.330   8.113   6.864  0.0211  0.3096 -0.7725
   63MOL   C26420228   0.280   0.086   6.965  0.0505  0.1428 -0.0959
   63MOL   C26520229   0.265   0.033   7.093 -1.0622  0.0794 -0.1806
   63MOL   H26620230   0.466   7.852   7.286  1.8075  0.5955 -0.1070
   63MOL   H26720231   0.507   8.021   7.293  1.8186  0.4230  2.8858
   63MOL   H26820232   0.276   8.067   7.319  0.2167 -0.5455  0.9833
   63MOL   H26920233   0.425   7.848   7.066 -0.7500  0.2491  1.5926
   63MOL   H27020234   0.429   7.929   6.819  1.1222  0.7985  0.0487
   63MOL   H27120235   0.323   0.035   6.763  3.4136 -0.1572 -1.2517
   63MOL   H27220236   0.260   0.190   6.943  0.1144  0.3697  0.9175
   63MOL   H27320237   0.215   0.100   7.161  0.5133  1.5628 -0.4553
   63MOL   C27420238   0.195   7.867   7.274  0.2503  0.0968 -0.3777
   63MOL   C27520239   0.105   7.891   7.392  0.0520 -0.8582  0.2914
   63MOL   C27620240   8.105   7.993   7.364 -0.1451  0.2100  0.2444
   63MOL   C27720241   8.090   8.101   7.453  0.2626 -0.3340 -0.3114
   63MOL   C27820242   7.991   0.075   7.428  0.4493  0.3459  0.1948
   63MOL   C27920243   7.899   0.057   7.320 -0.7437 -0.1884 -0.6252
   63MOL   C28020244   7.911   8.060   7.236 -0.6324 -0.1312 -0.2608
   63MOL   C28120245   8.014   7.972   7.259  0.0842  0.2770 -0.4911
   63MOL   H28220246   0.245   7.773   7.296  0.6122  0.9453  2.5796
   63MOL   H28320247   0.132   7.865   7.186 -1.1643 -0.6335  0.6429
   63MOL   H28420248   0.163   7.939   7.472 -2.8567 -1.2374  2.7060
   63MOL   H28520249   0.036   8.115   7.541 -0.0449  0.2874 -0.1909
   63MOL   H28620250   7.976   0.154   7.500  1.6983 -0.3133  1.2278
   63MOL   H28720251   7.825   0.135   7.305  2.1887  2.5558 -1.3363
   63MOL   H28820252   7.854   8.057   7.144  0.9949  0.8365 -1.3367
   63MOL   H28920253   8.028   7.886   7.194  0.8963  0.8662 -1.1058
   63MOL   C29020254   0.058   7.757   7.452 -0.8041 -0.2760 -0.1567
   63MOL   C29120255   8.085   7.753   7.581  0.2102 -0.0546  0.2779
   63MOL   C29220256   8.032   7.616   7.595  0.1713  0.2088  0.3831
   63MOL   C29320257   7.892   7.597   7.598  0.0197 -0.2464 -0.0447
   63MOL   C29420258   7.834   7.467   7.620  0.0214  0.2934  0.7033
   63MOL   C29520259   7.919   7.361   7.647 -0.2902  0.2191  0.6982
   63MOL   C29620260   8.058   7.379   7.647  0.0267 -0.2962  0.2582
   63MOL   C29720261   0.006   7.505   7.623 -0.3143 -0.3034  0.4525
   63MOL   H29820262   0.143   7.695   7.480  1.5035  0.9907 -3.8779
   63MOL   H29920263   0.011   7.707   7.367  0.1012 -1.1590 -0.1528
   63MOL   H30020264   7.998   7.816   7.565  1.1590  0.6396 -2.3704
   63MOL   H30120265   7.832   7.686   7.584  1.5056  1.0975  1.9655
   63MOL   H30220266   7.726   7.456   7.619  0.0243 -0.0442 -2.3158
   63MOL   H30320267   7.874   7.264   7.664 -0.6012  0.0480 -1.0354
   63MOL   H30420268   0.008   7.298   7.678  0.9123  0.3584  0.1385
   63MOL   H30520269   0.112   7.525   7.628  0.0446 -2.3969  1.6898
   63MOL   C30620270   0.054   7.794   7.703  0.6123  0.8856 -0.7204
   63MOL   C30720271   8.063   7.807   7.821 -0.7332  0.3792 -0.1297
   63MOL   C30820272   0.015   7.806   7.959 -0.4793  0.8212 -0.2380
   63MOL   C30920273   8.105   7.923   8.043 -0.3941 -0.1098 -0.3235
   63MOL   C31020274   0.050   7.927   0.056 -0.7512  0.5768 -0.5041
   63MOL   C31120275   0.138   7.825   0.095  0.1384  0.2946 -0.6848
   63MOL   C31220276   0.159   7.718   0.008  0.3855  0.3601 -0.0259
   63MOL   C31320277   0.093   7.705   8.003 -0.1411 -1.1124  0.4231
   63MOL   H31420278   0.094   7.895   7.694  2.1050  0.1895 -2.1257
   63MOL   H31520279   0.147   7.743   7.730  0.7457  2.1363  1.3106
   63MOL   H31620280   7.992   7.724   7.826  0.6105 -0.9296 -2.0074
   63MOL   H31720281   8.046   8.003   7.999 -0.8161 -1.8019 -2.9248
   63MOL   H31820282   0.032   8.022   0.103  2.7584  1.8223 -1.4865
   63MOL   H31920283   0.186   7.816   0.191 -0.4067 -2.2943 -0.6285
   63MOL   H32020284   0.224   7.638   0.040 -0.0438  0.4389  1.0473
   63MOL   H32120285   0.104   7.615   7.945  1.3440 -0.5229 -0.2171
   63MOL   H32220286   7.997   7.892   7.803 -0.7931  1.0627  3.0841
   64MOL     C120287   0.195   2.156   6.040  1.1928 -0.2798  0.4829
   64MOL     C220288   0.262   2.150   5.904 -0.2910  0.2843 -0.1158
   64MOL     C320289   0.182   2.086   5.791  0.7789  0.1221  0.1242
   64MOL     C420290   0.245   1.996   5.698 -0.6554 -0.2802  0.0087
   64MOL     C520291   0.169   1.930   5.601 -0.1506 -0.2563 -0.1199
   64MOL     C620292   0.034   1.960   5.582 -0.5274  0.4233  0.0520
   64MOL     C720293   8.085   2.060   5.662 -0.3191  0.4584 -0.0091
   64MOL     C820294   0.047   2.125   5.764  0.0147  0.2158 -0.0511
   64MOL     H920295   0.104   2.215   6.030  1.6894  0.7869  2.0437
   64MOL    H1020296   0.173   2.051   6.059  1.4525 -0.3781  0.2454
   64MOL    H1120297   0.357   2.098   5.913 -0.6867 -0.6450 -1.1141
   64MOL    H1220298   0.350   1.980   5.714 -0.7935 -0.4444  0.7710
   64MOL    H1320299   0.207   1.850   5.541  0.3761  0.2839 -0.5117
   64MOL    H1420300   8.090   1.900   5.514 -0.3331 -0.6717  0.8547
   64MOL    H1520301   7.980   2.085   5.657 -0.2071  0.8484 -0.4605
   64MOL    H1620302   0.011   2.204   5.829  2.0192  1.2688 -0.1558
   64MOL    H1720303   0.248   2.194   6.127  0.1607 -0.9142  1.4131
   64MOL    C1820304   0.305   2.292   5.862  0.6294 -0.5725  0.2277
   64MOL    C1920305   0.427   2.356   5.938 -0.1050 -0.6966  0.3079
   64MOL    C2020306   0.547   2.265   5.937 -0.1372  0.4426  0.2504
   64MOL    C2120307   0.639   2.268   5.830  0.5362  0.0429  0.6543
   64MOL    C2220308   0.758   2.196   5.835 -0.3264  0.1910  0.1707
   64MOL    C2320309   0.775   2.105   5.942 -0.3824 -0.1438  0.2217
   64MOL    C2420310   0.678   2.085   6.039  0.2391 -0.0397  0.3611
   64MOL    C2520311   0.569   2.176   6.041 -0.0415 -0.2532 -0.6641
   64MOL    H2620312   0.215   2.354   5.858  0.7038 -0.5534 -1.7362
   64MOL    H2720313   0.341   2.289   5.759 -1.0238 -0.1561 -0.3879
   64MOL    H2820314   0.398   2.370   6.042  0.6998  2.9568  0.1135
   64MOL    H2920315   0.607   2.318   5.740  0.3056  0.9838  1.2529
   64MOL    H3020316   0.841   2.203   5.767 -1.5227 -0.6752 -1.4286
   64MOL    H3120317   0.857   2.036   5.953 -0.1945  0.0597  0.1038
   64MOL    H3220318   0.694   2.016   6.121 -3.1954 -1.1353  0.1978
   64MOL    H3320319   0.504   2.179   6.126 -0.6089 -1.2495 -1.0579
   64MOL    C3420320   0.458   2.507   5.896  0.8986  0.5421 -0.0907
   64MOL    C3520321   0.344   2.609   5.953  0.1556 -0.1292 -0.4072
   64MOL    C3620322   0.349   2.601   6.109  0.3165 -0.6092 -0.3382
   64MOL    C3720323   0.458   2.656   6.185  0.4615  0.2242  0.6594
   64MOL    C3820324   0.460   2.646   6.324  0.2601 -0.0437 -0.4740
   64MOL    C3920325   0.354   2.590   6.391  0.1270  0.4870 -0.3791
   64MOL    C4020326   0.239   2.544   6.318  0.0727  1.4808  0.8171
   64MOL    C4120327   0.236   2.551   6.181 -0.0002  0.1679  0.5783
   64MOL    H4220328   0.488   2.516   5.792  0.2306 -0.9881 -0.4176
   64MOL    H4320329   0.550   2.527   5.951  1.6003 -0.0976 -1.0181
   64MOL    H4420330   0.250   2.571   5.912  0.7280  2.0644 -4.0145
   64MOL    H4520331   0.554   2.679   6.142  1.9375 -1.8886  2.6781
   64MOL    H4620332   0.551   2.670   6.377  0.5893  1.7440 -1.8175
   64MOL    H4720333   0.361   2.574   6.497 -0.9573 -0.3561 -0.4173
   64MOL    H4820334   0.163   2.495   6.377  1.1822 -1.4505 -0.1165
   64MOL    H4920335   0.162   2.501   6.120 -0.4605  3.4121 -1.6361
   64MOL    C5020336   0.354   2.755   5.898 -0.4197 -0.5717  0.2802
   64MOL    C5120337   0.328   2.771   5.744  0.4492 -0.0074  0.3897
   64MOL    C5220338   0.193   2.708   5.705  0.6987 -0.5311  0.1064
   64MOL    C5320339   0.069   2.759   5.747  0.0811 -0.5184 -0.2098
   64MOL    C5420340   8.067   2.686   5.717  0.9158  0.3206  0.3904
   64MOL    C5520341   8.072   2.572   5.633  0.2236  0.0035 -0.3902
   64MOL    C5620342   0.081   2.532   5.582  0.5334  0.0117 -0.0119
   64MOL    C5720343   0.197   2.600   5.619 -0.1990 -0.1056  0.6283
   64MOL    H5820344   0.454   2.793   5.916  0.1831 -1.6482 -0.6463
   64MOL    H5920345   0.280   2.812   5.955 -0.9625 -1.3782  0.3949
   64MOL    H6020346   0.399   2.715   5.683  0.2525 -0.6049  0.7020
   64MOL    H6120347   0.058   2.849   5.805 -2.2613 -0.5714 -0.5500
   64MOL    H6220348   7.967   2.710   5.751 -0.8288 -3.4246 -1.7572
   64MOL    H6320349   7.986   2.517   5.598 -0.6897 -1.0868  3.4194
   64MOL    H6420350   0.082   2.454   5.507 -0.0106 -0.7983  0.8213
   64MOL    H6520351   0.294   2.561   5.590 -0.0284 -0.2258  1.3492
   64MOL    C6620352   0.336   2.919   5.703  0.2180  0.1948 -0.5849
   64MOL    C6720353   0.479   2.967   5.670 -0.1368 -0.4256 -0.2516
   64MOL    C6820354   0.523   2.921   5.538 -1.1344 -0.0362  0.5735
   64MOL    C6920355   0.464   2.958   5.414  0.3376 -0.1386  0.7994
   64MOL    C7020356   0.520   2.908   5.295 -0.1476  0.1373  0.1850
   64MOL    C7120357   0.636   2.833   5.289 -0.1334 -0.2839 -0.3435
   64MOL    C7220358   0.697   2.793   5.406  0.7883  0.2147  0.0527
   64MOL    C7320359   0.641   2.837   5.529  0.0967 -0.1479  0.4912
   64MOL    H7420360   0.281   2.967   5.784  1.3570  1.2233 -0.3982
   64MOL    H7520361   0.268   2.938   5.620 -0.7194  1.0540  0.3551
   64MOL    H7620362   0.546   2.928   5.746 -0.7448  2.1529  1.6550
   64MOL    H7720363   0.381   3.027   5.411  0.9159  0.5156 -3.3130
   64MOL    H7820364   0.469   2.940   5.206  1.2450  3.1639  0.4099
   64MOL    H7920365   0.673   2.789   5.198 -0.2318 -0.9388 -0.0682
   64MOL    H8020366   0.778   2.721   5.401  0.8670  0.3159 -0.1417
   64MOL    H8120367   0.688   2.800   5.619 -0.9678  1.4002  1.6923
   64MOL    C8220368   0.482   3.127   5.677  0.5136  0.2289 -0.6151
   64MOL    C8320369   0.489   3.179   5.821  0.1637  0.1742 -0.6119
   64MOL    C8420370   0.608   3.129   5.895  0.3128 -0.1040 -0.0393
   64MOL    C8520371   0.589   3.048   6.015 -0.6459 -0.1031 -0.8989
   64MOL    C8620372   0.702   3.004   6.082 -0.0772  0.0277 -0.7228
   64MOL    C8720373   0.837   3.021   6.035 -0.0295  0.0193  0.5659
   64MOL    C8820374   0.852   3.085   5.913 -0.2937  0.2091  0.0893
   64MOL    C8920375   0.738   3.148   5.846  0.2264 -0.5996 -0.1385
   64MOL    H9020376   0.402   3.175   5.621  1.0054  0.4529 -1.1247
   64MOL    H9120377   0.577   3.153   5.632  0.6519  0.5450 -0.1456
   64MOL    H9220378   0.405   3.132   5.872  2.1138 -2.3483  0.3733
   64MOL    H9320379   0.495   3.035   6.067  0.4250 -0.4203  1.0200
   64MOL    H9420380   0.683   2.943   6.169  2.2097 -0.4300 -0.5295
   64MOL    H9520381   0.920   2.975   6.087 -0.1397  2.2991  2.9064
   64MOL    H9620382   0.945   3.103   5.861 -1.0601 -0.0465 -1.3966
   64MOL    H9720383   0.761   3.203   5.755 -3.3011  2.1452  0.5611
   64MOL    C9820384   0.487   3.337   5.825 -0.3844  0.0004 -0.0320
   64MOL    C9920385   0.351   3.396   5.785  0.6647 -0.4065 -0.6262
   64MOL   C10020386   0.255   3.379   5.911 -0.2583  0.0803  0.0624
   64MOL   C10120387   0.152   3.281   5.903  0.1229 -0.7634 -0.0304
   64MOL   C10220388   0.070   3.258   6.017  0.6095  0.2735  0.1550
   64MOL   C10320389   0.092   3.330   6.136  0.0923 -0.3563 -0.2406
   64MOL   C10420390   0.199   3.422   6.142 -0.2401 -0.3433 -0.1560
   64MOL   C10520391   0.271   3.460   6.028  0.3372  0.7010  0.2401
   64MOL   H10620392   0.569   3.369   5.761 -1.0167 -0.6100 -1.1799
   64MOL   H10720393   0.507   3.371   5.926 -4.0421 -1.9828  1.4695
   64MOL   H10820394   0.306   3.336   5.706  0.8070 -1.4321  0.0495
   64MOL   H10920395   0.142   3.224   5.812 -1.0272 -2.2368  0.9947
   64MOL   H11020396   8.099   3.193   6.009 -0.3524  1.6583 -0.8973
   64MOL   H11120397   0.031   3.313   6.224  0.0726  3.0023  0.4562
   64MOL   H11220398   0.221   3.471   6.236 -0.4771  1.1479 -0.8682
   64MOL   H11320399   0.356   3.526   6.039  1.1895 -0.6261  1.9719
   64MOL   C11420400   0.355   3.547   5.737  0.0403  0.0340  0.4192
   64MOL   C11520401   0.369   3.572   5.583 -0.2729 -0.3366  0.8787
   64MOL   C11620402   0.492   3.502   5.510  0.5486 -0.2237 -0.4785
   64MOL   C11720403   0.483   3.398   5.416 -0.3625 -0.8547  0.0694
   64MOL   C11820404   0.595   3.322   5.379  0.2601  0.5643 -0.5940
   64MOL   C11920405   0.723   3.358   5.427  0.3550 -0.5301  0.1650
   64MOL   C12020406   0.734   3.461   5.521  0.3377 -0.8127  0.0588
   64MOL   C12120407   0.619   3.530   5.561 -0.1047 -0.4082  0.0555
   64MOL   H12220408   0.437   3.596   5.791  0.2221  1.6496 -1.2897
   64MOL   H12320409   0.273   3.606   5.777  0.6112 -0.0366  1.7254
   64MOL   H12420410   0.396   3.677   5.573 -3.1923  0.1416 -3.4982
   64MOL   H12520411   0.385   3.373   5.377 -1.2220  2.1745  0.1580
   64MOL   H12620412   0.575   3.237   5.316  1.3175  1.5532 -2.2704
   64MOL   H12720413   0.814   3.312   5.393 -0.2895  1.1780 -4.1509
   64MOL   H12820414   0.829   3.498   5.556  1.0899 -0.0698 -2.6945
   64MOL   H12920415   0.631   3.606   5.637 -3.5022 -1.1171  1.3800
   64MOL   C13020416   0.234   3.549   5.502  0.2260  0.1602  0.7474
   64MOL   C13120417   0.115   3.626   5.543  0.1500 -0.7327  0.5538
   64MOL   C13220418   0.145   3.778   5.545  0.3852  0.0408  0.1389
   64MOL   C13320419   0.215   3.838   5.439 -0.8358 -0.6103  0.5332
   64MOL   C13420420   0.246   3.974   5.442 -0.3126 -0.0137 -0.1479
   64MOL   C13520421   0.220   4.044   5.562 -0.0010 -0.4063  0.1839
   64MOL   C13620422   0.153   3.985   5.672 -0.2904  0.5230 -0.0879
   64MOL   C13720423   0.117   3.847   5.662 -0.0795 -0.2470  0.0413
   64MOL   H13820424   0.217   3.442   5.515  3.5600 -0.5943 -0.6035
   64MOL   H13920425   0.250   3.568   5.396 -0.3024  1.7459  0.9481
   64MOL   H14020426   0.084   3.595   5.643  2.6385  1.4547  2.0695
   64MOL   H14120427   0.244   3.776   5.356 -0.3506 -3.3130  2.6238
   64MOL   H14220428   0.300   4.019   5.360  2.1291 -2.1730  0.2134
   64MOL   H14320429   0.242   4.149   5.582  1.0247 -1.0505  2.6994
   64MOL   H14420430   0.115   4.041   5.757 -0.6169  0.4345 -0.1777
   64MOL   H14520431   0.079   3.784   5.741  0.2558 -0.1304  0.3009
   64MOL   C14620432   0.008   3.599   5.442 -0.2876 -0.9719  0.4687
   64MOL   C14720433   8.032   3.477   5.467  0.2790  0.0168 -0.3730
   64MOL   C14820434   8.096   3.343   5.453 -0.7811 -0.6015 -0.4251
   64MOL   C14920435   8.084   3.270   5.333  0.5268  0.1279 -0.0913
   64MOL   C15020436   8.114   3.136   5.326  0.0738  0.2163  0.3026
   64MOL   C15120437   0.048   3.072   5.441 -0.2257  0.2667 -0.3511
   64MOL   C15220438   0.070   3.145   5.560 -0.6154 -0.8602 -0.2415
   64MOL   C15320439   0.021   3.271   5.574  0.1252 -0.2617 -0.4024
   64MOL   H15420440   0.063   3.587   5.349  3.4732 -0.9786  2.5889
   64MOL   H15520441   8.057   3.682   5.418 -0.4620 -1.0345  0.7216
   64MOL   H15620442   7.977   3.482   5.373  3.9339 -0.0988 -2.5835
   64MOL   H15720443   8.057   3.331   5.248 -0.2597  0.3025  0.2766
   64MOL   H15820444   8.102   3.081   5.234 -1.0803  0.0255  0.5657
   64MOL   H15920445   0.069   2.966   5.445 -1.3153  0.0989  4.0746
   64MOL   H16020446   0.107   3.091   5.646 -0.6210 -1.8338 -0.8454
   64MOL   H16120447   0.028   3.334   5.662 -1.3618 -1.9519  0.9754
   64MOL   C16220448   7.930   3.496   5.593 -0.6847 -0.8500 -0.4926
   64MOL   C16320449   7.819   3.384   5.604 -0.0526 -0.6882 -0.6392
   64MOL   C16420450   7.807   3.320   5.742  0.0259 -0.5074 -0.0182
   64MOL   C16520451   7.764   3.394   5.854  0.4859 -0.1350 -0.4922
   64MOL   C16620452   7.743   3.332   5.979  0.3632 -1.1065  0.3805
   64MOL   C16720453   7.784   3.194   5.993  0.2296  0.2911 -0.0304
   64MOL   C16820454   7.843   3.129   5.882 -0.6015 -0.0528 -0.4099
   64MOL   C16920455   7.861   3.189   5.754  0.2046  0.0593  0.1368
   64MOL   H17020456   7.884   3.594   5.601  0.4593 -0.5269  3.2638
   64MOL   H17120457   7.991   3.496   5.684  0.9879  1.5569 -1.5674
   64MOL   H17220458   7.858   3.307   5.537  0.5562 -2.1087  1.3254
   64MOL   H17320459   7.731   3.497   5.846  2.4228  0.5852  0.4190
   64MOL   H17420460   7.698   3.388   6.059  0.2253 -0.2362 -0.2921
   64MOL   H17520461   7.773   3.149   6.091 -1.0558 -0.7016 -0.6308
   64MOL   H17620462   7.876   3.028   5.901 -0.6084  0.1977  0.9851
   64MOL   H17720463   7.903   3.131   5.674  0.7562 -0.0543  0.5050
   64MOL   C17820464   7.684   3.430   5.552  0.2781  0.1906  0.1043
   64MOL   C17920465   7.569   3.326   5.538  0.6302 -0.0251 -0.6296
   64MOL   C18020466   7.433   3.404   5.564 -0.1894  1.0214  0.1508
   64MOL   C18120467   7.388   3.501   5.471 -0.1832 -0.0641 -0.0923
   64MOL   C18220468   7.257   3.551   5.483 -0.3719  0.6112 -0.2071
   64MOL   C18320469   7.174   3.513   5.592 -0.3752  0.2233 -0.2700
   64MOL   C18420470   7.215   3.410   5.676 -0.4798  0.3863  0.5723
   64MOL   C18520471   7.348   3.356   5.671 -0.2506 -0.6721  0.2687
   64MOL   H18620472   7.702   3.476   5.455 -1.5437 -0.6523 -0.6502
   64MOL   H18720473   7.662   3.517   5.613 -0.1172  0.4056 -0.3467
   64MOL   H18820474   7.581   3.252   5.617 -1.6629  0.0803 -0.1341
   64MOL   H18920475   7.447   3.535   5.387 -0.1016 -3.4216 -1.4587
   64MOL   H19020476   7.221   3.626   5.414 -2.6108 -0.3265 -0.1006
   64MOL   H19120477   7.083   3.565   5.618  0.5900  1.2925  1.0283
   64MOL   H19220478   7.159   3.369   5.759  0.5306 -1.6133  0.3185
   64MOL   H19320479   7.386   3.282   5.740  3.2788 -0.7561 -1.6534
   64MOL   C19420480   7.581   3.240   5.406 -0.0875 -0.4835 -0.1193
   64MOL   C19520481   7.495   3.117   5.397  0.4570 -0.4287  0.2241
   64MOL   C19620482   7.457   3.079   5.255 -0.3990 -0.2305 -0.6560
   64MOL   C19720483   7.331   3.122   5.211 -0.6666  0.7232  0.1371
   64MOL   C19820484   7.283   3.079   5.085  0.2039  0.5486 -0.4252
   64MOL   C19920485   7.363   2.995   4.999  0.4562  0.2057  0.2596
   64MOL   C20020486   7.488   2.958   5.046 -0.5517 -0.1110  0.8478
   64MOL   C20120487   7.536   3.001   5.174  0.0116  0.3044 -0.5861
   64MOL   H20220488   7.686   3.212   5.396  0.2469  0.9451 -0.7649
   64MOL   H20320489   7.556   3.303   5.321 -0.6452  0.2832  0.6098
   64MOL   H20420490   7.403   3.141   5.450 -0.1149 -0.9313 -0.5320
   64MOL   H20520491   7.274   3.194   5.268 -1.3534  1.3169 -1.2810
   64MOL   H20620492   7.181   3.106   5.058 -0.1779  0.0044  0.4556
   64MOL   H20720493   7.333   2.952   4.905  0.5477 -0.4865  0.5427
   64MOL   H20820494   7.547   2.906   4.972 -0.4413  1.1617  0.0179
   64MOL   H20920495   7.634   2.962   5.201 -1.0598 -2.3634 -0.3920
   64MOL   C21020496   7.553   3.001   5.477 -0.1398  0.4885  0.4699
   64MOL   C21120497   7.456   2.882   5.486  0.5471  0.3272 -0.3423
   64MOL   C21220498   7.534   2.750   5.503  0.1665 -0.6747  0.2519
   64MOL   C21320499   7.510   2.654   5.403 -0.1210 -0.3686 -0.0877
   64MOL   C21420500   7.581   2.530   5.403 -0.0379 -0.0118  0.9010
   64MOL   C21520501   7.677   2.506   5.508 -0.4650  0.0813  0.0692
   64MOL   C21620502   7.703   2.604   5.603  0.0002 -0.2051  0.0859
   64MOL   C21720503   7.622   2.722   5.611 -0.7046  0.4662  0.2375
   64MOL   H21820504   7.587   3.029   5.577 -0.2614 -1.3866  1.0582
   64MOL   H21920505   7.645   2.967   5.429  1.5663  4.2083  0.8808
   64MOL   H22020506   7.405   2.875   5.390 -1.4521 -1.2072  0.7938
   64MOL   H22120507   7.443   2.690   5.326  0.7143  1.2787 -0.0633
   64MOL   H22220508   7.573   2.457   5.325 -0.3044  0.3306  0.6068
   64MOL   H22320509   7.732   2.413   5.509 -0.5380  0.0387  0.1593
   64MOL   H22420510   7.773   2.579   5.681 -0.4213  0.1145  0.5699
   64MOL   H22520511   7.643   2.799   5.683  2.5189  1.2224 -1.4107
   64MOL   C22620512   7.337   2.896   5.587  0.7509 -0.3771 -0.1957
   64MOL   C22720513   7.199   2.828   5.569  0.1583 -0.1914  0.1532
   64MOL   C22820514   7.129   2.888   5.446 -0.3974 -0.1380 -0.0564
   64MOL   C22920515   7.080   3.021   5.458  0.0304 -0.1104  0.3254
   64MOL   C23020516   7.013   3.086   5.356  0.3718  0.2773  0.5652
   64MOL   C23120517   6.995   3.011   5.234  0.3910  0.5679  0.5186
   64MOL   C23220518   7.047   2.881   5.219 -0.3193  0.1756  0.5991
   64MOL   C23320519   7.111   2.815   5.327  0.3647 -0.2409  0.4335
   64MOL   H23420520   7.322   3.002   5.605 -0.5852 -1.1761  4.1038
   64MOL   H23520521   7.375   2.859   5.683  2.1234 -0.7096 -0.8553
   64MOL   H23620522   7.147   2.866   5.657 -0.0057  1.2630 -0.5565
   64MOL   H23720523   7.080   3.076   5.551  0.4536  0.4507 -0.0046
   64MOL   H23820524   6.981   3.188   5.372 -2.0127 -0.4864  0.9190
   64MOL   H23920525   6.940   3.053   5.151  0.5910  0.9119  0.5539
   64MOL   H24020526   7.035   2.837   5.121  1.0172  1.5908 -0.2236
   64MOL   H24120527   7.143   2.713   5.318 -0.8454 -0.5211 -0.9316
   64MOL   C24220528   7.189   2.675   5.581  0.5533  0.1428 -0.4028
   64MOL   C24320529   7.046   2.622   5.606  0.1332 -0.5024  0.0228
   64MOL   C24420530   7.039   2.477   5.552 -0.4271  0.1173  0.0439
   64MOL   C24520531   7.131   2.374   5.585 -0.2978 -0.2204  0.1972
   64MOL   C24620532   7.122   2.247   5.538 -0.3888  0.2169 -0.2130
   64MOL   C24720533   7.022   2.216   5.441 -0.3008  0.0236 -0.4631
   64MOL   C24820534   6.934   2.316   5.397 -0.1607  0.7200 -0.1903
   64MOL   C24920535   6.945   2.445   5.453  0.4658  0.1036  0.3585
   64MOL   H25020536   7.246   2.634   5.664 -1.7405  0.6872  1.4788
   64MOL   H25120537   7.226   2.626   5.491  1.8939 -1.4854  0.9947
   64MOL   H25220538   6.981   2.689   5.550  1.3881  0.9013  0.2448
   64MOL   H25320539   7.197   2.383   5.670  1.4091 -0.9812 -1.0108
   64MOL   H25420540   7.177   2.164   5.581  2.3788  1.0726 -2.0450
   64MOL   H25520541   7.009   2.111   5.418 -1.1706 -0.2844  1.3146
   64MOL   H25620542   6.846   2.287   5.342 -0.2853 -2.3315  1.4912
   64MOL   H25720543   6.892   2.532   5.416  1.2570  1.3211  2.0303
   64MOL   C25820544   7.010   2.639   5.758 -0.1406  0.0987  1.2166
   64MOL   C25920545   6.892   2.557   5.803  0.5937 -0.4289 -0.1988
   64MOL   C26020546   6.906   2.548   5.952 -0.0990 -0.6021  0.1640
   64MOL   C26120547   6.948   2.426   6.007  0.3084  0.6657  0.2041
   64MOL   C26220548   6.939   2.404   6.148 -0.0937  0.2594 -0.4318
   64MOL   C26320549   6.910   2.515   6.228  0.2675 -0.7857 -0.2622
   64MOL   C26420550   6.885   2.643   6.177 -0.2257 -0.0229  0.1924
   64MOL   C26520551   6.881   2.663   6.040 -0.4232  0.3799 -0.0452
   64MOL   H26620552   7.008   2.745   5.782 -1.2255  0.6053 -0.9646
   64MOL   H26720553   7.097   2.605   5.813 -0.0035  1.3952  1.8153
   64MOL   H26820554   6.884   2.454   5.768  2.1640 -1.1770  1.5989
   64MOL   H26920555   6.973   2.346   5.939  1.3749  1.8557 -0.8270
   64MOL   H27020556   6.959   2.306   6.190  1.5321  0.8676  0.2226
   64MOL   H27120557   6.914   2.493   6.334 -0.0648  0.9078  0.1130
   64MOL   H27220558   6.860   2.729   6.238 -0.6987 -0.5378  0.7436
   64MOL   H27320559   6.871   2.763   6.001  0.7819  0.4466 -0.2088
   64MOL   C27420560   6.758   2.634   5.777 -0.3186  0.5517  0.0488
   64MOL   C27520561   6.627   2.557   5.800  0.3784  0.4437  0.3522
   64MOL   C27620562   6.515   2.652   5.842  0.3066  0.1150 -0.0802
   64MOL   C27720563   6.448   2.721   5.737  0.0484 -0.0493 -0.6475
   64MOL   C27820564   6.358   2.822   5.761  0.3025  0.0155 -0.1666
   64MOL   C27920565   6.334   2.854   5.896 -0.5099 -0.9622 -0.1099
   64MOL   C28020566   6.396   2.788   5.997 -0.4494  0.1768 -0.6388
   64MOL   C28120567   6.486   2.682   5.973 -0.1275 -0.2639  0.3247
   64MOL   H28220568   6.757   2.656   5.670 -1.6131 -0.4306 -0.1586
   64MOL   H28320569   6.770   2.728   5.831  4.0420  0.3329 -0.3935
   64MOL   H28420570   6.635   2.505   5.895  2.7464  2.8821  1.5589
   64MOL   H28520571   6.459   2.705   5.631 -0.2100 -2.0027 -0.3858
   64MOL   H28620572   6.314   2.889   5.689 -0.6000  1.4157  1.6569
   64MOL   H28720573   6.279   2.946   5.909  1.0036  0.3508 -2.5286
   64MOL   H28820574   6.393   2.830   6.097  0.6181 -0.3685 -0.3744
   64MOL   H28920575   6.544   2.647   6.057 -1.0068 -2.3732  0.0844
   64MOL   C29020576   6.596   2.458   5.682  0.5813 -0.0963  0.0933
   64MOL   C29120577   6.492   2.344   5.723 -0.5828  0.4402  0.1322
   64MOL   C29220578   6.354   2.396   5.775  0.4186  0.0770  0.2243
   64MOL   C29320579   6.264   2.449   5.680 -0.1256  0.3572  0.2976
   64MOL   C29420580   6.135   2.493   5.716 -0.5029 -0.4747  0.3395
   64MOL   C29520581   6.086   2.475   5.846  0.5010  0.0992  0.3470
   64MOL   C29620582   6.174   2.411   5.942  0.1781 -0.0932  0.1921
   64MOL   C29720583   6.309   2.383   5.908 -0.1456  0.5388 -0.1416
   64MOL   H29820584   6.683   2.399   5.657  0.1949 -0.7397  0.2707
   64MOL   H29920585   6.563   2.519   5.597 -3.7345 -0.6395  1.2230
   64MOL   H30020586   6.521   2.287   5.811 -1.2308 -1.2315 -0.7111
   64MOL   H30120587   6.283   2.460   5.574 -0.0680 -0.9470  0.1693
   64MOL   H30220588   6.075   2.545   5.642  2.0624 -0.2787 -1.6506
   64MOL   H30320589   5.986   2.507   5.871  0.3258  0.2687 -0.5596
   64MOL   H30420590   6.132   2.389   6.039  1.3994 -0.7147  0.5910
   64MOL   H30520591   6.366   2.333   5.984 -2.5465 -0.6632  0.9073
   64MOL   C30620592   6.496   2.230   5.616  0.1532  0.1161 -0.3287
   64MOL   C30720593   6.408   2.104   5.649 -0.6256  0.4804 -0.4228
   64MOL   C30820594   6.392   2.005   5.538  0.2063  0.1828 -0.4318
   64MOL   C30920595   6.282   2.011   5.448  0.2051 -0.0841  0.6031
   64MOL   C31020596   6.277   1.910   5.338 -0.5963 -0.3754 -0.4586
   64MOL   C31120597   6.371   1.806   5.332  0.1431 -0.5061  0.3792
   64MOL   C31220598   6.475   1.797   5.429 -0.2024  0.8339  1.0832
   64MOL   C31320599   6.485   1.897   5.525 -0.7512  0.3346 -0.1096
   64MOL   H31420600   6.598   2.194   5.601 -0.0999 -0.8592  0.2824
   64MOL   H31520601   6.459   2.281   5.527 -0.6233 -0.2744 -0.2296
   64MOL   H31620602   6.311   2.127   5.694  0.0985 -0.6454  1.8125
   64MOL   H31720603   6.218   2.098   5.447  2.1842  1.4211  1.9629
   64MOL   H31820604   6.203   1.918   5.260 -0.3229 -1.5443 -0.8455
   64MOL   H31920605   6.364   1.728   5.258  0.8830 -0.5838  0.3796
   64MOL   H32020606   6.528   1.703   5.428 -1.4992  0.0675  2.6645
   64MOL   H32120607   6.561   1.888   5.601 -0.1575 -2.2463 -0.9557
   64MOL   H32220608   6.464   2.060   5.731  0.1692 -1.3754 -1.9249
   65MOL     C120609   1.567   6.432   3.388  0.1748  0.6002 -0.3283
   65MOL     C220610   1.555   6.572   3.335  0.0316 -0.2489 -0.4148
   65MOL     C320611   1.667   6.654   3.396  0.2664  0.1879  0.2626
   65MOL     C420612   1.802   6.641   3.361 -0.7412 -0.3511  0.2405
   65MOL     C520613   1.902   6.716   3.421  0.6612  0.4277 -0.2414
   65MOL     C620614   1.862   6.818   3.517  0.6385  0.2696 -0.1462
   65MOL     C720615   1.724   6.843   3.531 -0.2903  0.2089  0.4422
   65MOL     C820616   1.627   6.757   3.475  0.4466 -0.7048 -0.0917
   65MOL     H920617   1.670   6.398   3.395  0.1486  0.9383  1.9675
   65MOL    H1020618   1.531   6.437   3.491 -0.1954  2.8347 -0.5422
   65MOL    H1120619   1.456   6.613   3.355  0.0912  0.1439 -0.9165
   65MOL    H1220620   1.846   6.567   3.295 -0.1346 -1.2965  1.6769
   65MOL    H1320621   2.007   6.701   3.399  0.7089  1.6621 -0.8720
   65MOL    H1420622   1.939   6.892   3.535 -0.7606  1.5631  0.5952
   65MOL    H1520623   1.696   6.926   3.594 -2.8293 -2.8585  3.5609
   65MOL    H1620624   1.528   6.777   3.515  0.6535 -0.8905  0.5302
   65MOL    H1720625   1.503   6.360   3.336  1.9148 -1.1932 -0.0630
   65MOL    C1820626   1.552   6.563   3.183  0.1990  0.1698  0.7574
   65MOL    C1920627   1.532   6.704   3.116  0.3401  0.5370 -0.1644
   65MOL    C2020628   1.668   6.741   3.043 -0.3416 -0.1157 -0.9692
   65MOL    C2120629   1.755   6.827   3.109  0.5153  0.2434 -0.0049
   65MOL    C2220630   1.882   6.844   3.055  0.5590 -0.1625 -0.6908
   65MOL    C2320631   1.920   6.784   2.933  0.5410  0.0989 -0.6418
   65MOL    C2420632   1.832   6.701   2.871 -0.2177  0.6723  0.4304
   65MOL    C2520633   1.706   6.671   2.929  0.1281 -0.0171 -0.5199
   65MOL    H2620634   1.477   6.493   3.148 -0.2013  0.8457  0.2502
   65MOL    H2720635   1.646   6.517   3.155  0.5665  0.2972  1.7354
   65MOL    H2820636   1.518   6.783   3.190 -0.7022  1.7069 -1.5666
   65MOL    H2920637   1.719   6.876   3.198 -0.9758 -1.2088  0.2185
   65MOL    H3020638   1.952   6.906   3.108  1.9207 -0.4959 -2.0665
   65MOL    H3120639   2.011   6.815   2.884 -0.1846  2.0331 -0.7986
   65MOL    H3220640   1.858   6.661   2.774  0.6811  1.3215  0.3958
   65MOL    H3320641   1.635   6.601   2.887 -1.3987  1.3211 -0.2476
   65MOL    C3420642   1.420   6.712   3.010  0.7674  0.4513 -0.6563
   65MOL    C3520643   1.280   6.682   3.082 -0.5726  0.5026 -0.1784
   65MOL    C3620644   1.239   6.785   3.191  0.5231  0.0894  0.4464
   65MOL    C3720645   1.205   6.749   3.322  0.1564 -0.4669  0.0164
   65MOL    C3820646   1.167   6.855   3.412  0.1701 -0.3801  0.6029
   65MOL    C3920647   1.166   6.984   3.377  0.9804 -0.2432 -0.5571
   65MOL    C4020648   1.201   7.016   3.241 -0.0675  0.4559 -0.2448
   65MOL    C4120649   1.228   6.919   3.149 -0.2012 -0.0038 -0.0559
   65MOL    H4220650   1.429   6.637   2.932 -0.7324 -1.0286  0.5609
   65MOL    H4320651   1.425   6.809   2.960 -0.4166 -0.5443 -2.7535
   65MOL    H4420652   1.302   6.589   3.134 -0.5468 -0.2017 -1.4443
   65MOL    H4520653   1.206   6.646   3.353  1.3424  0.0866  1.9272
   65MOL    H4620654   1.140   6.824   3.512 -0.2659 -0.8516  0.3416
   65MOL    H4720655   1.142   7.063   3.447 -0.1753 -2.6949  1.9070
   65MOL    H4820656   1.204   7.116   3.200  0.7002  1.6994  2.7002
   65MOL    H4920657   1.256   6.951   3.050 -0.4962  0.6222  0.0650
   65MOL    C5020658   1.170   6.655   2.973 -0.6177 -0.4103  0.0487
   65MOL    C5120659   1.181   6.531   2.880  0.7778 -0.2117  0.2065
   65MOL    C5220660   1.240   6.406   2.942  0.5538 -0.1625 -0.6716
   65MOL    C5320661   1.183   6.348   3.054  0.0994  0.3888 -0.2362
   65MOL    C5420662   1.246   6.238   3.121  0.0349  0.6673  0.8023
   65MOL    C5520663   1.363   6.179   3.060  0.2651  0.0949 -0.5777
   65MOL    C5620664   1.418   6.235   2.942 -0.6223 -0.7834  0.4481
   65MOL    C5720665   1.359   6.350   2.884  0.2359 -0.0027  0.2396
   65MOL    H5820666   1.142   6.741   2.913 -1.5753  0.5845  1.8572
   65MOL    H5920667   1.077   6.637   3.027 -1.4386  0.2110 -1.1582
   65MOL    H6020668   1.243   6.557   2.794  0.7745  1.1202  0.5989
   65MOL    H6120669   1.106   6.403   3.105 -1.2328 -2.9535  1.5717
   65MOL    H6220670   1.214   6.202   3.218  1.7626 -2.2306  0.3707
   65MOL    H6320671   1.409   6.090   3.101 -0.6613  0.8348  2.1116
   65MOL    H6420672   1.507   6.201   2.892 -0.9971  0.4101 -1.0835
   65MOL    H6520673   1.420   6.397   2.808  0.5415  0.1087  0.5530
   65MOL    C6620674   1.047   6.500   2.811 -0.5239  0.3271  0.4652
   65MOL    C6720675   0.988   6.606   2.721  0.3379  0.6617  0.0574
   65MOL    C6820676   1.072   6.624   2.589  0.3959 -0.0396  0.2485
   65MOL    C6920677   1.107   6.755   2.542  0.6254  0.2460 -0.1654
   65MOL    C7020678   1.192   6.771   2.430 -0.6717 -0.1795  0.3002
   65MOL    C7120679   1.242   6.660   2.360  0.0293  0.1800  0.3127
   65MOL    C7220680   1.207   6.530   2.400  0.1199 -0.8686 -0.4012
   65MOL    C7320681   1.114   6.510   2.515  0.2397 -0.2413  0.6675
   65MOL    H7420682   0.969   6.496   2.888 -0.8079  1.6683  0.2644
   65MOL    H7520683   1.052   6.408   2.754  0.0260 -0.1748  1.3146
   65MOL    H7620684   1.000   6.703   2.769 -1.2780  0.9321 -0.0536
   65MOL    H7720685   1.085   6.849   2.589 -1.6095 -0.2977 -0.0893
   65MOL    H7820686   1.215   6.867   2.388  0.1777 -0.8438 -0.7978
   65MOL    H7920687   1.308   6.670   2.275  1.9697  0.6203  1.8172
   65MOL    H8020688   1.239   6.444   2.343 -0.7107 -2.1382  1.0041
   65MOL    H8120689   1.080   6.411   2.539  0.4935 -0.1769  1.2894
   65MOL    C8220690   0.835   6.568   2.698  0.1757  0.9558 -0.1266
   65MOL    C8320691   0.730   6.600   2.811  0.0540  0.0879 -0.3128
   65MOL    C8420692   0.763   6.735   2.879 -0.1127  0.1646  1.0739
   65MOL    C8520693   0.789   6.853   2.806  0.0877 -0.0001  0.5635
   65MOL    C8620694   0.811   6.976   2.875  0.2239  0.4921 -0.2095
   65MOL    C8720695   0.802   6.977   3.016 -0.1398  0.3138  0.3841
   65MOL    C8820696   0.781   6.860   3.088  0.4151  0.0506  0.5664
   65MOL    C8920697   0.756   6.735   3.017  0.0186 -0.2601 -0.2493
   65MOL    H9020698   0.833   6.468   2.655 -0.8551  0.9992 -0.1767
   65MOL    H9120699   0.802   6.619   2.607  1.3356  2.8592  0.4827
   65MOL    H9220700   0.771   6.532   2.886 -1.1416 -0.1570  0.1315
   65MOL    H9320701   0.786   6.842   2.699  0.9288  0.0871  0.5335
   65MOL    H9420702   0.843   7.066   2.827  1.3167  0.1400 -0.1658
   65MOL    H9520703   0.817   7.075   3.057 -1.1913  0.3716  0.6462
   65MOL    H9620704   0.782   6.860   3.196  0.7614  0.0757  0.5627
   65MOL    H9720705   0.731   6.644   3.070  1.5162 -2.1202 -2.6546
   65MOL    C9820706   0.580   6.569   2.789 -0.2840 -0.1428  0.2868
   65MOL    C9920707   0.541   6.413   2.804  0.1714 -0.1804  0.1791
   65MOL   C10020708   0.603   6.342   2.926  0.0204 -0.1419 -0.8931
   65MOL   C10120709   0.693   6.230   2.898 -0.5592 -0.4930  0.2745
   65MOL   C10220710   0.763   6.171   3.006  0.5715 -0.4490  0.1260
   65MOL   C10320711   0.739   6.217   3.140 -0.4788 -0.8135 -0.1682
   65MOL   C10420712   0.649   6.327   3.165  0.1658  0.4635  0.7516
   65MOL   C10520713   0.571   6.378   3.062  0.5940  0.3186  0.0948
   65MOL   H10620714   0.534   6.607   2.697  1.3626  1.7721  0.2090
   65MOL   H10720715   0.525   6.623   2.866 -4.8151 -0.3254 -2.6784
   65MOL   H10820716   0.566   6.359   2.713 -0.7133  0.2212 -0.3056
   65MOL   H10920717   0.726   6.205   2.799 -0.3515 -1.4870  0.5904
   65MOL   H11020718   0.837   6.094   2.993  1.9121  1.1456 -1.8199
   65MOL   H11120719   0.787   6.168   3.223  0.2774 -0.2577 -0.2856
   65MOL   H11220720   0.643   6.368   3.264 -2.0075  1.4886  0.2413
   65MOL   H11320721   0.518   6.468   3.090  1.7909  1.2145 -0.4929
   65MOL   C11420722   0.391   6.410   2.797 -0.1275  0.2159  1.0590
   65MOL   C11520723   0.322   6.272   2.796  0.0950  0.8092 -0.1555
   65MOL   C11620724   0.173   6.273   2.812  0.4779  0.1421 -0.9824
   65MOL   C11720725   0.095   6.375   2.746  0.0501 -0.0554  0.2766
   65MOL   C11820726   8.068   6.368   2.747 -0.5433 -0.3371  0.2817
   65MOL   C11920727   8.003   6.262   2.820 -0.2240  0.5790  0.3979
   65MOL   C12020728   8.079   6.161   2.881  0.1118 -0.5533  0.4227
   65MOL   C12120729   0.104   6.167   2.875 -0.7531 -0.7140  0.3300
   65MOL   H12220730   0.365   6.477   2.716  1.6786 -2.1568 -1.5640
   65MOL   H12320731   0.360   6.455   2.892  2.4667  0.5585  1.7905
   65MOL   H12420732   0.362   6.234   2.890 -0.6099 -0.9696 -0.5547
   65MOL   H12520733   0.134   6.459   2.690 -3.0234  1.2712  0.0256
   65MOL   H12620734   8.000   6.444   2.710  0.8061  0.3030 -0.9335
   65MOL   H12720735   7.896   6.262   2.839 -0.1145  0.3974  1.0437
   65MOL   H12820736   8.021   6.087   2.934 -0.7786  0.0803  0.3467
   65MOL   H12920737   0.158   6.096   2.936  1.9460  1.8606  1.0653
   65MOL   C13020738   0.360   6.177   2.678  0.3138  0.4770  0.6124
   65MOL   C13120739   0.278   6.179   2.544  0.6349 -0.0066 -0.0787
   65MOL   C13220740   0.288   6.317   2.471  0.7975 -0.1323 -0.1203
   65MOL   C13320741   0.406   6.381   2.461  0.3785 -0.4879  0.0559
   65MOL   C13420742   0.407   6.512   2.402 -0.2118 -0.3326 -0.0727
   65MOL   C13520743   0.291   6.570   2.347 -0.2445  0.0436  0.0227
   65MOL   C13620744   0.168   6.502   2.366 -0.0340 -0.6725 -0.0502
   65MOL   C13720745   0.168   6.377   2.430 -0.3729 -0.0465  0.1675
   65MOL   H13820746   0.333   6.077   2.711 -1.3923  0.1911 -1.5207
   65MOL   H13920747   0.467   6.178   2.656  0.4463  0.0797  1.2370
   65MOL   H14020748   0.176   6.157   2.576  1.0349 -0.1591  1.1171
   65MOL   H14120749   0.494   6.340   2.508  3.3982  2.3080 -2.8492
   65MOL   H14220750   0.495   6.574   2.415 -1.8161  1.7979  0.7810
   65MOL   H14320751   0.297   6.669   2.303  0.4689 -1.1390 -2.5985
   65MOL   H14420752   0.076   6.535   2.320 -2.1106 -0.9371  3.7149
   65MOL   H14520753   0.077   6.319   2.439 -0.8940  0.7617  0.1598
   65MOL   C14620754   0.312   6.067   2.450 -0.4461 -0.3376  0.0804
   65MOL   C14720755   0.261   6.085   2.300  0.4417  0.3412 -0.8428
   65MOL   C14820756   0.345   5.995   2.214 -0.5828 -0.1524 -0.4661
   65MOL   C14920757   0.415   6.039   2.097  0.1708 -0.1638  0.0805
   65MOL   C15020758   0.499   5.952   2.024 -0.0254  0.6666  0.2934
   65MOL   C15120759   0.510   5.814   2.059  0.0576 -0.5699 -0.0007
   65MOL   C15220760   0.446   5.771   2.177 -0.2920  0.2245 -0.1346
   65MOL   C15320761   0.368   5.862   2.247  0.2500 -0.8635 -0.3746
   65MOL   H15420762   0.290   5.967   2.487 -1.2107 -0.5980 -1.0509
   65MOL   H15520763   0.420   6.080   2.446 -0.4660  0.3107  1.2346
   65MOL   H15620764   0.287   6.184   2.261  1.2941  0.2325 -0.5660
   65MOL   H15720765   0.409   6.138   2.053  1.9508  0.2110  0.6357
   65MOL   H15820766   0.546   5.981   1.931  0.5138  3.2085  1.2978
   65MOL   H15920767   0.561   5.741   1.999 -2.7188 -1.7357 -1.0539
   65MOL   H16020768   0.468   5.672   2.213 -0.8477  0.5756  1.2136
   65MOL   H16120769   0.320   5.833   2.339 -1.3230  2.9019  0.0939
   65MOL   C16220770   0.109   6.052   2.281 -0.7710  0.1256 -0.2058
   65MOL   C16320771   0.054   6.074   2.140  0.5833  1.1573  0.4635
   65MOL   C16420772   8.064   5.974   2.109  0.0742  0.1425 -0.4076
   65MOL   C16520773   8.090   5.871   2.016  0.2075  0.6468  0.3330
   65MOL   C16620774   7.986   5.779   1.986  0.2828 -0.6538 -0.2649
   65MOL   C16720775   7.862   5.791   2.044 -0.1475  0.2875 -0.9372
   65MOL   C16820776   7.829   5.903   2.130  1.0399 -0.1192  0.3577
   65MOL   C16920777   7.936   5.985   2.173  0.2517  0.3895  0.4757
   65MOL   H17020778   0.039   6.112   2.339  0.7808  1.0152  0.8105
   65MOL   H17120779   0.097   5.949   2.315 -4.0758  0.7263  0.5766
   65MOL   H17220780   0.132   6.044   2.069  0.3730 -0.0145  0.7273
   65MOL   H17320781   0.073   5.862   1.971  0.5071  0.8138  0.9447
   65MOL   H17420782   8.013   5.699   1.920 -0.9529  0.5047 -2.2084
   65MOL   H17520783   7.789   5.722   2.006 -0.0005  0.7749 -2.1253
   65MOL   H17620784   7.729   5.914   2.167  0.3325  0.9625 -1.7456
   65MOL   H17720785   7.911   6.065   2.242 -1.8950  0.6648 -0.5674
   65MOL   C17820786   0.015   6.225   2.112  0.2437  0.1672 -0.0801
   65MOL   C17920787   0.022   6.254   1.959  0.2912  0.4963  0.4746
   65MOL   C18020788   8.070   6.390   1.929 -0.1635 -0.4438 -1.1115
   65MOL   C18120789   0.026   6.504   1.971  0.0740 -0.5056 -0.2514
   65MOL   C18220790   8.102   6.630   1.925 -0.4925  0.9943 -0.6025
   65MOL   C18320791   7.991   6.650   1.844 -0.1953  0.0751  0.7749
   65MOL   C18420792   7.921   6.538   1.810 -0.4139  0.3861 -0.7865
   65MOL   C18520793   7.957   6.412   1.851  0.0141  0.6552  0.6086
   65MOL   H18620794   0.088   6.294   2.153  0.0645  0.8607 -0.9291
   65MOL   H18720795   8.038   6.263   2.156 -0.2650 -0.8916 -0.1988
   65MOL   H18820796   8.079   6.173   1.914  0.4596  1.1179 -0.8747
   65MOL   H18920797   0.108   6.489   2.039  0.6371  1.0956 -0.5571
   65MOL   H19020798   0.060   6.704   1.955 -0.3017 -0.1730  1.8788
   65MOL   H19120799   7.970   6.734   1.779 -0.5548 -0.3095  0.3910
   65MOL   H19220800   7.837   6.559   1.746  0.6988  0.7829 -2.1493
   65MOL   H19320801   7.903   6.320   1.834 -0.7223  1.1808  0.0807
   65MOL   C19420802   0.161   6.242   1.885  0.3318 -0.4333  0.2833
   65MOL   C19520803   0.147   6.211   1.732  0.7698 -0.0421  0.4140
   65MOL   C19620804   0.280   6.215   1.671 -0.5072 -0.2665 -0.4560
   65MOL   C19720805   0.323   6.320   1.583  0.6868 -0.0369 -0.0646
   65MOL   C19820806   0.460   6.325   1.540 -0.0919 -0.0503 -0.0953
   65MOL   C19920807   0.547   6.224   1.576 -0.1838 -0.3103  0.3742
   65MOL   C20020808   0.504   6.115   1.662 -0.0583 -0.6342  0.0720
   65MOL   C20120809   0.375   6.115   1.717  0.1850  0.0316  0.1209
   65MOL   H20220810   0.219   6.161   1.929 -0.6632 -0.6492  1.2405
   65MOL   H20320811   0.228   6.325   1.907  1.2022 -0.6414 -1.5433
   65MOL   H20420812   0.081   6.284   1.686 -0.4936 -0.9635  0.7438
   65MOL   H20520813   0.250   6.394   1.554  2.0242  1.2353 -0.2594
   65MOL   H20620814   0.492   6.408   1.478 -1.3100  0.6991  0.2686
   65MOL   H20720815   0.642   6.208   1.528 -0.0810 -0.7027  0.7013
   65MOL   H20820816   0.576   6.041   1.693 -0.2990 -1.1242 -0.5171
   65MOL   H20920817   0.333   6.035   1.776 -2.5284  0.3865 -1.2585
   65MOL   C21020818   0.077   6.071   1.702 -1.0742  0.0579 -0.0161
   65MOL   C21120819   8.066   6.089   1.614 -0.1378 -0.2178  0.3365
   65MOL   C21220820   8.095   6.147   1.474 -0.1704 -0.2195 -0.4260
   65MOL   C21320821   8.051   6.275   1.451  0.2426  0.2943 -0.3379
   65MOL   C21420822   8.088   6.338   1.332  0.9927 -0.1947 -0.0438
   65MOL   C21520823   0.038   6.269   1.233 -0.4946  0.0235  0.1836
   65MOL   C21620824   0.068   6.132   1.254 -0.2487  0.0049  0.4989
   65MOL   C21720825   0.052   6.077   1.376 -0.0891 -0.0777 -0.7140
   65MOL   H21820826   0.049   6.009   1.787 -0.7601  1.7591  1.3453
   65MOL   H21920827   0.143   6.007   1.644 -1.0019  0.5677 -0.4961
   65MOL   H22020828   8.003   6.156   1.672  0.5464  1.7939 -1.1645
   65MOL   H22120829   7.999   6.336   1.522 -0.9722  0.5084 -1.3895
   65MOL   H22220830   8.046   6.435   1.308  2.6441  0.5981  0.2330
   65MOL   H22320831   0.079   6.316   1.145 -2.1751  0.7461 -0.2302
   65MOL   H22420832   0.131   6.077   1.186  0.8487  1.6764  0.1257
   65MOL   H22520833   0.100   5.983   1.401  3.7884  2.2970  1.2182
   65MOL   C22620834   7.971   5.968   1.599 -0.1988  0.2548  0.1222
   65MOL   C22720835   7.846   5.992   1.516 -0.2941  0.8068  0.4360
   65MOL   C22820836   7.762   5.867   1.512  0.0452  0.8003 -0.6840
   65MOL   C22920837   7.700   5.818   1.627  0.3169  0.0094  0.6462
   65MOL   C23020838   7.628   5.693   1.616 -0.1576  0.0420  0.2167
   65MOL   C23120839   7.624   5.616   1.496 -0.0985  0.4369 -0.3197
   65MOL   C23220840   7.695   5.661   1.387  0.4791  0.0843 -0.2667
   65MOL   C23320841   7.761   5.785   1.394 -0.3161  0.6431 -0.2180
   65MOL   H23420842   7.955   5.934   1.702 -0.3294 -0.6487 -0.1924
   65MOL   H23520843   8.025   5.883   1.557 -0.8007  0.8071 -1.7758
   65MOL   H23620844   7.874   5.999   1.411 -1.1783 -1.1862  0.0374
   65MOL   H23720845   7.714   5.867   1.722 -1.9769 -1.2371  1.6772
   65MOL   H23820846   7.591   5.655   1.710  2.1583  0.4996  1.3220
   65MOL   H23920847   7.569   5.523   1.497 -0.2715  0.5237 -1.1820
   65MOL   H24020848   7.689   5.612   1.291  0.3677 -3.5393  1.5021
   65MOL   H24120849   7.812   5.823   1.306 -2.5246  0.6401 -1.5162
   65MOL   C24220850   7.761   6.110   1.553 -0.1395  1.1186  0.1486
   65MOL   C24320851   7.626   6.137   1.471 -0.8364  0.4044 -0.1795
   65MOL   C24420852   7.552   6.249   1.542 -0.3133  0.4063  0.7556
   65MOL   C24520853   7.604   6.380   1.539  0.7178 -0.1991 -0.4254
   65MOL   C24620854   7.527   6.489   1.596  0.8695  0.2554 -0.0234
   65MOL   C24720855   7.410   6.460   1.664  0.7149 -0.2309  0.1351
   65MOL   C24820856   7.364   6.333   1.674 -0.0687  0.4332 -0.1910
   65MOL   C24920857   7.429   6.226   1.606  1.3172 -0.0769  0.0814
   65MOL   H25020858   7.826   6.196   1.542 -0.1756  1.3257  1.4021
   65MOL   H25120859   7.732   6.111   1.658 -0.1124 -0.3782  0.1834
   65MOL   H25220860   7.564   6.048   1.468  1.4961 -1.3490  1.9596
   65MOL   H25320861   7.696   6.403   1.488 -0.2245  1.0927 -1.5700
   65MOL   H25420862   7.557   6.592   1.592  1.8769  0.1062  2.6776
   65MOL   H25520863   7.340   6.536   1.696 -0.6132 -1.0266 -0.8191
   65MOL   H25620864   7.269   6.311   1.721  1.5885 -0.1727  3.0247
   65MOL   H25720865   7.391   6.126   1.620  0.0718  0.6201  1.8484
   65MOL   C25820866   7.651   6.165   1.320 -0.8136 -0.8172  0.1800
   65MOL   C25920867   7.525   6.180   1.232  0.3373 -0.3734  0.4630
   65MOL   C26020868   7.472   6.328   1.231 -0.0694  0.1919 -0.0776
   65MOL   C26120869   7.538   6.427   1.153 -0.3596  0.4047 -0.1204
   65MOL   C26220870   7.480   6.552   1.138 -0.1375 -0.3756 -0.5029
   65MOL   C26320871   7.357   6.587   1.198  0.6321  0.8361  0.0590
   65MOL   C26420872   7.291   6.486   1.268  1.0894 -0.6689 -0.6739
   65MOL   C26520873   7.347   6.355   1.293  0.4298  0.5336 -0.2072
   65MOL   H26620874   7.713   6.080   1.291  0.0303  0.4150 -1.6978
   65MOL   H26720875   7.715   6.252   1.305  0.2461 -1.6423 -0.2152
   65MOL   H26820876   7.449   6.113   1.272 -1.8495  1.2655 -0.8245
   65MOL   H26920877   7.631   6.411   1.101  0.7431 -0.8166  2.1701
   65MOL   H27020878   7.532   6.629   1.083  1.4980 -0.9619  0.1808
   65MOL   H27120879   7.305   6.682   1.195 -1.8420 -0.3307  2.6183
   65MOL   H27220880   7.202   6.520   1.319  2.3149 -0.4631  1.3430
   65MOL   H27320881   7.301   6.279   1.355  2.0712 -0.9924 -0.8087
   65MOL   C27420882   7.555   6.129   1.087 -0.8726  0.2625 -0.3161
   65MOL   C27520883   7.557   5.973   1.071  0.8624  0.0444 -0.5441
   65MOL   C27620884   7.420   5.916   1.092 -0.2260 -0.4723 -0.1943
   65MOL   C27720885   7.396   5.832   1.201 -0.3993  0.0168  0.1482
   65MOL   C27820886   7.272   5.766   1.223  0.2647 -0.6623  0.4509
   65MOL   C27920887   7.169   5.793   1.133  0.4867 -0.1413  0.1774
   65MOL   C28020888   7.191   5.878   1.027 -0.2110  0.5020 -0.2784
   65MOL   C28120889   7.315   5.936   1.005  0.3765  0.5469  0.5213
   65MOL   H28220890   7.648   6.178   1.056 -0.7027 -0.6670 -1.3265
   65MOL   H28320891   7.478   6.166   1.020 -2.2511  0.8987  1.5875
   65MOL   H28420892   7.629   5.937   1.144 -1.2833 -1.9435  0.6420
   65MOL   H28520893   7.471   5.822   1.278 -0.2602 -0.4301 -0.0439
   65MOL   H28620894   7.250   5.711   1.314  0.4438  0.9441  1.4880
   65MOL   H28720895   7.071   5.754   1.159  0.1762  0.8187  0.4388
   65MOL   H28820896   7.113   5.907   0.958 -0.1635  0.3287 -0.4035
   65MOL   H28920897   7.328   6.004   0.922 -0.1662  1.3762  1.1054
   65MOL   C29020898   7.595   5.939   0.930  0.1532 -0.9174  0.7423
   65MOL   C29120899   7.751   5.938   0.899 -0.3956  0.3541  0.6690
   65MOL   C29220900   7.828   5.844   0.994 -0.5890  0.1056 -0.1989
   65MOL   C29320901   7.807   5.709   0.998 -0.1394  1.1613 -0.5109
   65MOL   C29420902   7.905   5.625   1.061  0.1819  0.2208 -0.5356
   65MOL   C29520903   8.013   5.680   1.133  0.2758 -0.9653  0.2714
   65MOL   C29620904   8.017   5.822   1.143 -0.6262  0.0726  0.7545
   65MOL   C29720905   7.929   5.897   1.074  0.1235 -0.7996 -0.1186
   65MOL   H29820906   7.563   6.008   0.852  0.3553 -0.6632  0.8833
   65MOL   H29920907   7.551   5.840   0.917 -0.9311 -0.2668 -0.7038
   65MOL   H30020908   7.796   6.037   0.894 -1.1972  0.6807 -0.1705
   65MOL   H30120909   7.719   5.670   0.949  0.0095  0.5966 -0.3454
   65MOL   H30220910   7.898   5.517   1.057  0.5773  0.2315 -1.6668
   65MOL   H30320911   8.085   5.613   1.177  0.5656 -1.4433 -0.9203
   65MOL   H30420912   8.106   5.865   1.186 -0.8387  0.9496  0.3073
   65MOL   H30520913   7.944   6.004   1.065 -0.2851 -0.7009  0.3047
   65MOL   C30620914   7.759   5.900   0.756 -0.1132 -0.1119 -0.0278
   65MOL   C30720915   7.904   5.876   0.701  0.0824 -0.3944 -0.2623
   65MOL   C30820916   7.898   5.825   0.559  0.2151  0.3792 -0.3339
   65MOL   C30920917   7.966   5.889   0.451 -0.0881 -0.5704  0.2841
   65MOL   C31020918   7.981   5.824   0.329  0.5607 -0.5716  0.2811
   65MOL   C31120919   7.912   5.703   0.304  0.0048 -0.2842  0.1105
   65MOL   C31220920   7.844   5.644   0.411 -0.2051  0.6372  0.3344
   65MOL   C31320921   7.838   5.703   0.536  0.4643 -0.6879  0.0177
   65MOL   H31420922   7.716   5.981   0.697  0.0753 -0.0178 -0.0378
   65MOL   H31520923   7.705   5.807   0.739 -0.5908  0.2660 -0.5899
   65MOL   H31620924   7.946   5.799   0.766 -1.4463 -1.1977 -0.2074
   65MOL   H31720925   8.011   5.986   0.466  1.4632 -1.1749 -0.3734
   65MOL   H31820926   8.050   5.871   0.261  2.9186 -2.9208  0.9627
   65MOL   H31920927   7.919   5.660   0.205 -1.0300 -1.2160  0.4297
   65MOL   H32020928   7.788   5.554   0.392  0.7993  0.2510 -0.8512
   65MOL   H32120929   7.771   5.658   0.608  0.5152 -1.7811 -0.5963
   65MOL   H32220930   7.966   5.966   0.710 -0.3045 -0.2928  1.5817
   66MOL     C120931   6.476   5.067   4.704  0.1749 -0.4204 -0.1439
   66MOL     C220932   6.455   5.114   4.854 -0.5345 -0.6242 -0.2137
   66MOL     C320933   6.311   5.135   4.873  0.3574  0.7377 -0.1902
   66MOL     C420934   6.259   5.267   4.888  0.3032 -0.3084 -0.3989
   66MOL     C520935   6.121   5.286   4.887 -0.2016 -0.1363  0.1557
   66MOL     C620936   6.037   5.171   4.884  0.3180  0.0857 -0.2413
   66MOL     C720937   6.085   5.040   4.866 -0.7046 -0.2689  0.1938
   66MOL     C820938   6.226   5.025   4.856 -0.1315  1.0108 -0.2434
   66MOL     H920939   6.410   4.984   4.678  0.3432 -1.4826  2.6698
   66MOL    H1020940   6.463   5.148   4.632  2.1340 -0.5037 -0.6268
   66MOL    H1120941   6.500   5.213   4.858 -0.9362 -0.4138 -0.7814
   66MOL    H1220942   6.326   5.351   4.882  0.2458 -0.3795 -2.4190
   66MOL    H1320943   6.084   5.387   4.893  0.1153 -0.1140  2.0373
   66MOL    H1420944   5.931   5.186   4.897  0.6726  2.0074  0.6519
   66MOL    H1520945   6.015   4.958   4.862  1.6877 -2.2939 -1.2234
   66MOL    H1620946   6.265   4.931   4.819 -1.7526 -0.5186  1.8134
   66MOL    H1720947   6.581   5.037   4.693 -0.1779 -1.3984 -0.9352
   66MOL    C1820948   6.517   5.027   4.965 -0.1968  0.2778 -1.1654
   66MOL    C1920949   6.663   4.992   4.959 -0.1169  0.4904  0.2362
   66MOL    C2020950   6.744   5.115   4.988  0.2984 -0.3527 -0.1467
   66MOL    C2120951   6.818   5.169   4.882 -0.1058  0.5634 -0.1845
   66MOL    C2220952   6.898   5.280   4.908 -0.3651 -0.3307 -0.5659
   66MOL    C2320953   6.884   5.349   5.029  0.5254 -0.6067  0.5628
   66MOL    C2420954   6.807   5.298   5.140 -0.1176  0.1560  0.1302
   66MOL    C2520955   6.737   5.176   5.114 -0.4795  0.4049 -0.3013
   66MOL    H2620956   6.469   4.930   4.957 -1.4527  0.8758 -0.9757
   66MOL    H2720957   6.483   5.051   5.066  1.9934 -1.0512 -0.0867
   66MOL    H2820958   6.682   4.960   4.856  1.9927  0.7189  0.5388
   66MOL    H2920959   6.824   5.119   4.786 -0.0822 -3.4140  1.7693
   66MOL    H3020960   6.953   5.332   4.832  1.7480 -0.4976  0.8078
   66MOL    H3120961   6.943   5.437   5.047  0.5917 -0.4776 -0.2730
   66MOL    H3220962   6.801   5.355   5.231 -2.9793  0.8924 -0.4727
   66MOL    H3320963   6.667   5.132   5.184 -0.9129 -0.1483 -1.0672
   66MOL    C3420964   6.696   4.876   5.063 -0.4797  0.3440 -0.3697
   66MOL    C3520965   6.846   4.855   5.098 -0.0322  0.0402 -0.1475
   66MOL    C3620966   6.860   4.773   5.222  0.0561  0.6717 -0.1996
   66MOL    C3720967   6.768   4.673   5.257  0.0974  0.3346  0.4434
   66MOL    C3820968   6.774   4.601   5.382 -0.2376  0.0265 -0.7146
   66MOL    C3920969   6.874   4.643   5.476  0.2733 -0.2634  0.3284
   66MOL    C4020970   6.970   4.744   5.444 -0.4656  0.3255 -0.1997
   66MOL    C4120971   6.967   4.806   5.320 -0.0525 -0.5294 -0.5646
   66MOL    H4220972   6.644   4.783   5.039  1.1666 -0.5713 -0.4807
   66MOL    H4320973   6.661   4.911   5.160  0.9530 -1.3273  0.7764
   66MOL    H4420974   6.885   4.953   5.125  0.0593 -0.1014  0.2336
   66MOL    H4520975   6.697   4.635   5.185  0.5493 -0.2690  0.3100
   66MOL    H4620976   6.702   4.521   5.392 -0.0591 -0.1912 -1.1450
   66MOL    H4720977   6.896   4.588   5.567 -2.4963 -2.5518 -0.3031
   66MOL    H4820978   7.051   4.776   5.507  1.3212 -0.8239 -1.8465
   66MOL    H4920979   7.039   4.884   5.298 -0.8471  0.3325 -0.1309
   66MOL    C5020980   6.923   4.786   4.978  0.4647 -0.2579 -0.6275
   66MOL    C5120981   7.041   4.867   4.923  0.7834 -0.3459  0.4045
   66MOL    C5220982   7.134   4.894   5.039  0.3786  0.5308  0.2768
   66MOL    C5320983   7.140   5.031   5.086 -0.4412 -0.2408 -0.2227
   66MOL    C5420984   7.237   5.062   5.188  0.2788  0.4339 -1.6619
   66MOL    C5520985   7.310   4.956   5.245 -0.2124 -0.0633 -0.4494
   66MOL    C5620986   7.300   4.827   5.201 -0.0643 -0.8736 -0.5062
   66MOL    C5720987   7.220   4.798   5.092 -1.0130 -0.6195  0.2370
   66MOL    H5820988   6.843   4.769   4.905 -0.4889 -2.0130  0.7662
   66MOL    H5920989   6.963   4.692   5.015 -0.9512 -0.1872  1.1711
   66MOL    H6020990   7.014   4.968   4.894  0.8026 -0.2601  0.6820
   66MOL    H6120991   7.075   5.103   5.038  1.6101  0.7536 -1.6005
   66MOL    H6220992   7.253   5.164   5.220 -2.5534 -0.0690  1.6476
   66MOL    H6320993   7.378   4.977   5.327 -1.0835 -1.5532  0.6811
   66MOL    H6420994   7.362   4.750   5.245  2.5040  0.8599 -0.9615
   66MOL    H6520995   7.223   4.702   5.042  1.2690  0.0099 -0.8923
   66MOL    C6620996   7.101   4.786   4.804 -0.0610 -0.4213 -0.0225
   66MOL    C6720997   7.037   4.813   4.674  0.1874 -0.2516 -0.0418
   66MOL    C6820998   7.028   4.962   4.637  0.1150  0.3189  0.2761
   66MOL    C6920999   7.133   5.055   4.677  0.0486 -0.7883  0.0275
   66MOL    C7021000   7.119   5.190   4.650 -0.3324 -0.7929  0.3153
   66MOL    C7121001   7.003   5.233   4.583  0.9063 -0.4603 -0.3092
   66MOL    C7221002   6.905   5.140   4.540 -0.4806 -0.2432 -0.1515
   66MOL    C7321003   6.919   5.004   4.568  0.5569 -1.1919  0.1579
   66MOL    H7421004   7.111   4.681   4.830  0.7361  0.0044  1.4086
   66MOL    H7521005   7.210   4.791   4.797 -0.0556 -0.8334 -0.2952
   66MOL    H7621006   6.935   4.777   4.684  1.4288 -3.4970  1.3464
   66MOL    H7721007   7.213   5.020   4.741 -0.8389  0.2679  1.7488
   66MOL    H7821008   7.189   5.254   4.701 -0.6163  0.6713 -1.0970
   66MOL    H7921009   6.975   5.337   4.575  0.4723 -0.6954 -1.9305
   66MOL    H8021010   6.828   5.183   4.478 -0.4429  2.3164  1.4866
   66MOL    H8121011   6.848   4.931   4.534  0.0634 -0.2042 -0.9681
   66MOL    C8221012   7.117   4.731   4.566  0.0034 -0.4604  0.3123
   66MOL    C8321013   7.074   4.585   4.565  0.2415  0.1247  0.3640
   66MOL    C8421014   6.928   4.581   4.519 -0.4647 -0.1532 -0.5469
   66MOL    C8521015   6.890   4.622   4.389  0.4196  0.2809 -0.0385
   66MOL    C8621016   6.752   4.642   4.365  0.6495 -0.4491  0.4731
   66MOL    C8721017   6.656   4.596   4.466  0.5916  0.0649  0.3455
   66MOL    C8821018   6.698   4.522   4.579 -0.4087 -0.6269 -0.4346
   66MOL    C8921019   6.831   4.533   4.610 -0.0576  0.4111 -0.3449
   66MOL    H9021020   7.225   4.742   4.579  0.2570 -3.0550  0.5319
   66MOL    H9121021   7.091   4.767   4.466  1.1515  0.5120  0.3546
   66MOL    H9221022   7.075   4.553   4.670 -1.4606 -2.9631 -0.4875
   66MOL    H9321023   6.962   4.651   4.314 -1.1132  1.4572 -1.0909
   66MOL    H9421024   6.720   4.701   4.280 -0.1733 -0.8165  0.5242
   66MOL    H9521025   6.551   4.615   4.453  0.8136  2.2234  1.4358
   66MOL    H9621026   6.639   4.474   4.656 -1.3460  1.1654 -0.0120
   66MOL    H9721027   6.871   4.490   4.701  1.8620 -2.1325 -2.3246
   66MOL    C9821028   7.162   4.491   4.480  0.1832 -0.9283 -0.3441
   66MOL    C9921029   7.308   4.472   4.523  0.3109  0.5236 -0.3794
   66MOL   C10021030   7.342   4.501   4.674 -0.8343  0.2848  0.5236
   66MOL   C10121031   7.282   4.422   4.772  0.2370 -0.1145  0.8531
   66MOL   C10221032   7.311   4.443   4.905  0.2113 -0.3625  0.3281
   66MOL   C10321033   7.407   4.546   4.940 -0.2806  0.0268 -0.1253
   66MOL   C10421034   7.457   4.630   4.838  0.4900  0.0655 -1.0161
   66MOL   C10521035   7.423   4.610   4.707  0.3653 -0.7825  0.0364
   66MOL   H10621036   7.162   4.527   4.377  2.6694  0.5769  0.1358
   66MOL   H10721037   7.114   4.393   4.488 -3.0392  0.5263 -0.9912
   66MOL   H10821038   7.358   4.558   4.478  0.4020  0.1654 -0.9696
   66MOL   H10921039   7.224   4.334   4.748  0.8979 -0.3632  0.1475
   66MOL   H11021040   7.262   4.380   4.978  0.2872 -2.5991 -1.4981
   66MOL   H11121041   7.425   4.567   5.045  0.5700  1.1942 -0.4975
   66MOL   H11221042   7.526   4.709   4.865  2.4023 -1.5968 -0.9329
   66MOL   H11321043   7.464   4.682   4.637 -1.4173  0.9343  0.7034
   66MOL   C11421044   7.365   4.339   4.471 -0.1145  0.0641 -0.5781
   66MOL   C11521045   7.524   4.333   4.476 -0.6154  0.4629 -0.0536
   66MOL   C11621046   7.580   4.186   4.487  0.3333 -0.4994  0.2854
   66MOL   C11721047   7.652   4.144   4.600  0.4413  0.3200  0.1557
   66MOL   C11821048   7.719   4.017   4.601 -0.3433 -0.2855 -0.1061
   66MOL   C11921049   7.713   3.934   4.484  0.2909  0.1938  0.1013
   66MOL   C12021050   7.631   3.979   4.375 -0.0980  0.3449  0.4071
   66MOL   C12121051   7.566   4.103   4.376 -0.2196 -0.4616  0.9230
   66MOL   H12221052   7.332   4.328   4.367 -1.4236  0.5130 -0.2160
   66MOL   H12321053   7.327   4.260   4.535  0.2245 -1.2666 -1.9856
   66MOL   H12421054   7.559   4.374   4.570 -1.1283 -0.5389  0.5817
   66MOL   H12521055   7.681   4.207   4.682 -0.3551 -1.0089  1.4848
   66MOL   H12621056   7.775   3.989   4.689 -1.9204  1.6557  1.5476
   66MOL   H12721057   7.767   3.841   4.470 -1.9794 -0.8091 -2.5198
   66MOL   H12821058   7.643   3.923   4.283 -0.6223  0.8878 -0.0000
   66MOL   H12921059   7.519   4.138   4.286  1.7730 -3.9642 -1.6359
   66MOL   C13021060   7.600   4.408   4.367  0.5370 -0.0969 -0.0562
   66MOL   C13121061   7.762   4.393   4.359  0.8236 -0.7185 -0.3345
   66MOL   C13221062   7.806   4.296   4.250  0.4040 -0.0752 -0.1544
   66MOL   C13321063   7.759   4.315   4.117  0.5443  0.1791 -1.0341
   66MOL   C13421064   7.788   4.223   4.014  0.1144  0.5430  0.0562
   66MOL   C13521065   7.886   4.122   4.042 -0.6985  0.4242 -0.4384
   66MOL   C13621066   7.937   4.111   4.173 -0.4623 -0.0777 -0.1907
   66MOL   C13721067   7.894   4.192   4.280 -0.2581 -0.2251 -0.3665
   66MOL   H13821068   7.573   4.513   4.359  1.4130  0.2512  1.4141
   66MOL   H13921069   7.555   4.385   4.271 -1.2572 -4.6644  1.7286
   66MOL   H14021070   7.792   4.342   4.451 -0.1266 -0.0155  0.3758
   66MOL   H14121071   7.697   4.399   4.086  1.5510  1.1187 -0.5396
   66MOL   H14221072   7.748   4.242   3.915 -0.1698 -2.9235 -0.5392
   66MOL   H14321073   7.902   4.048   3.965 -0.4689 -0.0038  0.0212
   66MOL   H14421074   8.008   4.030   4.184  1.1478  1.1185 -1.4989
   66MOL   H14521075   7.920   4.163   4.380  0.0592  1.2869  0.0088
   66MOL   C14621076   7.836   4.525   4.349  0.3335  0.2525 -0.0739
   66MOL   C14721077   7.831   4.619   4.476 -0.4206 -0.2831 -0.3941
   66MOL   C14821078   7.889   4.550   4.603  1.0702  0.4843 -0.2347
   66MOL   C14921079   8.027   4.508   4.615 -0.2853 -0.3482 -0.4456
   66MOL   C15021080   8.061   4.459   4.744  0.1706  0.6123  0.7683
   66MOL   C15121081   7.968   4.434   4.847  0.1840  0.2196 -0.3213
   66MOL   C15221082   7.833   4.461   4.826  0.5963 -0.0602 -0.6940
   66MOL   C15321083   7.794   4.528   4.709 -0.1162  0.4909  0.6088
   66MOL   H15421084   7.797   4.579   4.263 -1.3799 -0.9044 -0.0287
   66MOL   H15521085   7.942   4.508   4.330  0.4809  1.3627 -0.2580
   66MOL   H15621086   7.726   4.643   4.493 -0.6782 -2.6577  1.7184
   66MOL   H15721087   8.096   4.518   4.533  0.3085  0.1474  0.1135
   66MOL   H15821088   0.049   4.434   4.766  0.5934  2.6408  1.2385
   66MOL   H15921089   7.997   4.393   4.942 -1.2060  0.1312  0.0766
   66MOL   H16021090   7.750   4.440   4.892  0.6172 -1.9934 -1.2586
   66MOL   H16121091   7.690   4.550   4.693 -0.2156 -1.2558 -1.3535
   66MOL   C16221092   7.905   4.756   4.453 -0.0148  0.3136  0.2611
   66MOL   C16321093   7.834   4.851   4.355  0.2335 -0.1559  0.0352
   66MOL   C16421094   7.707   4.894   4.412  0.1216  0.3434  0.5352
   66MOL   C16521095   7.585   4.866   4.352 -0.1687  0.4202  0.0406
   66MOL   C16621096   7.459   4.900   4.418  0.2159 -0.1359  0.7327
   66MOL   C16721097   7.462   4.975   4.537 -0.7899  0.9330 -0.6374
   66MOL   C16821098   7.584   5.009   4.590  0.3358 -0.2672 -0.7370
   66MOL   C16921099   7.701   4.963   4.537 -0.3273 -0.1227  0.5230
   66MOL   H17021100   8.009   4.738   4.426 -0.3792 -0.3494 -0.7406
   66MOL   H17121101   7.908   4.801   4.552 -0.4922 -0.7034  0.7544
   66MOL   H17221102   7.801   4.799   4.265  2.2440  1.3122 -1.5755
   66MOL   H17321103   7.578   4.821   4.254  0.2209  0.1833  0.1224
   66MOL   H17421104   7.368   4.865   4.371 -0.1118  1.0377  0.4726
   66MOL   H17521105   7.369   4.998   4.586  0.2092 -1.6840  2.6454
   66MOL   H17621106   7.588   5.073   4.677  2.1227 -0.7790 -0.4268
   66MOL   H17721107   7.790   4.984   4.595 -0.9948  2.4987  0.6608
   66MOL   C17821108   7.933   4.956   4.309  1.1726 -0.1630 -0.9467
   66MOL   C17921109   8.038   4.912   4.204 -0.8112  0.0223  0.2314
   66MOL   C18021110   7.988   4.873   4.062 -0.4935 -0.2835 -1.0728
   66MOL   C18121111   8.041   4.758   3.999  0.2276 -0.0067  0.7600
   66MOL   C18221112   7.999   4.723   3.870  0.0142 -0.5126  0.8154
   66MOL   C18321113   7.904   4.797   3.802  0.0912  0.6566 -0.3909
   66MOL   C18421114   7.848   4.902   3.870 -0.4022 -0.2475  0.0513
   66MOL   C18521115   7.889   4.943   3.993 -0.5667  0.7285 -0.1341
   66MOL   H18621116   7.979   4.991   4.401  1.1369 -1.3105 -0.4834
   66MOL   H18721117   7.868   5.035   4.271 -0.4737 -1.2733 -0.4944
   66MOL   H18821118   8.084   4.817   4.232  1.3730  0.8809 -0.3829
   66MOL   H18921119   0.000   4.694   4.046  1.4096  0.5188 -0.3730
   66MOL   H19021120   8.052   4.639   3.827 -0.1289  0.4608 -1.3392
   66MOL   H19121121   7.872   4.776   3.701  0.5841 -0.1772 -0.3808
   66MOL   H19221122   7.767   4.965   3.836  0.6693  2.1883  1.8879
   66MOL   H19321123   7.844   5.036   4.025 -1.0271  0.0377  1.2501
   66MOL   C19421124   0.039   5.021   4.197 -0.2804  0.2215 -0.5377
   66MOL   C19521125   0.117   5.041   4.328 -0.0834  0.0921  0.2908
   66MOL   C19621126   0.150   4.914   4.403  0.0426  0.7971  0.0822
   66MOL   C19721127   0.107   4.895   4.537  0.0125 -0.0660  0.3847
   66MOL   C19821128   0.143   4.779   4.605  0.0952  0.3556  0.4096
   66MOL   C19921129   0.218   4.676   4.542  0.3217 -0.2213  0.0747
   66MOL   C20021130   0.263   4.693   4.412 -0.5068  0.6683 -0.6134
   66MOL   C20121131   0.224   4.813   4.344  0.4290 -0.9268 -0.1314
   66MOL   H20221132   8.108   5.112   4.157 -0.3090  0.7019  0.5602
   66MOL   H20321133   0.099   5.000   4.109  0.0447  1.3516 -0.5996
   66MOL   H20421134   0.059   5.110   4.389  2.6671  2.1323  0.6705
   66MOL   H20521135   0.062   4.973   4.598 -1.6071  0.0472 -0.9379
   66MOL   H20621136   0.124   4.751   4.708  0.9812  0.7833  0.6911
   66MOL   H20721137   0.246   4.586   4.595  0.9710  0.3854  0.7720
   66MOL   H20821138   0.317   4.618   4.357  0.6206  1.3606 -0.4652
   66MOL   H20921139   0.249   4.818   4.239  3.6040 -1.2018  0.5576
   66MOL   C21021140   0.245   5.116   4.310  0.4448 -0.4922  0.8331
   66MOL   C21121141   0.227   5.264   4.274  0.0570  0.1424  0.0375
   66MOL   C21221142   0.161   5.341   4.388 -0.6130  0.4109  0.8724
   66MOL   C21321143   0.184   5.302   4.525  0.0230 -0.2562 -0.5859
   66MOL   C21421144   0.122   5.371   4.632 -0.7263 -0.0616 -0.4905
   66MOL   C21521145   0.033   5.474   4.597 -0.4105 -0.1949  0.0585
   66MOL   C21621146   0.011   5.517   4.465  0.4913  0.6220 -0.0233
   66MOL   C21721147   0.064   5.447   4.363 -0.1619 -0.7894  0.0410
   66MOL   H21821148   0.294   5.060   4.230  0.0792 -0.9626  0.9368
   66MOL   H21921149   0.317   5.110   4.392 -0.4498  0.0462  1.6709
   66MOL   H22021150   0.161   5.274   4.188  2.2848  0.7314 -1.6304
   66MOL   H22121151   0.256   5.228   4.558 -0.2516 -0.5492 -0.6319
   66MOL   H22221152   0.139   5.327   4.729 -0.2484  0.1088 -0.4966
   66MOL   H22321153   8.100   5.527   4.678 -0.0402 -0.2355  0.3028
   66MOL   H22421154   8.061   5.603   4.456 -0.7254 -0.2287  0.4626
   66MOL   H22521155   0.038   5.482   4.264  1.8365  0.0027 -0.2343
   66MOL   C22621156   0.356   5.334   4.219  0.2141  0.3574 -0.7203
   66MOL   C22721157   0.382   5.352   4.067  0.1608  0.0619 -0.2747
   66MOL   C22821158   0.520   5.418   4.055  0.5532 -0.1183  0.4309
   66MOL   C22921159   0.639   5.352   4.073  1.0567  1.0163 -0.4084
   66MOL   C23021160   0.764   5.417   4.068 -0.0818  0.4387  0.5584
   66MOL   C23121161   0.761   5.555   4.046 -0.2900  0.2914 -0.1562
   66MOL   C23221162   0.644   5.629   4.021 -0.7048 -0.2016 -0.0872
   66MOL   C23321163   0.524   5.555   4.028 -1.2248 -0.5838 -0.3039
   66MOL   H23421164   0.435   5.285   4.276 -0.5794 -0.7167 -0.5327
   66MOL   H23521165   0.353   5.435   4.260  1.5185 -1.1264  3.2936
   66MOL   H23621166   0.311   5.421   4.019 -1.5416 -2.1119 -0.9573
   66MOL   H23721167   0.637   5.245   4.084  1.6045  1.0159 -0.2940
   66MOL   H23821168   0.860   5.371   4.084  0.2735  1.1612  0.5006
   66MOL   H23921169   0.858   5.603   4.040 -0.9651  1.4504 -2.2143
   66MOL   H24021170   0.650   5.733   3.993 -0.8812 -0.3613 -0.7386
   66MOL   H24121171   0.437   5.617   4.008 -1.4455 -0.0664  2.1048
   66MOL   C24221172   0.373   5.215   3.992  0.6773  0.3008 -0.1576
   66MOL   C24321173   0.417   5.206   3.844 -1.2768  0.1037 -0.2490
   66MOL   C24421174   0.355   5.075   3.780  0.1082 -0.2256  0.0465
   66MOL   C24521175   0.215   5.063   3.762  0.1235  0.4988  0.0807
   66MOL   C24621176   0.160   4.943   3.712 -0.4662  0.6713 -0.0535
   66MOL   C24721177   0.255   4.836   3.681 -0.2460 -0.7582 -0.0824
   66MOL   C24821178   0.392   4.847   3.702 -0.7186  0.6472 -0.9177
   66MOL   C24921179   0.443   4.966   3.749  0.2372  0.3088  0.2100
   66MOL   H25021180   0.266   5.203   3.972  1.4404 -1.0718 -3.7598
   66MOL   H25121181   0.415   5.135   4.052  1.8257  1.3011  0.3912
   66MOL   H25221182   0.526   5.197   3.846 -1.4122 -1.5363  1.7387
   66MOL   H25321183   0.155   5.153   3.762 -2.5631 -1.2365 -1.7511
   66MOL   H25421184   0.054   4.936   3.694 -0.3316 -0.7434 -0.3406
   66MOL   H25521185   0.232   4.740   3.638  0.1000  0.5133 -3.2603
   66MOL   H25621186   0.449   4.762   3.666 -2.4827 -0.6552 -0.7244
   66MOL   H25721187   0.547   4.971   3.778  1.2070 -1.8673 -2.7399
   66MOL   C25821188   0.387   5.338   3.765 -0.0151  0.1725  1.0120
   66MOL   C25921189   0.422   5.335   3.614 -0.3687 -0.5105  0.8032
   66MOL   C26021190   0.377   5.463   3.539  0.1933 -0.1954  0.5282
   66MOL   C26121191   0.311   5.444   3.410 -0.1232 -0.4835 -0.5349
   66MOL   C26221192   0.276   5.561   3.335  1.0465 -0.0511  0.5366
   66MOL   C26321193   0.290   5.690   3.394  0.1894 -0.1916  0.0880
   66MOL   C26421194   0.350   5.699   3.518  0.2163 -0.0467  1.0976
   66MOL   C26521195   0.387   5.591   3.598  0.0814 -0.0181  0.0959
   66MOL   H26621196   0.434   5.418   3.823 -0.3908  1.5483 -0.5204
   66MOL   H26721197   0.278   5.346   3.774 -0.1642 -0.2107 -0.4042
   66MOL   H26821198   0.360   5.254   3.576  0.9096 -1.2442  0.2377
   66MOL   H26921199   0.304   5.346   3.364 -0.8549 -0.4133 -0.5774
   66MOL   H27021200   0.236   5.553   3.235 -0.1126  0.6105  0.9302
   66MOL   H27121201   0.263   5.784   3.350 -0.3158  0.0149  0.8228
   66MOL   H27221202   0.363   5.801   3.553 -1.4862  0.8321 -0.7660
   66MOL   H27321203   0.442   5.598   3.691 -0.4190  0.2191  0.3741
   66MOL   C27421204   0.578   5.331   3.592  1.4316  0.5699 -0.3466
   66MOL   C27521205   0.626   5.321   3.445 -0.7512 -0.0445  0.3078
   66MOL   C27621206   0.772   5.362   3.425  0.0321 -0.7151 -0.3739
   66MOL   C27721207   0.870   5.267   3.398 -0.0764  0.0773  0.1451
   66MOL   C27821208   1.005   5.313   3.394 -0.3732 -0.9768 -0.3207
   66MOL   C27921209   1.036   5.450   3.399  0.0215 -0.0864  0.9755
   66MOL   C28021210   0.934   5.545   3.417 -0.4701  0.6190  0.8998
   66MOL   C28121211   0.799   5.509   3.428  0.1208  0.1268 -0.0863
   66MOL   H28221212   0.620   5.248   3.650 -0.1529  0.2299  0.3390
   66MOL   H28321213   0.625   5.416   3.642  1.4632 -0.0239  0.6513
   66MOL   H28421214   0.576   5.404   3.396  1.6625  1.2096 -0.0819
   66MOL   H28521215   0.837   5.165   3.382  0.1968  0.2168 -1.3889
   66MOL   H28621216   1.083   5.238   3.383 -0.7784 -1.6651  1.3293
   66MOL   H28721217   1.137   5.480   3.373  0.4482 -0.2774  2.3740
   66MOL   H28821218   0.959   5.650   3.412 -3.1214  1.2379  0.3899
   66MOL   H28921219   0.719   5.581   3.437 -0.3819 -0.4440  0.0426
   66MOL   C29021220   0.586   5.192   3.376 -0.0521  0.0814  1.1626
   66MOL   C29121221   0.590   5.185   3.222 -0.0435 -0.2782  0.2640
   66MOL   C29221222   0.543   5.046   3.185  0.0064  0.1190  0.0907
   66MOL   C29321223   0.405   5.010   3.196  0.3252 -0.1589 -0.4313
   66MOL   C29421224   0.369   4.880   3.148 -0.2783  0.4484 -0.0232
   66MOL   C29521225   0.469   4.794   3.094 -0.3384 -0.0782  0.9195
   66MOL   C29621226   0.602   4.838   3.077 -0.2532  0.2057  0.7465
   66MOL   C29721227   0.644   4.965   3.129 -0.4103 -0.1388 -0.2402
   66MOL   H29821228   0.482   5.169   3.397 -0.2678 -0.9829 -0.9423
   66MOL   H29921229   0.637   5.105   3.418  0.7308 -1.1779 -2.2347
   66MOL   H30021230   0.696   5.197   3.203 -0.4597 -0.2349 -2.1414
   66MOL   H30121231   0.331   5.080   3.233  3.2110  2.2460  1.0760
   66MOL   H30221232   0.267   4.849   3.167 -0.7836  1.0149 -1.7198
   66MOL   H30321233   0.444   4.696   3.056  1.1108  0.4435 -1.4772
   66MOL   H30421234   0.671   4.771   3.028  0.1700 -0.4020  2.1443
   66MOL   H30521235   0.746   5.001   3.131 -0.3664 -0.3130  2.5352
   66MOL   C30621236   0.523   5.299   3.148  0.0523 -0.0621  0.0396
   66MOL   C30721237   0.517   5.268   2.990 -0.2813  0.5580 -0.6360
   66MOL   C30821238   0.654   5.278   2.927  0.2135  0.1743 -0.0446
   66MOL   C30921239   0.690   5.170   2.846 -0.4441 -0.7512 -0.6028
   66MOL   C31021240   0.817   5.163   2.786 -1.1053  1.1361 -0.0416
   66MOL   C31121241   0.907   5.272   2.800 -0.5652 -0.1428  0.7029
   66MOL   C31221242   0.874   5.382   2.885  0.5442  0.1310 -0.2166
   66MOL   C31321243   0.748   5.382   2.944  0.1805  0.3425 -0.3680
   66MOL   H31421244   0.559   5.397   3.179  1.6571 -1.0246  1.2877
   66MOL   H31521245   0.418   5.305   3.177 -0.4281  0.2495 -1.6995
   66MOL   H31621246   0.445   5.334   2.943 -2.3519 -2.4116 -1.8307
   66MOL   H31721247   0.614   5.093   2.838  1.0261 -2.3479  0.6051
   66MOL   H31821248   0.847   5.072   2.736 -1.5716 -0.4333  2.4546
   66MOL   H31921249   0.997   5.270   2.740 -0.7666 -0.3114  0.4036
   66MOL   H32021250   0.945   5.464   2.893 -0.2048  0.6754  0.9595
   66MOL   H32121251   0.718   5.466   3.005  2.4447  1.2088 -0.4060
   66MOL   H32221252   0.476   5.168   2.972 -0.9224  0.1843  2.4353
   67MOL     C121253   1.631   7.637   4.269 -0.7650 -0.0517 -0.1551
   67MOL     C221254   1.547   7.753   4.211 -0.6636  0.4202 -0.0410
   67MOL     C321255   1.497   7.721   4.067 -0.5560 -0.1353 -0.6453
   67MOL     C421256   1.395   7.629   4.047 -0.8482 -0.4678 -0.0587
   67MOL     C521257   1.362   7.597   3.911 -0.0969  0.5802 -0.4304
   67MOL     C621258   1.423   7.669   3.806  0.3661 -0.4122 -0.0557
   67MOL     C721259   1.511   7.775   3.831 -0.6412  0.4465 -0.5663
   67MOL     C821260   1.551   7.800   3.962 -0.5296  1.1585  0.1454
   67MOL     H921261   1.722   7.635   4.209 -0.5145  1.0552  0.1658
   67MOL    H1021262   1.653   7.645   4.376  2.0415 -1.2946 -0.5962
   67MOL    H1121263   1.605   7.844   4.202  1.3353 -0.6126  2.0473
   67MOL    H1221264   1.366   7.561   4.126  0.7692 -1.0866  0.0345
   67MOL    H1321265   1.298   7.516   3.879  2.0070 -0.9506 -0.8631
   67MOL    H1421266   1.403   7.648   3.702  0.9241  0.2638 -0.3062
   67MOL    H1521267   1.552   7.824   3.744  1.7823  0.5657  0.6181
   67MOL    H1621268   1.622   7.880   3.976 -0.2911  1.0270 -0.2833
   67MOL    H1721269   1.598   7.536   4.249  1.9062 -0.8247 -0.8266
   67MOL    C1821270   1.425   7.792   4.295 -0.4264  0.3145 -0.2099
   67MOL    C1921271   1.470   7.859   4.431 -0.3367  0.5426  1.0476
   67MOL    C2021272   1.540   7.988   4.407  0.6230  0.1611 -0.8359
   67MOL    C2121273   1.479   8.083   4.321  0.0115 -0.0983  0.2138
   67MOL    C2221274   1.556   0.082   4.281  0.1227  0.4026 -0.1524
   67MOL    C2321275   1.684   0.100   4.333 -0.5047  0.4661 -0.2132
   67MOL    C2421276   1.745   8.114   4.416  0.7962 -0.0493 -0.1889
   67MOL    C2521277   1.676   7.995   4.449 -0.1915  0.9773  1.2140
   67MOL    H2621278   1.360   7.709   4.323 -1.0762  1.1090  0.6495
   67MOL    H2721279   1.351   7.853   4.244  0.7469  0.4510 -1.7960
   67MOL    H2821280   1.530   7.791   4.489 -1.1404 -1.3305 -0.2581
   67MOL    H2921281   1.377   8.063   4.291  0.5502 -2.2549 -0.2570
   67MOL    H3021282   1.513   0.163   4.223 -0.3781 -0.0889 -0.4734
   67MOL    H3121283   1.732   0.195   4.315 -0.3246  0.4236  0.0255
   67MOL    H3221284   1.848   0.017   4.443  0.8847 -1.6861  0.5633
   67MOL    H3321285   1.729   7.921   4.507 -0.3969 -1.4325 -1.5985
   67MOL    C3421286   1.352   7.889   4.523  0.1892  0.4751 -0.2562
   67MOL    C3521287   1.314   7.760   4.603  0.3398 -0.0582 -0.0335
   67MOL    C3621288   1.408   7.730   4.718  0.8283 -0.2254  0.3262
   67MOL    C3721289   1.470   7.824   4.801  0.4763 -0.8606 -0.3121
   67MOL    C3821290   1.555   7.784   4.908  0.4224 -0.6456  0.4301
   67MOL    C3921291   1.581   7.650   4.934  0.2625 -0.0466 -0.2573
   67MOL    C4021292   1.508   7.554   4.858 -0.5163 -0.1268 -0.4748
   67MOL    C4121293   1.422   7.596   4.757  0.0161 -0.7058  0.4886
   67MOL    H4221294   1.273   7.933   4.461  1.0443  1.8499 -0.4046
   67MOL    H4321295   1.382   7.970   4.590 -2.7089 -0.9618  2.9321
   67MOL    H4421296   1.328   7.675   4.535  1.2501  0.1140 -0.0657
   67MOL    H4521297   1.462   7.931   4.785 -1.0556 -0.8259  0.5729
   67MOL    H4621298   1.600   7.868   4.960 -1.2852  0.4507  0.1937
   67MOL    H4721299   1.646   7.625   5.017 -0.0371  0.6862  0.2059
   67MOL    H4821300   1.524   7.452   4.890 -0.1293  0.6414  1.8185
   67MOL    H4921301   1.363   7.521   4.706  1.5074 -2.2650  0.9702
   67MOL    C5021302   1.165   7.754   4.643 -0.1178  0.1085  0.2613
   67MOL    C5121303   1.065   7.742   4.532 -0.8346 -0.0399 -0.3847
   67MOL    C5221304   1.062   7.603   4.471  0.1400  0.0191  0.2491
   67MOL    C5321305   1.047   7.481   4.542  0.0165  0.0602  0.2256
   67MOL    C5421306   1.056   7.354   4.481 -0.1222 -0.7294 -0.6918
   67MOL    C5521307   1.078   7.344   4.344 -0.1171  0.8204  0.2192
   67MOL    C5621308   1.088   7.461   4.270  0.6603 -0.0848  0.1644
   67MOL    C5721309   1.077   7.588   4.332  0.1990 -0.1335  0.2262
   67MOL    H5821310   1.151   7.846   4.700  1.3140  0.9629 -0.7310
   67MOL    H5921311   1.146   7.679   4.720 -2.9374  1.0323  0.5042
   67MOL    H6021312   1.110   7.808   4.458 -0.4320  1.0017  0.7658
   67MOL    H6121313   1.035   7.492   4.648  0.1170 -0.0028  0.2442
   67MOL    H6221314   1.046   7.262   4.536 -1.1488 -0.4535 -0.4054
   67MOL    H6321315   1.091   7.248   4.296 -0.3412  1.3991 -1.0235
   67MOL    H6421316   1.106   7.458   4.163 -0.9422 -1.6086 -0.0727
   67MOL    H6521317   1.096   7.678   4.276  0.1203  1.0141  2.0109
   67MOL    C6621318   0.921   7.781   4.567  0.4222  0.4646 -0.3827
   67MOL    C6721319   0.901   7.933   4.610 -0.2161  0.6623 -0.5006
   67MOL    C6821320   0.973   8.042   4.524  0.1828  0.6219 -0.0155
   67MOL    C6921321   0.929   8.065   4.396  0.4413  0.2455  0.3554
   67MOL    C7021322   0.983   0.061   4.316 -0.2099  0.6114 -0.0890
   67MOL    C7121323   1.089   0.129   4.366  0.5904 -0.7440 -0.0420
   67MOL    C7221324   1.148   0.086   4.488 -0.2617  0.5462 -0.4110
   67MOL    C7321325   1.079   0.002   4.572 -0.1835 -0.5285  1.0257
   67MOL    H7421326   0.876   7.713   4.639  1.1367  1.4595  1.0249
   67MOL    H7521327   0.853   7.763   4.484 -1.0502 -2.9969  1.4779
   67MOL    H7621328   0.933   7.950   4.713  0.5581 -2.0758 -0.2553
   67MOL    H7721329   0.851   8.003   4.354  1.2047  0.8271 -2.0034
   67MOL    H7821330   0.933   0.076   4.222 -1.3312  0.0577  0.4132
   67MOL    H7921331   1.124   0.219   4.317 -1.6735  0.9168  1.3086
   67MOL    H8021332   1.224   0.154   4.522 -0.7169  0.7875  0.1406
   67MOL    H8121333   1.113   8.093   4.671 -0.0534  1.6710  1.5194
   67MOL    C8221334   0.747   7.960   4.618 -0.5983  0.3162  0.1401
   67MOL    C8321335   0.694   8.098   4.674 -0.1008  0.3882 -0.6618
   67MOL    C8421336   0.744   0.000   4.816  0.7414 -0.8861  1.2062
   67MOL    C8521337   0.684   8.037   4.914  0.0368  0.2645  0.1679
   67MOL    C8621338   0.728   8.041   5.051  0.3980  0.1667  0.7556
   67MOL    C8721339   0.855   8.105   5.080  0.2215 -0.0274  0.8989
   67MOL    C8821340   0.917   0.060   4.975  0.1675  0.6584  0.8227
   67MOL    C8921341   0.855   0.079   4.846 -0.0890  0.3983 -0.0309
   67MOL    H9021342   0.697   7.886   4.682  0.6529 -0.5550  0.1188
   67MOL    H9121343   0.707   7.943   4.519  3.1757 -2.6905 -0.9821
   67MOL    H9221344   0.586   8.089   4.672 -0.0925  0.1570 -0.2054
   67MOL    H9321345   0.600   7.975   4.886  0.1696 -0.6828  1.8275
   67MOL    H9421346   0.673   7.988   5.127  0.2468  0.1838  0.6596
   67MOL    H9521347   0.893   8.091   5.180 -0.8474 -2.5543  0.9583
   67MOL    H9621348   1.009   0.112   4.995  1.0607 -1.3839  2.1224
   67MOL    H9721349   0.912   0.136   4.775  0.8419  0.7706  1.0146
   67MOL    C9821350   0.712   0.108   4.575  0.9119  0.1653  0.4263
   67MOL    C9921351   0.617   0.224   4.616  0.5885 -0.7511  0.2577
   67MOL   C10021352   0.680   0.357   4.574  0.4165  0.4698  0.0384
   67MOL   C10121353   0.667   0.472   4.649  0.6229  0.6872  0.3222
   67MOL   C10221354   0.741   0.584   4.622 -0.5072 -0.3644  0.0145
   67MOL   C10321355   0.813   0.596   4.499  0.2467  0.3349  0.6626
   67MOL   C10421356   0.821   0.492   4.413  0.1983  0.1949 -0.3766
   67MOL   C10521357   0.756   0.372   4.451 -0.2031  0.6603 -0.8361
   67MOL   H10621358   0.695   0.075   4.472 -1.6323 -0.1368  0.9087
   67MOL   H10721359   0.817   0.137   4.563  0.6006  1.0602 -0.2428
   67MOL   H10821360   0.597   0.225   4.724  0.2653  2.2106  0.2175
   67MOL   H10921361   0.618   0.464   4.745 -0.7603  1.0773 -0.3396
   67MOL   H11021362   0.740   0.666   4.692  1.2822 -0.2792 -0.0285
   67MOL   H11121363   0.864   0.689   4.476 -0.2255  0.9599  2.1077
   67MOL   H11221364   0.871   0.500   4.318 -0.6966  1.0564 -0.7732
   67MOL   H11321365   0.754   0.300   4.371 -4.3415  0.7541 -0.9137
   67MOL   C11421366   0.481   0.206   4.546  0.3543 -0.7385 -0.0970
   67MOL   C11521367   0.375   0.314   4.579 -0.5050  0.1601 -0.5685
   67MOL   C11621368   0.261   0.330   4.472  0.2501  0.4896 -0.2617
   67MOL   C11721369   0.173   0.220   4.444  1.3819 -0.0965  0.1064
   67MOL   C11821370   0.080   0.223   4.337  0.2565 -0.7463 -0.0211
   67MOL   C11921371   0.073   0.345   4.264 -0.2403 -0.4860  0.8733
   67MOL   C12021372   0.160   0.454   4.291  0.2349  0.1869  0.1743
   67MOL   C12121373   0.252   0.449   4.394 -0.8784 -0.3983 -0.1964
   67MOL   H12221374   0.434   0.111   4.571 -0.6060 -0.9006 -2.4271
   67MOL   H12321375   0.494   0.206   4.438  0.7654  3.6710 -0.1694
   67MOL   H12421376   0.417   0.414   4.586  0.2911 -0.2270  0.4841
   67MOL   H12521377   0.169   0.128   4.501 -0.3314 -0.2321 -0.1914
   67MOL   H12621378   0.017   0.137   4.318 -2.0680  0.7620  0.5995
   67MOL   H12721379   0.004   0.344   4.180  1.7476 -0.1853 -0.8044
   67MOL   H12821380   0.148   0.542   4.230  0.6189 -0.2193 -0.4935
   67MOL   H12921381   0.306   0.541   4.415  1.8590 -1.5284 -2.0124
   67MOL   C13021382   0.310   0.285   4.714 -0.4747 -0.1398 -0.2222
   67MOL   C13121383   0.207   0.392   4.750 -0.4229 -0.3876 -0.3162
   67MOL   C13221384   0.114   0.336   4.853  0.1265  0.9349  0.1470
   67MOL   C13321385   0.147   0.286   4.982 -0.2376  0.4239 -0.4851
   67MOL   C13421386   0.046   0.243   5.072  0.2983  0.1446  0.3405
   67MOL   C13521387   8.028   0.266   5.042 -0.1987  0.5836 -0.0218
   67MOL   C13621388   7.996   0.315   4.920 -0.3049  0.4170 -0.2655
   67MOL   C13721389   8.095   0.346   4.828 -0.8090  0.3377 -0.4725
   67MOL   H13821390   0.393   0.275   4.785 -0.5545  1.7271  0.1424
   67MOL   H13921391   0.260   0.188   4.715 -0.9494  0.0932 -1.6557
   67MOL   H14021392   0.150   0.430   4.665  1.1635  0.3399 -1.0771
   67MOL   H14121393   0.250   0.264   5.007 -0.7210 -0.3003  0.9175
   67MOL   H14221394   0.073   0.198   5.167  1.0128  1.3638  0.7172
   67MOL   H14321395   7.954   0.224   5.109 -0.0428  1.4288  0.6861
   67MOL   H14421396   7.892   0.331   4.893 -1.6227  1.1187  4.6101
   67MOL   H14521397   8.084   0.406   4.739 -2.1946  1.3827  0.3998
   67MOL   C14621398   0.286   0.520   4.807  0.3687  0.0966 -0.3682
   67MOL   C14721399   0.212   0.663   4.805 -0.8750  0.7480 -0.4087
   67MOL   C14821400   0.074   0.658   4.873  0.2098 -0.4288  0.6737
   67MOL   C14921401   8.077   0.695   4.805  0.2416  0.3773  0.1779
   67MOL   C15021402   7.948   0.682   4.865 -0.5218  1.0774  0.5798
   67MOL   C15121403   7.934   0.634   4.993  0.1364  0.9081 -0.3167
   67MOL   C15221404   8.047   0.601   5.070  0.3371 -0.4560 -0.2287
   67MOL   C15321405   0.061   0.617   5.004 -0.7640 -0.8555  0.2494
   67MOL   H15421406   0.385   0.528   4.763  0.2156 -1.3056 -1.0027
   67MOL   H15521407   0.306   0.502   4.913 -1.0586 -1.3524 -0.3196
   67MOL   H15621408   0.186   0.697   4.704 -0.7872 -1.3835 -1.1579
   67MOL   H15721409   8.087   0.717   4.700 -2.2441  1.2992  0.1020
   67MOL   H15821410   7.877   0.713   4.790 -1.2260  0.0797  0.8285
   67MOL   H15921411   7.837   0.618   5.039 -0.4348 -0.6801 -2.0045
   67MOL   H16021412   8.025   0.567   5.170 -1.2653  2.7278  0.5625
   67MOL   H16121413   0.143   0.591   5.069 -2.0299  1.4557  2.9018
   67MOL   C16221414   0.292   0.764   4.887  0.3958 -0.1442 -0.0375
   67MOL   C16321415   0.428   0.802   4.821 -0.6920  0.3155 -0.5640
   67MOL   C16421416   0.419   0.860   4.685  0.1450 -0.1907 -0.4711
   67MOL   C16521417   0.354   0.984   4.662  0.3484 -0.4838  0.4333
   67MOL   C16621418   0.322   1.031   4.530 -0.1732 -0.1228  0.1992
   67MOL   C16721419   0.369   0.962   4.422  0.1790 -0.3415  0.6849
   67MOL   C16821420   0.435   0.840   4.437  0.1740 -0.5946  0.1293
   67MOL   C16921421   0.457   0.795   4.570  0.4837  0.3325 -0.1526
   67MOL   H17021422   0.310   0.711   4.981 -1.6376 -1.7570 -0.5353
   67MOL   H17121423   0.239   0.859   4.890  1.4981  0.4285  2.8192
   67MOL   H17221424   0.479   0.706   4.819  1.0801  1.0779  2.9841
   67MOL   H17321425   0.332   1.057   4.739 -1.4698  1.0835 -1.4906
   67MOL   H17421426   0.284   1.131   4.516  2.6035  1.0270  0.4007
   67MOL   H17521427   0.340   1.005   4.327  0.7602 -1.6100 -0.0712
   67MOL   H17621428   0.483   0.782   4.359  0.6948  2.1240 -1.6585
   67MOL   H17721429   0.497   0.695   4.584 -0.1844  0.3905  2.5563
   67MOL   C17821430   0.525   0.885   4.914 -0.2524 -0.2037 -0.4593
   67MOL   C17921431   0.561   0.832   5.055 -0.2616  0.2638  0.1334
   67MOL   C18021432   0.589   0.683   5.053  0.8894 -0.3536  0.2685
   67MOL   C18121433   0.699   0.632   4.987  0.9686 -0.1399  0.1002
   67MOL   C18221434   0.730   0.494   4.998 -0.7432  0.3328 -0.1498
   67MOL   C18321435   0.644   0.404   5.057  0.4307 -0.1545  0.4908
   67MOL   C18421436   0.528   0.451   5.117 -0.2885 -0.2783 -0.1503
   67MOL   C18521437   0.496   0.591   5.115  0.2610 -0.4308 -0.1606
   67MOL   H18621438   0.500   0.991   4.916  0.6364  0.0595 -2.2367
   67MOL   H18721439   0.618   0.880   4.859  1.1595 -0.3778  1.8938
   67MOL   H18821440   0.475   0.842   5.121 -0.2518 -1.1338  0.3711
   67MOL   H18921441   0.754   0.707   4.932 -1.6113  0.1869 -2.1569
   67MOL   H19021442   0.813   0.454   4.942 -0.9301 -1.3473  0.7171
   67MOL   H19121443   0.664   0.299   5.046  0.1592 -0.0027 -1.4489
   67MOL   H19221444   0.457   0.377   5.153 -0.5215  0.4192  0.8668
   67MOL   H19321445   0.407   0.631   5.162  0.0926  0.9213 -1.5891
   67MOL   C19421446   0.673   0.919   5.115 -0.1435  0.1872  0.4561
   67MOL   C19521447   0.665   0.969   5.262  0.5079  0.4430 -0.0097
   67MOL   C19621448   0.644   0.856   5.364  1.0296  0.5322 -0.4529
   67MOL   C19721449   0.714   0.733   5.347 -0.2807 -0.1205 -0.2671
   67MOL   C19821450   0.692   0.631   5.439 -0.0014  0.6011  0.1799
   67MOL   C19921451   0.595   0.639   5.538 -0.2278 -0.2626  0.0543
   67MOL   C20021452   0.541   0.766   5.561  0.4280  0.0291 -0.1797
   67MOL   C20121453   0.553   0.868   5.466  0.5726 -0.3899  0.7064
   67MOL   H20221454   0.681   1.010   5.055  2.0543 -0.7863 -0.7662
   67MOL   H20321455   0.768   0.870   5.096 -0.0542  0.9446 -1.1962
   67MOL   H20421456   0.571   1.024   5.270  1.0420  1.1632  1.3753
   67MOL   H20521457   0.787   0.715   5.270 -0.9567 -0.9800 -0.7216
   67MOL   H20621458   0.753   0.542   5.430 -1.3748 -0.3527  0.2212
   67MOL   H20721459   0.583   0.555   5.605  0.9573  0.6070  1.3677
   67MOL   H20821460   0.471   0.778   5.643 -0.3816 -1.7295 -0.5969
   67MOL   H20921461   0.507   0.964   5.477  0.7043 -0.3449  0.8815
   67MOL   C21021462   0.785   1.073   5.297 -0.2724 -0.3630 -0.3964
   67MOL   C21121463   0.923   1.058   5.228 -0.3874 -0.5946  0.4821
   67MOL   C21221464   1.000   1.193   5.233  0.2027 -0.2937 -0.1538
   67MOL   C21321465   1.019   1.249   5.360  1.1614  0.0491 -0.0735
   67MOL   C21421466   1.086   1.372   5.373 -0.4891 -0.3254  0.7412
   67MOL   C21521467   1.140   1.433   5.254 -0.0513  0.1261 -0.4575
   67MOL   C21621468   1.129   1.371   5.129  0.8640 -0.2688  0.1747
   67MOL   C21721469   1.058   1.251   5.118  0.7186  0.2832 -0.1014
   67MOL   H21821470   0.790   1.069   5.406 -3.2062 -0.8601 -0.2222
   67MOL   H21921471   0.747   1.170   5.265 -0.5297  0.4022  2.1225
   67MOL   H22021472   0.907   1.058   5.120  2.9547  0.6584 -0.0955
   67MOL   H22121473   0.975   1.197   5.444  1.6742  0.1860  0.2830
   67MOL   H22221474   1.084   1.424   5.468  0.0382 -0.4162  0.8010
   67MOL   H22321475   1.189   1.525   5.282 -0.3152  0.3153 -0.6208
   67MOL   H22421476   1.179   1.419   5.047 -1.2730 -0.2614 -1.1619
   67MOL   H22521477   1.034   1.215   5.019  0.2010 -1.3146  0.5963
   67MOL   C22621478   1.015   0.947   5.280 -0.3967  0.4050  0.3197
   67MOL   C22721479   1.132   0.900   5.183  0.3844  1.1097  0.4776
   67MOL   C22821480   1.269   0.894   5.250 -0.3387 -0.9761 -0.5121
   67MOL   C22921481   1.285   0.840   5.376 -0.0247  0.1491  0.1258
   67MOL   C23021482   1.418   0.855   5.435  0.1681 -0.4718  0.3723
   67MOL   C23121483   1.526   0.908   5.364  0.1680 -0.3241  0.6532
   67MOL   C23221484   1.508   0.963   5.235  0.2315 -0.0556  0.1669
   67MOL   C23321485   1.380   0.961   5.182  0.2083 -1.1342 -0.2366
   67MOL   H23421486   0.954   0.857   5.292 -0.0278  0.2049  0.7128
   67MOL   H23521487   1.050   0.967   5.381 -2.8392  2.6345  0.7563
   67MOL   H23621488   1.148   0.984   5.116  3.4349  0.4182  0.2402
   67MOL   H23721489   1.201   0.793   5.424 -0.0918  0.6614  0.5091
   67MOL   H23821490   1.438   0.804   5.528  3.8008  1.5614  0.7970
   67MOL   H23921491   1.616   0.912   5.423 -0.5428  0.5215  1.7028
   67MOL   H24021492   1.580   1.020   5.178 -0.9630  0.3421 -0.9724
   67MOL   H24121493   1.362   0.999   5.083 -1.0011 -0.3815  0.2573
   67MOL   C24221494   1.092   0.769   5.092  0.4685  0.7516  0.1369
   67MOL   C24321495   1.176   0.761   4.963 -0.5659 -0.3595  0.0367
   67MOL   C24421496   1.172   0.619   4.910 -0.8518  0.0736  0.1294
   67MOL   C24521497   1.292   0.544   4.907 -0.5492  0.2471  0.3758
   67MOL   C24621498   1.291   0.411   4.857 -0.0169 -0.2983 -0.9809
   67MOL   C24721499   1.172   0.355   4.809 -0.0210  0.6718 -0.2076
   67MOL   C24821500   1.050   0.431   4.805 -0.0383  0.4809 -0.2738
   67MOL   C24921501   1.055   0.560   4.859 -0.5133  0.1461  0.1372
   67MOL   H25021502   0.988   0.766   5.060  0.3368  1.4983  0.4891
   67MOL   H25121503   1.107   0.680   5.152  2.0517 -0.8886 -2.5720
   67MOL   H25221504   1.282   0.769   4.986  0.1810 -2.6672 -2.4525
   67MOL   H25321505   1.384   0.576   4.955 -0.4031 -0.7434  0.7739
   67MOL   H25421506   1.382   0.354   4.870 -1.5649 -2.5823  0.1719
   67MOL   H25521507   1.174   0.256   4.766 -0.4672  0.9613 -0.9127
   67MOL   H25621508   0.963   0.391   4.756 -0.9625  2.2635 -0.1209
   67MOL   H25721509   0.965   0.620   4.862 -1.7390 -1.6756  0.9139
   67MOL   C25821510   1.163   0.865   4.859 -0.6389  0.1434  0.4069
   67MOL   C25921511   1.264   0.841   4.742  0.1865 -0.6921 -0.0733
   67MOL   C26021512   1.205   0.909   4.620  0.5198 -0.0250 -0.4979
   67MOL   C26121513   1.157   1.039   4.625  0.3973 -0.5591 -0.0417
   67MOL   C26221514   1.070   1.087   4.519  0.5101  0.7517 -0.0440
   67MOL   C26321515   1.048   1.020   4.402  0.0339 -0.1106  0.9724
   67MOL   C26421516   1.091   0.888   4.405  0.3276  0.9685  0.3748
   67MOL   C26521517   1.164   0.829   4.512 -0.5687 -0.2341 -0.1191
   67MOL   H26621518   1.178   0.968   4.892  0.8281  0.4326 -1.1132
   67MOL   H26721519   1.061   0.864   4.823 -0.9489  2.3465  1.1013
   67MOL   H26821520   1.281   0.735   4.721  0.5271 -0.6667  0.0634
   67MOL   H26921521   1.167   1.086   4.721  2.0044  1.4050 -1.1243
   67MOL   H27021522   1.017   1.180   4.533 -0.6285  0.2739 -1.0932
   67MOL   H27121523   0.975   1.053   4.330 -1.2587 -1.0757  1.8097
   67MOL   H27221524   1.071   0.819   4.324  0.8277 -1.4761  2.2375
   67MOL   H27321525   1.183   0.723   4.507  1.3763  0.0823  0.3051
   67MOL   C27421526   1.404   0.897   4.768 -0.2758  0.0981  0.3913
   67MOL   C27521527   1.515   0.865   4.662 -0.4820  0.8592  0.6245
   67MOL   C27621528   1.632   0.964   4.666  1.0121 -0.6557  0.1961
   67MOL   C27721529   1.705   0.995   4.782 -0.9676 -0.4628  0.1914
   67MOL   C27821530   1.799   1.103   4.769 -0.3005 -0.5419  0.3015
   67MOL   C27921531   1.819   1.180   4.650  0.2689  0.0720 -0.0033
   67MOL   C28021532   1.752   1.148   4.535 -0.7711  0.0721  0.1873
   67MOL   C28121533   1.654   1.042   4.543  0.4700  0.4306  0.7476
   67MOL   H28221534   1.441   0.872   4.868  1.4023 -2.5361 -0.8472
   67MOL   H28321535   1.395   1.006   4.767 -3.1990 -0.0283  3.7641
   67MOL   H28421536   1.476   0.865   4.560 -0.8075  0.2420  0.7483
   67MOL   H28521537   1.689   0.958   4.882 -3.6939 -0.0540 -0.0761
   67MOL   H28621538   1.854   1.138   4.856  1.5155  0.0421 -1.0375
   67MOL   H28721539   1.886   1.264   4.649 -1.8747  1.8507 -2.8681
   67MOL   H28821540   1.771   1.199   4.443  0.2844 -1.8461 -0.6823
   67MOL   H28921541   1.606   1.013   4.451 -0.7836  2.5232  0.7197
   67MOL   C29021542   1.570   0.723   4.683  0.1904  0.0556  0.0861
   67MOL   C29121543   1.667   0.673   4.575  0.2870  0.6453 -0.0816
   67MOL   C29221544   1.714   0.532   4.617  0.0531 -0.2404  0.5512
   67MOL   C29321545   1.624   0.425   4.619 -0.0923 -0.6087 -0.5428
   67MOL   C29421546   1.676   0.297   4.649  0.2026 -0.2025 -0.4862
   67MOL   C29521547   1.812   0.279   4.680 -0.4667 -0.0481  0.2583
   67MOL   C29621548   1.902   0.386   4.676  0.1981  0.1156 -0.6686
   67MOL   C29721549   1.849   0.511   4.642  0.4395 -0.2607 -0.0510
   67MOL   H29821550   1.486   0.655   4.698  1.7323 -1.8807  0.0900
   67MOL   H29921551   1.621   0.727   4.779  1.1109  0.0541 -0.3995
   67MOL   H30021552   1.750   0.743   4.581  0.7033  0.0113  1.8377
   67MOL   H30121553   1.521   0.448   4.593 -0.1715 -1.6373 -1.1356
   67MOL   H30221554   1.613   0.210   4.657 -0.3841  0.3246  0.7819
   67MOL   H30321555   1.849   0.179   4.700  1.1697  0.5653  0.3011
   67MOL   H30421556   2.010   0.379   4.678  0.1243 -0.9329  0.5363
   67MOL   H30521557   1.919   0.593   4.633 -0.8012  0.8411  0.3399
   67MOL   C30621558   1.608   0.668   4.428  0.1851 -0.6734 -0.3609
   67MOL   C30721559   1.697   0.611   4.314 -0.2753 -0.2052 -0.1317
   67MOL   C30821560   1.837   0.677   4.298  0.4409 -0.0584  0.2140
   67MOL   C30921561   1.957   0.609   4.312 -0.4606  0.1001 -0.4884
   67MOL   C31021562   2.079   0.668   4.275 -0.2460  1.4953 -0.0765
   67MOL   C31121563   2.080   0.808   4.244 -0.6843 -0.3954 -0.3928
   67MOL   C31221564   1.959   0.879   4.234  0.1701 -0.1438 -0.4919
   67MOL   C31321565   1.836   0.815   4.259  0.0919  0.2398  0.2173
   67MOL   H31421566   1.589   0.773   4.402 -0.5064 -0.9796 -1.1154
   67MOL   H31521567   1.514   0.613   4.423 -1.3865  1.8878 -0.5470
   67MOL   H31621568   1.648   0.599   4.217  1.9131 -0.1297 -1.2833
   67MOL   H31721569   1.956   0.509   4.354  1.0138  0.7011  1.0760
   67MOL   H31821570   2.171   0.614   4.293 -0.3078  0.6365 -2.2295
   67MOL   H31921571   2.175   0.858   4.245 -0.1225 -1.4059 -2.1483
   67MOL   H32021572   1.950   0.986   4.218 -2.1230  0.3247  3.3067
   67MOL   H32121573   1.736   0.856   4.245 -0.5095 -1.4128 -0.3754
   67MOL   H32221574   1.706   0.506   4.340  1.2332 -0.2967 -0.9607
   68MOL     C121575   3.129   1.073   6.081  0.9533  0.3970  0.0811
   68MOL     C221576   3.108   1.028   5.935 -0.4188 -0.2279 -0.2493
   68MOL     C321577   3.122   0.881   5.914 -0.2030  0.1932 -0.1960
   68MOL     C421578   3.173   0.829   5.795  0.3045  0.0664  0.6177
   68MOL     C521579   3.159   0.684   5.767 -0.2171 -0.4866  0.0725
   68MOL     C621580   3.111   0.593   5.871  0.1529  0.0519  0.2298
   68MOL     C721581   3.084   0.655   5.999 -0.1235  0.4417  0.2832
   68MOL     C821582   3.083   0.796   6.016  0.3012  0.0812 -0.1634
   68MOL     H921583   3.136   1.182   6.079  0.7423  0.3903 -2.2348
   68MOL    H1021584   3.038   1.044   6.135 -0.6135 -0.0081 -2.7114
   68MOL    H1121585   3.189   1.080   5.885  0.0337  2.5115  3.1410
   68MOL    H1221586   3.214   0.898   5.722  0.6045 -1.8867 -1.1025
   68MOL    H1321587   3.193   0.655   5.669  1.5783  1.5663  0.0482
   68MOL    H1421588   3.098   0.489   5.843  0.8672 -0.4393  1.6457
   68MOL    H1521589   3.047   0.598   6.083 -3.2216 -0.2723 -1.4921
   68MOL    H1621590   3.027   0.829   6.101 -0.2312 -3.2847  0.8823
   68MOL    H1721591   3.217   1.027   6.127 -0.5562 -0.6885  1.9910
   68MOL    C1821592   2.964   1.074   5.889  0.5862 -0.1714  0.5724
   68MOL    C1921593   2.941   1.223   5.863 -0.1683  0.4878  0.2237
   68MOL    C2021594   2.914   1.248   5.715  0.2659 -0.1788  0.3566
   68MOL    C2121595   2.791   1.222   5.660  0.1456 -0.5052  0.1965
   68MOL    C2221596   2.771   1.240   5.518 -0.1991  0.3653  0.0424
   68MOL    C2321597   2.877   1.269   5.433 -0.0108 -0.2746 -0.2423
   68MOL    C2421598   3.003   1.292   5.490  0.4030  0.0965 -0.0485
   68MOL    C2521599   3.019   1.283   5.628 -0.3144  0.7590  0.5306
   68MOL    H2621600   2.892   1.020   5.952 -1.1597 -0.0587 -1.2676
   68MOL    H2721601   2.938   1.029   5.793 -0.6004  0.2508  0.6907
   68MOL    H2821602   3.036   1.270   5.888  1.0292 -1.7190 -0.0053
   68MOL    H2921603   2.707   1.194   5.722 -0.5366  2.7482  0.8488
   68MOL    H3021604   2.673   1.221   5.477  0.8043 -2.3400 -1.3051
   68MOL    H3121605   2.849   1.288   5.330  1.1056  0.3997 -0.4368
   68MOL    H3221606   3.078   1.329   5.422 -0.0271  1.3114  0.1213
   68MOL    H3321607   3.120   1.298   5.664  0.3033 -2.2788  0.2240
   68MOL    C3421608   2.836   1.287   5.963  0.3576 -0.1186  0.5409
   68MOL    C3521609   2.846   1.438   5.986  0.2528 -0.3592 -1.0178
   68MOL    C3621610   2.797   1.519   5.859 -0.4030  0.0721  0.6089
   68MOL    C3721611   2.883   1.603   5.780  0.2999 -0.2568 -0.1191
   68MOL    C3821612   2.838   1.679   5.680  0.3116  0.1450 -0.0924
   68MOL    C3921613   2.701   1.680   5.643  0.2402  0.5700 -0.0352
   68MOL    C4021614   2.609   1.599   5.718  0.2735  0.8423  0.1311
   68MOL    C4121615   2.661   1.517   5.829  0.7194 -0.3219  0.0167
   68MOL    H4221616   2.847   1.245   6.063 -2.9425  0.5861  1.2687
   68MOL    H4321617   2.736   1.255   5.933  0.2754 -0.2890  1.0040
   68MOL    H4421618   2.950   1.465   6.005 -0.5497  1.3687  1.1006
   68MOL    H4521619   2.988   1.605   5.801  0.4138 -1.5387 -0.5336
   68MOL    H4621620   2.910   1.742   5.630 -1.1201  0.7002 -1.5136
   68MOL    H4721621   2.664   1.751   5.571 -0.9488 -0.2375 -0.2423
   68MOL    H4821622   2.504   1.591   5.690  0.6139  3.1319 -1.9670
   68MOL    H4921623   2.596   1.455   5.889 -0.0369  2.0963  1.7833
   68MOL    C5021624   2.774   1.491   6.107 -0.2691  0.8694 -0.6711
   68MOL    C5121625   2.831   1.458   6.247  0.0399 -0.6493  0.4336
   68MOL    C5221626   2.972   1.510   6.264  0.4778 -0.4689  0.7252
   68MOL    C5321627   3.081   1.421   6.281 -0.2049  0.8903  0.7187
   68MOL    C5421628   3.215   1.459   6.290  0.0138  0.5415  0.0490
   68MOL    C5521629   3.236   1.600   6.306 -0.2184 -0.6448  0.3353
   68MOL    C5621630   3.134   1.690   6.299  0.2276  0.1835  0.0260
   68MOL    C5721631   3.000   1.652   6.273 -0.0581  1.2029 -0.3433
   68MOL    H5821632   2.671   1.457   6.116  0.8812 -2.0957  2.6729
   68MOL    H5921633   2.755   1.597   6.094  2.1942  1.2216 -1.6166
   68MOL    H6021634   2.835   1.351   6.267  1.5048 -0.2316  2.4929
   68MOL    H6121635   3.063   1.315   6.285 -0.4047  0.8662 -0.6815
   68MOL    H6221636   3.298   1.390   6.292 -0.1604  0.2927 -1.3800
   68MOL    H6321637   3.323   1.659   6.329 -0.3274  0.3681 -1.7153
   68MOL    H6421638   3.164   1.792   6.320  0.7420  0.3053 -1.2868
   68MOL    H6521639   2.919   1.723   6.280 -1.7063 -0.7026  0.4044
   68MOL    C6621640   2.734   1.524   6.352 -0.4912 -0.3976 -0.3097
   68MOL    C6721641   2.594   1.448   6.377  0.2136  0.3876 -0.2492
   68MOL    C6821642   2.607   1.300   6.428  0.5270 -0.7117 -0.4246
   68MOL    C6921643   2.608   1.194   6.329  0.7019  0.5377  0.0122
   68MOL    C7021644   2.602   1.062   6.372 -0.4619 -0.2889 -0.5947
   68MOL    C7121645   2.593   1.034   6.513  0.1166 -0.6792  0.1384
   68MOL    C7221646   2.598   1.145   6.608 -0.6194 -0.0247  0.3099
   68MOL    C7321647   2.622   1.279   6.567 -0.5431  0.4799 -0.3094
   68MOL    H7421648   2.725   1.630   6.328  2.3332  0.1606  0.9949
   68MOL    H7521649   2.788   1.528   6.446 -2.2932  2.0209  0.6758
   68MOL    H7621650   2.551   1.434   6.277 -1.5820 -0.0970  0.5799
   68MOL    H7721651   2.596   1.223   6.226 -0.2376 -0.3402 -0.1400
   68MOL    H7821652   2.596   0.971   6.315  0.0464 -1.6379  1.4426
   68MOL    H7921653   2.582   0.935   6.556 -2.5332  0.2182  1.6451
   68MOL    H8021654   2.611   1.119   6.712  0.2293 -1.6382 -0.1769
   68MOL    H8121655   2.629   1.365   6.632  2.4416  0.7774 -0.9560
   68MOL    C8221656   2.493   1.528   6.458  0.1104 -0.1184  0.1652
   68MOL    C8321657   2.427   1.651   6.390  0.6409 -0.6399 -0.3998
   68MOL    C8421658   2.369   1.621   6.248  0.0761 -0.2037 -0.0749
   68MOL    C8521659   2.399   1.703   6.139  0.3793 -0.7624  0.0136
   68MOL    C8621660   2.344   1.683   6.010  0.2311  1.1471  0.5745
   68MOL    C8721661   2.244   1.587   5.993  0.1487 -0.3574  0.4493
   68MOL    C8821662   2.216   1.496   6.096  0.5681 -0.5053  0.1302
   68MOL    C8921663   2.278   1.513   6.226  0.1354 -0.1450 -0.6310
   68MOL    H9021664   2.543   1.558   6.550  1.1650  1.2849 -0.8551
   68MOL    H9121665   2.406   1.467   6.482  0.2262  0.5122  2.2970
   68MOL    H9221666   2.507   1.726   6.391 -0.2519  0.3312 -0.7213
   68MOL    H9321667   2.454   1.794   6.157 -0.1981 -0.9964  3.2605
   68MOL    H9421668   2.372   1.746   5.927  1.4949  2.0871  1.7032
   68MOL    H9521669   2.198   1.570   5.896  0.7908  2.0071 -0.2995
   68MOL    H9621670   2.148   1.414   6.076  1.1823 -0.6747 -1.3194
   68MOL    H9721671   2.258   1.438   6.301  0.9373  0.4716  0.2061
   68MOL    C9821672   2.314   1.707   6.484 -0.5507  0.7067  0.5373
   68MOL    C9921673   2.252   1.845   6.442  0.8501 -0.0691 -0.1763
   68MOL   C10021674   2.130   1.871   6.534  0.4499 -0.4798  0.5245
   68MOL   C10121675   1.997   1.845   6.487  0.0368 -0.1117 -0.6043
   68MOL   C10221676   1.888   1.863   6.574  0.5432  0.1163 -0.2759
   68MOL   C10321677   1.908   1.901   6.705  0.0028 -0.5865  0.2028
   68MOL   C10421678   2.037   1.930   6.747 -0.1339  0.5721  0.3379
   68MOL   C10521679   2.148   1.918   6.666  0.4197 -0.5252  0.6518
   68MOL   H10621680   2.345   1.711   6.588 -1.2947  3.4026  0.7001
   68MOL   H10721681   2.230   1.637   6.477 -0.3658  0.6008 -0.8621
   68MOL   H10821682   2.211   1.823   6.343  0.7073  2.6082 -0.7547
   68MOL   H10921683   1.984   1.816   6.384 -1.0476 -1.7321 -0.0239
   68MOL   H11021684   1.791   1.828   6.542  0.5795  0.1565 -0.4330
   68MOL   H11121685   1.823   1.905   6.771 -0.7876 -0.6702 -0.7943
   68MOL   H11221686   2.049   1.956   6.851  1.0121  0.6862  0.1896
   68MOL   H11321687   2.252   1.934   6.690  0.0532  2.0335  0.6383
   68MOL   C11421688   2.355   1.965   6.439 -0.0481 -0.8683 -0.3750
   68MOL   C11521689   2.298   2.109   6.416 -0.1317  0.8996 -1.5646
   68MOL   C11621690   2.346   2.196   6.529  0.1424  0.1355  0.4189
   68MOL   C11721691   2.476   2.250   6.524 -0.0243  0.2889 -0.5084
   68MOL   C11821692   2.521   2.332   6.632 -0.1606  0.1616  0.4497
   68MOL   C11921693   2.444   2.352   6.751  0.4354 -0.5589  0.8588
   68MOL   C12021694   2.317   2.293   6.760  0.0377  0.6974  0.4190
   68MOL   C12121695   2.269   2.217   6.651  0.6086 -0.1922 -0.2546
   68MOL   H12221696   2.431   1.949   6.363 -0.3221  0.3930 -0.9267
   68MOL   H12321697   2.408   1.974   6.534 -0.9232  1.8731 -0.1060
   68MOL   H12421698   2.191   2.110   6.435  0.3270 -0.0197  1.3643
   68MOL   H12521699   2.540   2.226   6.440 -0.3572  0.7635 -0.8968
   68MOL   H12621700   2.621   2.371   6.624  0.2559 -1.0749 -0.3804
   68MOL   H12721701   2.475   2.424   6.825 -0.1776  0.6060  0.0079
   68MOL   H12821702   2.271   2.292   6.857  0.1625  0.7998  0.4806
   68MOL   H12921703   2.174   2.167   6.664  1.9187 -2.6345  0.2022
   68MOL   C13021704   2.323   2.174   6.279 -0.1495  0.4802 -0.0065
   68MOL   C13121705   2.285   2.095   6.152 -0.1767 -0.8358 -0.5212
   68MOL   C13221706   2.139   2.058   6.143 -0.1799 -0.2419 -0.1878
   68MOL   C13321707   2.040   2.154   6.166  0.3923  0.7343 -0.2560
   68MOL   C13421708   1.910   2.113   6.175 -0.1257  0.6822  0.0350
   68MOL   C13521709   1.869   1.980   6.149 -0.1093 -0.2891  0.7650
   68MOL   C13621710   1.972   1.887   6.119 -0.9102 -0.7355 -0.2816
   68MOL   C13721711   2.108   1.926   6.118 -0.4240  0.3678  0.8170
   68MOL   H13821712   2.426   2.207   6.267  0.5474 -1.7119 -0.2830
   68MOL   H13921713   2.254   2.259   6.285 -1.1867 -0.4916  2.6204
   68MOL   H14021714   2.341   2.001   6.148 -0.0694 -0.9642  2.6431
   68MOL   H14121715   2.068   2.256   6.188 -0.5117  0.6929  1.1332
   68MOL   H14221716   1.831   2.182   6.201  0.6184  0.9713  1.5647
   68MOL   H14321717   1.766   1.947   6.150  0.1239 -1.0142  1.6324
   68MOL   H14421718   1.955   1.781   6.120 -0.7485 -0.7686 -0.8859
   68MOL   H14521719   2.183   1.854   6.088 -1.3611  0.1639 -1.1587
   68MOL   C14621720   2.318   2.170   6.022  0.1586  0.0762  0.1221
   68MOL   C14721721   2.471   2.196   5.997  0.2329  0.7750 -0.0829
   68MOL   C14821722   2.558   2.074   6.029  0.8966 -0.5678 -0.1049
   68MOL   C14921723   2.557   1.958   5.947 -0.8657 -0.6857  0.0785
   68MOL   C15021724   2.648   1.852   5.969 -0.6626  0.1307  0.1978
   68MOL   C15121725   2.744   1.869   6.068  0.1922  0.7333 -0.0063
   68MOL   C15221726   2.749   1.986   6.145 -0.4500  0.5384  1.3753
   68MOL   C15321727   2.655   2.092   6.130 -0.2624  0.0667 -0.0589
   68MOL   H15421728   2.265   2.265   6.020 -0.4673 -0.2488  0.9481
   68MOL   H15521729   2.286   2.116   5.933  2.3961  0.3389 -0.8759
   68MOL   H15621730   2.501   2.284   6.054  0.4218  1.5053 -1.2992
   68MOL   H15721731   2.489   1.957   5.863 -2.5578  0.0963  1.3863
   68MOL   H15821732   2.641   1.774   5.895  0.0245  0.5995 -0.3731
   68MOL   H15921733   2.817   1.791   6.084  0.7095  1.6814  2.4972
   68MOL   H16021734   2.823   2.001   6.222  0.2189 -0.1299  0.8765
   68MOL   H16121735   2.661   2.179   6.193  2.5818 -1.4943  1.9221
   68MOL   C16221736   2.499   2.237   5.846  0.1449 -0.9445  0.6123
   68MOL   C16321737   2.651   2.261   5.808 -1.3096 -0.1097 -0.3534
   68MOL   C16421738   2.662   2.265   5.653 -0.1463 -0.0000 -0.2158
   68MOL   C16521739   2.713   2.149   5.589  0.2677 -0.9445 -0.1361
   68MOL   C16621740   2.716   2.150   5.443 -0.1549  0.2650 -0.2014
   68MOL   C16721741   2.683   2.267   5.369 -0.7166  0.3033  0.5508
   68MOL   C16821742   2.637   2.379   5.444 -0.3540 -0.1999  0.3566
   68MOL   C16921743   2.617   2.375   5.582 -0.5900  0.0722 -0.1758
   68MOL   H17021744   2.445   2.331   5.833  2.0383  0.1759  0.7651
   68MOL   H17121745   2.452   2.179   5.766 -0.7732  2.0153 -1.0898
   68MOL   H17221746   2.703   2.172   5.843 -0.0638  1.3504  1.6364
   68MOL   H17321747   2.746   2.065   5.648  1.0586 -0.4296  0.1553
   68MOL   H17421748   2.758   2.062   5.397  2.9688  1.4697  0.1931
   68MOL   H17521749   2.694   2.270   5.262 -0.6747  0.8974  0.5676
   68MOL   H17621750   2.612   2.473   5.398  3.0241  0.1393 -0.9135
   68MOL   H17721751   2.578   2.464   5.629 -0.4322 -0.7390  1.5306
   68MOL   C17821752   2.716   2.372   5.889  0.7571 -0.1312  1.0630
   68MOL   C17921753   2.864   2.395   5.851  0.3610 -0.1968  0.2450
   68MOL   C18021754   2.916   2.498   5.943  0.3773  0.3784  0.7254
   68MOL   C18121755   2.975   2.471   6.064 -0.4121 -0.0775 -0.2084
   68MOL   C18221756   3.024   2.571   6.155  0.6641  0.1289 -0.4223
   68MOL   C18321757   3.014   2.706   6.120  0.7256 -0.3879  0.1844
   68MOL   C18421758   2.962   2.738   5.991  1.0356 -0.6128  0.5434
   68MOL   C18521759   2.907   2.632   5.912 -0.1454 -0.4852  0.2056
   68MOL   H18621760   2.712   2.345   5.995  0.3029 -2.6942  0.4081
   68MOL   H18721761   2.660   2.466   5.877  0.7245 -0.1188  1.2971
   68MOL   H18821762   2.869   2.431   5.748 -0.6086 -0.0288  0.2512
   68MOL   H18921763   2.974   2.371   6.105 -2.2185  0.0211  0.0226
   68MOL   H19021764   3.066   2.552   6.253 -0.4691  1.2529  0.2846
   68MOL   H19121765   3.067   2.774   6.185  2.2011 -1.2005 -0.1507
   68MOL   H19221766   2.946   2.840   5.959  0.2998 -1.0176 -0.4137
   68MOL   H19321767   2.875   2.654   5.811 -0.7125  0.1359  0.5176
   68MOL   C19421768   2.942   2.265   5.859 -0.4000 -0.5535 -0.0721
   68MOL   C19521769   3.087   2.260   5.811  0.2485 -0.6226  0.1046
   68MOL   C19621770   3.156   2.161   5.903  0.3478 -0.1240 -0.2822
   68MOL   C19721771   3.102   2.031   5.933  0.4372  0.0184  0.5000
   68MOL   C19821772   3.172   1.930   5.998 -0.0319 -0.0983 -0.3781
   68MOL   C19921773   3.300   1.953   6.047 -0.0650 -0.3676  0.0522
   68MOL   C20021774   3.358   2.079   6.011 -0.0636 -0.5456  0.2200
   68MOL   C20121775   3.291   2.184   5.947  0.8940  0.0621  1.0432
   68MOL   H20221776   2.892   2.190   5.798 -0.5476  0.5772 -1.3616
   68MOL   H20321777   2.936   2.232   5.962 -0.6875 -0.4272 -0.0502
   68MOL   H20421778   3.133   2.356   5.835 -0.8099 -0.2165  0.5444
   68MOL   H20521779   3.003   2.003   5.901  0.3602 -0.1791  0.9164
   68MOL   H20621780   3.128   1.833   6.013  1.0683 -0.7800 -1.4110
   68MOL   H20721781   3.350   1.880   6.109  1.1986  1.7509  1.6068
   68MOL   H20821782   3.457   2.105   6.043  0.0385  0.2000 -0.6869
   68MOL   H20921783   3.346   2.276   5.936  0.5232  0.2237  0.5518
   68MOL   C21021784   3.109   2.208   5.668 -0.7064 -0.5699 -0.2426
   68MOL   C21121785   3.046   2.303   5.567 -0.4447 -0.5808 -0.3007
   68MOL   C21221786   3.087   2.450   5.572 -0.6468 -0.3392  0.3669
   68MOL   C21321787   3.217   2.489   5.616 -0.0495  0.1704  0.2356
   68MOL   C21421788   3.247   2.625   5.628 -0.2508 -0.0697 -0.5609
   68MOL   C21521789   3.152   2.720   5.586 -0.3815 -0.4382 -0.0477
   68MOL   C21621790   3.022   2.685   5.552  0.2852  0.7114  0.1271
   68MOL   C21721791   2.989   2.546   5.546  0.3591  0.0020 -0.1971
   68MOL   H21821792   3.064   2.109   5.665  0.5084 -1.0588 -2.9329
   68MOL   H21921793   3.216   2.197   5.649 -0.5821 -1.2496  0.7956
   68MOL   H22021794   2.942   2.306   5.598 -1.0149  0.6432 -2.2455
   68MOL   H22121795   3.294   2.419   5.645  0.7433  0.8460 -0.2392
   68MOL   H22221796   3.341   2.663   5.667  0.0147 -0.5628 -0.7069
   68MOL   H22321797   3.179   2.825   5.587  1.6506 -0.9354 -0.1119
   68MOL   H22421798   2.948   2.759   5.524  1.7164  1.9711 -0.4335
   68MOL   H22521799   2.885   2.522   5.526  0.5157  0.9390 -2.2587
   68MOL   C22621800   3.050   2.242   5.426 -0.7447  0.0911 -0.3693
   68MOL   C22721801   3.174   2.285   5.332  0.2675  0.4771  0.5202
   68MOL   C22821802   3.305   2.218   5.375  0.5266  0.4298 -0.5385
   68MOL   C22921803   3.421   2.286   5.419  0.1935 -0.4201  0.2907
   68MOL   C23021804   3.536   2.212   5.464 -0.2047 -0.3309  0.7909
   68MOL   C23121805   3.540   2.074   5.449 -0.3599 -0.0570 -0.1133
   68MOL   C23221806   3.428   2.005   5.410  0.4615  0.6308  0.5172
   68MOL   C23321807   3.310   2.073   5.376 -0.2873  0.2353  0.1472
   68MOL   H23421808   2.956   2.276   5.382 -1.3522 -1.9084 -0.6758
   68MOL   H23521809   3.034   2.134   5.427  0.1801 -0.0426  1.4865
   68MOL   H23621810   3.203   2.390   5.333 -1.1854  0.8907  0.1284
   68MOL   H23721811   3.416   2.394   5.415  0.2494 -0.4783 -1.6407
   68MOL   H23821812   3.623   2.271   5.488  1.1647 -0.1944 -3.8519
   68MOL   H23921813   3.622   2.009   5.472 -0.6978  0.2708  2.1754
   68MOL   H24021814   3.429   1.897   5.404  0.2295  0.6152  0.7245
   68MOL   H24121815   3.224   2.009   5.363 -0.4930  0.1915  1.5961
   68MOL   C24221816   3.142   2.251   5.182  0.1046  0.3258  0.6107
   68MOL   C24321817   3.018   2.315   5.124  0.6247  0.1297 -0.3494
   68MOL   C24421818   3.025   2.471   5.131 -0.1145 -0.5003  0.1060
   68MOL   C24521819   2.920   2.536   5.194  0.6852  0.6031  0.8489
   68MOL   C24621820   2.933   2.675   5.211 -0.1212  0.0954  0.8025
   68MOL   C24721821   3.052   2.747   5.178 -0.0038  0.4811 -0.1152
   68MOL   C24821822   3.155   2.676   5.111 -0.4188 -0.1105 -0.2025
   68MOL   C24921823   3.135   2.540   5.088 -0.4597 -0.2394  0.1072
   68MOL   H25021824   3.120   2.144   5.175 -0.4400  0.5325 -1.1329
   68MOL   H25121825   3.235   2.265   5.127 -0.5845 -0.3759 -0.7876
   68MOL   H25221826   2.932   2.272   5.176  1.2238 -1.7666 -0.8598
   68MOL   H25321827   2.827   2.486   5.215  0.0952  1.6511  0.7382
   68MOL   H25421828   2.842   2.725   5.240  0.9695  2.4716  0.2921
   68MOL   H25521829   3.060   2.853   5.194 -1.7512  0.5484  0.4232
   68MOL   H25621830   3.246   2.730   5.089 -0.4337  0.2022  0.4908
   68MOL   H25721831   3.217   2.481   5.049  1.6661  1.6438  1.5783
   68MOL   C25821832   3.003   2.277   4.977 -0.0646 -0.1530  0.0570
   68MOL   C25921833   2.904   2.164   4.948  0.4142  0.2759  0.1527
   68MOL   C26021834   2.756   2.204   4.971 -0.1999  0.5031 -0.0450
   68MOL   C26121835   2.718   2.339   4.983  0.1936  0.1558  0.0237
   68MOL   C26221836   2.586   2.378   4.986  0.7547 -0.2994  0.1788
   68MOL   C26321837   2.486   2.275   4.993  0.2624 -0.2241 -0.4486
   68MOL   C26421838   2.520   2.139   5.000 -0.4262 -0.3585  0.3652
   68MOL   C26521839   2.659   2.104   4.992  0.5725 -0.0166  0.5692
   68MOL   H26621840   3.101   2.251   4.937 -1.0843 -0.9565 -1.9724
   68MOL   H26721841   2.966   2.364   4.922  0.3216  0.1697  0.3052
   68MOL   H26821842   2.917   2.091   5.028 -2.0026 -0.5283 -0.1154
   68MOL   H26921843   2.784   2.424   4.974  0.4640  0.3788  3.2586
   68MOL   H27021844   2.564   2.483   4.983  3.8084  0.4548  2.1281
   68MOL   H27121845   2.384   2.307   5.005 -0.8320 -3.3020 -1.3006
   68MOL   H27221846   2.448   2.059   5.004 -1.3742  0.5649  3.1422
   68MOL   H27321847   2.676   1.998   4.999  0.2166  0.0506  3.2356
   68MOL   C27421848   2.922   2.103   4.809 -0.1404 -0.2986  0.0198
   68MOL   C27521849   3.042   2.008   4.777 -0.1925 -0.2086 -0.0970
   68MOL   C27621850   3.060   1.883   4.870 -0.2199 -1.2409  0.3845
   68MOL   C27721851   2.963   1.778   4.856  0.4470 -0.3058 -0.2004
   68MOL   C27821852   2.965   1.668   4.941 -0.3577  0.3406  0.4558
   68MOL   C27921853   3.071   1.651   5.031 -0.0157 -0.3695  0.5195
   68MOL   C28021854   3.172   1.749   5.035 -0.4325 -0.1766 -0.4859
   68MOL   C28121855   3.171   1.865   4.953 -1.1708  0.0599 -0.5062
   68MOL   H28221856   2.894   2.187   4.745 -2.3626 -2.3053 -1.7498
   68MOL   H28321857   2.838   2.033   4.805 -2.2845  1.9873  2.6202
   68MOL   H28421858   3.129   2.065   4.807 -0.3360 -0.5230  0.9440
   68MOL   H28521859   2.886   1.778   4.781  1.3697  0.7038 -1.1825
   68MOL   H28621860   2.880   1.602   4.932  0.3252 -0.5078  0.2029
   68MOL   H28721861   3.072   1.568   5.100 -1.8186 -1.6519 -0.9617
   68MOL   H28821862   3.251   1.731   5.106 -1.8914 -0.0789  1.2001
   68MOL   H28921863   3.245   1.944   4.953 -1.1722  0.0617 -0.5801
   68MOL   C29021864   3.043   1.979   4.627 -0.3056  0.1849  0.1271
   68MOL   C29121865   3.158   1.886   4.593  0.1607 -0.0938 -0.4958
   68MOL   C29221866   3.125   1.816   4.465  0.4663 -0.3232  0.2454
   68MOL   C29321867   3.141   1.674   4.445 -0.5090 -0.1296 -0.9461
   68MOL   C29421868   3.125   1.614   4.323  0.7692  0.6377 -0.2420
   68MOL   C29521869   3.075   1.693   4.212  0.7198  0.4598 -0.4279
   68MOL   C29621870   3.049   1.831   4.230 -0.6934 -0.1506 -0.1378
   68MOL   C29721871   3.080   1.890   4.353  0.0600  0.4858 -0.4318
   68MOL   H29821872   3.027   2.069   4.567 -3.4354 -0.7668 -0.5371
   68MOL   H29921873   2.949   1.927   4.605 -0.0086  0.8905 -3.0370
   68MOL   H30021874   3.159   1.802   4.663 -1.1843  0.4786  0.2347
   68MOL   H30121875   3.170   1.614   4.530  0.6813  1.1230 -0.4530
   68MOL   H30221876   3.156   1.511   4.310 -0.4022  0.3102 -0.4984
   68MOL   H30321877   3.065   1.653   4.113  1.7749 -0.0543 -0.3278
   68MOL   H30421878   3.019   1.891   4.145  0.7200 -1.3554 -1.5323
   68MOL   H30521879   3.080   1.997   4.369 -2.2768  0.1901  1.8125
   68MOL   C30621880   3.297   1.951   4.571  0.2585 -0.2462 -1.1458
   68MOL   C30721881   3.415   1.856   4.570  0.0622  0.2119  0.0950
   68MOL   C30821882   3.538   1.922   4.630  0.5767  0.4076  0.5404
   68MOL   C30921883   3.596   2.025   4.561  0.7057  0.5823  0.0313
   68MOL   C31021884   3.703   2.101   4.615  0.2023 -0.5688 -0.3748
   68MOL   C31121885   3.745   2.070   4.745  0.1755  1.0603 -0.1261
   68MOL   C31221886   3.692   1.959   4.811 -0.4980  0.1578 -0.5709
   68MOL   C31321887   3.590   1.885   4.759 -0.0059 -0.1516  0.3803
   68MOL   H31421888   3.327   2.002   4.663 -1.8856 -0.7399 -0.1339
   68MOL   H31521889   3.304   2.034   4.500  1.6474  0.4720 -0.2027
   68MOL   H31621890   3.416   1.829   4.464  2.1077  0.1488  0.1272
   68MOL   H31721891   3.558   2.050   4.463  0.2247 -2.0201 -0.4705
   68MOL   H31821892   3.747   2.185   4.563 -1.2902  1.7304  1.9540
   68MOL   H31921893   3.831   2.117   4.790  0.7159 -0.7381  0.7568
   68MOL   H32021894   3.727   1.930   4.910 -1.5375  0.5770 -0.0802
   68MOL   H32121895   3.539   1.804   4.809  0.7201 -0.8821 -0.0488
   68MOL   H32221896   3.391   1.772   4.636 -1.6114  1.4642  1.1352
   69MOL     C121897   4.725   4.777   7.830 -0.5513 -0.1211 -0.3166
   69MOL     C221898   4.674   4.638   7.792 -0.4970 -0.6680  0.0748
   69MOL     C321899   4.533   4.623   7.845 -0.3875 -0.2155 -0.8812
   69MOL     C421900   4.447   4.732   7.857  0.4741  0.0912  0.1193
   69MOL     C521901   4.329   4.720   7.933 -0.1943  0.0819 -0.0856
   69MOL     C621902   4.297   4.600   7.999 -0.1043  0.1779  0.0515
   69MOL     C721903   4.375   4.484   7.975  0.1254 -0.7225  0.0367
   69MOL     C821904   4.489   4.498   7.892 -0.4743  0.3381 -0.9651
   69MOL     H921905   4.688   4.857   7.765 -1.0102  0.0477  0.1428
   69MOL    H1021906   4.705   4.800   7.935  1.6288 -2.0868  0.5754
   69MOL    H1121907   4.733   4.563   7.846  2.5447  1.3896 -0.3019
   69MOL    H1221908   4.478   4.827   7.816  0.0631  0.1062 -0.1488
   69MOL    H1321909   4.280   4.812   7.959  0.9560  0.3630  1.1559
   69MOL    H1421910   4.206   4.597   8.056  0.0966  0.9713  0.4087
   69MOL    H1521911   4.346   4.387   8.010 -1.8258 -1.2091 -2.7580
   69MOL    H1621912   4.552   4.411   7.883 -0.9552 -0.1410  0.2150
   69MOL    H1721913   4.833   4.789   7.822 -0.8515  1.1066 -3.4265
   69MOL    C1821914   4.683   4.608   7.641  0.5718  0.0145  0.2272
   69MOL    C1921915   4.770   4.484   7.605 -0.3882  0.2257  0.1507
   69MOL    C2021916   4.711   4.350   7.645  0.5432  0.0774  0.2411
   69MOL    C2121917   4.778   4.263   7.725 -0.8019 -0.3610  0.5434
   69MOL    C2221918   4.733   4.134   7.765  0.4513 -0.6399  0.2079
   69MOL    C2321919   4.600   4.104   7.739 -0.3889 -0.2518 -0.1987
   69MOL    C2421920   4.516   4.204   7.681  0.1179 -0.3055  0.0247
   69MOL    C2521921   4.571   4.323   7.626  0.4641  0.0882  0.7951
   69MOL    H2621922   4.727   4.692   7.587 -0.1636  0.9594  1.1018
   69MOL    H2721923   4.580   4.593   7.608  0.8445 -2.1550  0.2910
   69MOL    H2821924   4.855   4.509   7.669 -0.4970 -0.1146  0.4266
   69MOL    H2921925   4.881   4.286   7.748 -0.6323  0.0716 -0.6112
   69MOL    H3021926   4.791   4.064   7.823 -0.9967  0.0161  2.5320
   69MOL    H3121927   4.567   4.008   7.775 -0.7361 -0.2053 -0.3882
   69MOL    H3221928   4.411   4.179   7.676 -0.2598  1.4038 -1.0813
   69MOL    H3321929   4.508   4.384   7.564  0.9862 -0.2898 -0.1099
   69MOL    C3421930   4.824   4.479   7.455 -0.2781 -0.0576 -0.1415
   69MOL    C3521931   4.932   4.583   7.412 -0.0703 -0.2652  0.3306
   69MOL    C3621932   5.028   4.608   7.526 -0.0427 -0.4329  0.2641
   69MOL    C3721933   5.016   4.733   7.600  0.3890 -0.1261  0.2418
   69MOL    C3821934   5.098   4.765   7.709 -0.3781 -0.0348  0.0529
   69MOL    C3921935   5.191   4.666   7.744  0.6633 -0.0209 -0.0729
   69MOL    C4021936   5.207   4.550   7.669  0.2013  0.9904 -0.0452
   69MOL    C4121937   5.130   4.519   7.563 -0.8087  0.2423 -0.0569
   69MOL    H4221938   4.743   4.487   7.383 -0.4053  0.9713  0.1096
   69MOL    H4321939   4.859   4.376   7.459  1.0974  0.4184  0.3146
   69MOL    H4421940   4.883   4.675   7.383 -2.1410 -0.7622  2.1297
   69MOL    H4521941   4.944   4.796   7.551  0.3981 -0.3604 -0.0776
   69MOL    H4621942   5.095   4.862   7.757 -0.1101 -0.9178  1.9394
   69MOL    H4721943   5.254   4.678   7.831  1.9607 -1.0734 -0.8505
   69MOL    H4821944   5.283   4.483   7.707  0.3886  0.8067 -0.7453
   69MOL    H4921945   5.136   4.424   7.511 -0.3164 -0.3665  1.0954
   69MOL    C5021946   5.017   4.532   7.290  0.0022  0.1788  0.3125
   69MOL    C5121947   5.149   4.602   7.241  0.8010 -0.0864  0.2710
   69MOL    C5221948   5.250   4.497   7.187  0.7132  0.4908  0.6262
   69MOL    C5321949   5.379   4.486   7.246 -0.6847  0.3874  0.1597
   69MOL    C5421950   5.472   4.383   7.199  0.0572 -0.8985 -0.1688
   69MOL    C5521951   5.433   4.289   7.099 -0.3945 -0.3253 -0.3894
   69MOL    C5621952   5.300   4.296   7.053  0.1739  0.2055  0.2721
   69MOL    C5721953   5.215   4.401   7.085 -0.0924  0.5515  0.6186
   69MOL    H5821954   4.961   4.511   7.199 -1.7274  0.0860  1.3776
   69MOL    H5921955   5.050   4.432   7.316  0.5453  0.6011  1.3173
   69MOL    H6021956   5.195   4.647   7.329 -0.1215 -0.8184  1.1344
   69MOL    H6121957   5.402   4.552   7.329 -1.9526  0.9651  0.0637
   69MOL    H6221958   5.573   4.383   7.239  0.1431 -1.5383 -0.3731
   69MOL    H6321959   5.503   4.214   7.068 -1.7563 -0.9952 -1.8995
   69MOL    H6421960   5.264   4.214   6.992 -0.4990 -0.5927  1.7375
   69MOL    H6521961   5.114   4.408   7.045  0.2128 -1.8618 -0.6967
   69MOL    C6621962   5.115   4.703   7.128 -0.1072  0.1352  0.1857
   69MOL    C6721963   5.239   4.775   7.075  0.3398 -0.1481 -0.2156
   69MOL    C6821964   5.204   4.865   6.954 -0.0657 -0.0615  0.3360
   69MOL    C6921965   5.313   4.891   6.867  0.7843  0.2689  0.0652
   69MOL    C7021966   5.288   4.960   6.749  0.8640  0.0604 -0.5852
   69MOL    C7121967   5.160   5.009   6.721  0.3107  0.2781 -0.0074
   69MOL    C7221968   5.053   4.990   6.816  0.0433  0.1690 -0.1111
   69MOL    C7321969   5.071   4.907   6.929  0.9575  0.3098 -0.8641
   69MOL    H7421970   5.039   4.764   7.178  1.6350  0.9335  1.9212
   69MOL    H7521971   5.056   4.662   7.046  0.2938  1.8808 -0.9995
   69MOL    H7621972   5.298   4.697   7.027 -0.4320  0.0981 -1.5671
   69MOL    H7721973   5.411   4.852   6.892  1.1756  1.1215 -0.1326
   69MOL    H7821974   5.367   4.972   6.676  1.7585  0.6719  0.4774
   69MOL    H7921975   5.146   5.060   6.627 -0.4546  2.0368  1.0186
   69MOL    H8021976   4.954   5.032   6.808 -0.0354 -0.2406 -1.4346
   69MOL    H8121977   4.990   4.895   6.999  2.9091  2.3255  1.9159
   69MOL    C8221978   5.323   4.854   7.184 -0.4239  0.2157 -0.0275
   69MOL    C8321979   5.244   4.932   7.289 -0.2804 -0.4465 -0.0348
   69MOL    C8421980   5.343   4.980   7.395  0.1936 -0.5482 -0.4519
   69MOL    C8521981   5.332   4.948   7.533 -0.3183  0.2920  0.6906
   69MOL    C8621982   5.432   4.981   7.625 -0.3453  0.0813  0.1136
   69MOL    C8721983   5.546   5.046   7.582  0.9706  0.3238 -0.3910
   69MOL    C8821984   5.561   5.088   7.450 -0.3946  0.6456  0.2272
   69MOL    C8921985   5.460   5.053   7.356  0.4086 -0.3366  0.2033
   69MOL    H9021986   5.395   4.915   7.128 -0.1195 -0.4368 -0.3493
   69MOL    H9121987   5.388   4.787   7.240 -1.4621 -1.3459 -0.6652
   69MOL    H9221988   5.181   4.860   7.341 -0.0818  0.4373  1.4823
   69MOL    H9321989   5.249   4.886   7.564  1.5085 -3.0008 -0.7421
   69MOL    H9421990   5.427   4.954   7.730 -1.4061 -0.6235 -0.1117
   69MOL    H9521991   5.621   5.065   7.657  0.0206 -2.0535  1.2300
   69MOL    H9621992   5.638   5.150   7.408 -0.1281  1.5383  2.0033
   69MOL    H9721993   5.476   5.077   7.252  1.4388  2.4831  0.9775
   69MOL    C9821994   5.170   5.062   7.243  0.0631  0.6854  0.2282
   69MOL    C9921995   5.077   5.119   7.343  1.2660  0.2112  0.8645
   69MOL   C10021996   5.066   5.271   7.319  0.1039 -0.4298 -0.1132
   69MOL   C10121997   5.120   5.357   7.414 -0.6556 -0.1849 -1.2174
   69MOL   C10221998   5.093   5.496   7.408 -0.1589 -0.5512 -0.8642
   69MOL   C10321999   5.036   5.550   7.293 -0.1364 -0.7203  0.4802
   69MOL   C10422000   4.980   5.467   7.197 -0.3382 -0.3468 -0.5277
   69MOL   C10522001   4.999   5.330   7.212  0.3159 -0.4441  0.7351
   69MOL   H10622002   5.112   5.041   7.153  1.5577  1.0319 -0.8310
   69MOL   H10722003   5.236   5.135   7.196  0.8979 -0.8286 -1.0223
   69MOL   H10822004   5.114   5.113   7.445 -1.1025  1.6232  1.8394
   69MOL   H10922005   5.169   5.325   7.505  0.1911  2.0053 -0.8796
   69MOL   H11022006   5.125   5.558   7.490 -0.0821 -3.8086  1.6736
   69MOL   H11122007   5.024   5.657   7.281  0.0145 -0.7028  0.4806
   69MOL   H11222008   4.926   5.515   7.117  0.3077  0.5941 -0.4133
   69MOL   H11322009   4.953   5.265   7.138 -1.0696 -0.3448  1.4820
   69MOL   C11422010   4.938   5.045   7.338 -0.0446 -0.0318 -0.6311
   69MOL   C11522011   4.835   5.116   7.432 -0.6928 -0.4641  0.1122
   69MOL   C11622012   4.696   5.061   7.405  0.3612 -0.4033 -0.2103
   69MOL   C11722013   4.650   4.941   7.463  0.1100  0.8013 -0.0511
   69MOL   C11822014   4.528   4.883   7.430  0.8710 -1.0541  0.2404
   69MOL   C11922015   4.447   4.945   7.328 -1.0079  0.2378  0.0883
   69MOL   C12022016   4.485   5.070   7.269 -0.0456  0.0779 -0.1977
   69MOL   C12122017   4.608   5.120   7.311 -0.2465 -0.6659  0.1566
   69MOL   H12222018   4.932   4.936   7.349  0.2121  0.1207  1.0840
   69MOL   H12322019   4.902   5.065   7.237  1.7989  0.8127 -1.1286
   69MOL   H12422020   4.833   5.222   7.408 -1.8869 -1.0073 -2.2999
   69MOL   H12522021   4.716   4.884   7.528 -0.0894  0.7718  0.1263
   69MOL   H12622022   4.491   4.787   7.462  0.4887 -0.8983  0.2690
   69MOL   H12722023   4.370   4.878   7.292  0.6973 -0.2924 -2.7933
   69MOL   H12822024   4.426   5.129   7.201  0.2420 -0.8725 -1.2988
   69MOL   H12922025   4.642   5.210   7.262 -0.8083 -0.7236 -0.3501
   69MOL   C13022026   4.867   5.123   7.585  0.0359  0.6382 -0.3445
   69MOL   C13122027   4.767   5.190   7.680  0.0316 -0.3947 -0.0994
   69MOL   C13222028   4.761   5.131   7.821 -0.1945 -0.5672 -0.7421
   69MOL   C13322029   4.641   5.093   7.883  0.4814 -0.7085 -0.8508
   69MOL   C13422030   4.644   5.039   8.013  0.1739 -0.6163  1.1693
   69MOL   C13522031   4.765   5.017   8.075 -0.2069 -0.1782  0.3587
   69MOL   C13622032   4.892   5.052   8.015  0.5812  0.2355 -0.4326
   69MOL   C13722033   4.887   5.112   7.892 -0.2563  0.6184  0.1038
   69MOL   H13822034   4.968   5.158   7.603 -0.0639  2.5273 -3.1227
   69MOL   H13922035   4.872   5.017   7.610  1.6707  0.7162 -0.3272
   69MOL   H14022036   4.667   5.160   7.648  0.3326 -0.7929 -0.6569
   69MOL   H14122037   4.544   5.105   7.835 -0.4711 -0.2959  1.1109
   69MOL   H14222038   4.548   5.009   8.052 -0.7153 -1.5720 -1.6493
   69MOL   H14322039   4.764   4.979   0.062  0.8600 -0.4726  0.2654
   69MOL   H14422040   4.986   5.031   8.064  1.2034 -0.0835 -1.7274
   69MOL   H14522041   4.980   5.147   7.848 -0.3079  1.9673  1.0557
   69MOL   C14622042   4.772   5.348   7.676  0.0228  0.3004  0.0068
   69MOL   C14722043   4.653   5.410   7.742  0.6334  0.4094 -0.5448
   69MOL   C14822044   4.694   5.507   7.853 -0.3281  0.8637 -0.1168
   69MOL   C14922045   4.727   5.642   7.819  0.0572  0.8339  0.0220
   69MOL   C15022046   4.749   5.730   7.917  0.3212  0.4127  0.2534
   69MOL   C15122047   4.741   5.687   8.045 -0.1028  0.3134 -0.0975
   69MOL   C15222048   4.721   5.552   8.086  0.5241  0.4085  0.3719
   69MOL   C15322049   4.686   5.465   7.982  0.5029  0.3664 -0.3745
   69MOL   H15422050   4.781   5.383   7.573 -1.7568 -0.7813 -0.5296
   69MOL   H15522051   4.869   5.382   7.713 -0.2851  1.1675  0.0472
   69MOL   H15622052   4.597   5.337   7.800 -1.0127  3.1872  1.4952
   69MOL   H15722053   4.733   5.663   7.714 -0.8861  1.8025  0.1584
   69MOL   H15822054   4.751   5.834   7.888 -0.6100  0.6383  0.9709
   69MOL   H15922055   4.754   5.763   0.006  1.4911 -0.4661  0.4241
   69MOL   H16022056   4.712   5.528   0.076 -0.3857  0.0084  0.2090
   69MOL   H16122057   4.644   5.368   8.001  3.2569 -0.5590  1.1970
   69MOL   C16222058   4.551   5.474   7.652  1.3171 -0.5364 -0.0539
   69MOL   C16322059   4.454   5.362   7.588  0.0092  0.7500  0.0206
   69MOL   C16422060   4.376   5.272   7.694  0.1924  0.2180  0.2655
   69MOL   C16522061   4.349   5.137   7.665 -0.2148  0.2396  0.1558
   69MOL   C16622062   4.282   5.052   7.755 -0.0621 -0.8805 -0.2243
   69MOL   C16722063   4.225   5.107   7.865  0.2887  0.6366  0.2316
   69MOL   C16822064   4.257   5.243   7.901  0.3316  0.2039  0.2678
   69MOL   C16922065   4.335   5.322   7.815  0.6772 -0.3324 -0.3219
   69MOL   H17022066   4.596   5.532   7.572  0.2913 -0.5205 -0.6263
   69MOL   H17122067   4.500   5.547   7.714  0.3498 -1.8426  0.7291
   69MOL   H17222068   4.519   5.304   7.523 -0.5008 -1.3484  1.2979
   69MOL   H17322069   4.387   5.096   7.573 -1.5437  1.2763 -0.8799
   69MOL   H17422070   4.273   4.946   7.734 -2.0397 -1.3961  2.8431
   69MOL   H17522071   4.156   5.051   7.926 -1.1961  0.6347 -1.3930
   69MOL   H17622072   4.215   5.291   7.988  0.4683  2.0608 -0.6665
   69MOL   H17722073   4.366   5.423   7.838  1.0582 -0.9405  1.9701
   69MOL   C17822074   4.354   5.427   7.491  0.4515 -0.1191 -0.2638
   69MOL   C17922075   4.223   5.502   7.545  0.1919  0.4737  0.4313
   69MOL   C18022076   4.235   5.629   7.623 -0.2620 -0.8305  0.2172
   69MOL   C18122077   4.320   5.735   7.575 -0.1457  0.2862 -0.7843
   69MOL   C18222078   4.335   5.853   7.652  0.2039  0.0720  0.5626
   69MOL   C18322079   4.250   5.874   7.766  0.4485  0.1417  0.2140
   69MOL   C18422080   4.156   5.777   7.802  0.0177  0.1239  0.0553
   69MOL   C18522081   4.163   5.653   7.744  0.0379  0.1263  1.2972
   69MOL   H18622082   4.313   5.353   7.422 -1.7208  0.6272  0.1646
   69MOL   H18722083   4.407   5.485   7.415 -1.4674  0.3362 -1.3099
   69MOL   H18822084   4.180   5.433   7.616  0.5631  0.6321  0.8118
   69MOL   H18922085   4.383   5.731   7.487  3.0615  0.6467  1.4094
   69MOL   H19022086   4.380   5.944   7.616 -0.1571 -0.7725 -2.1055
   69MOL   H19122087   4.240   5.976   7.798 -0.6790  0.5806 -1.4851
   69MOL   H19222088   4.083   5.785   7.881  0.1583 -2.1687  0.4346
   69MOL   H19322089   4.101   5.569   7.772  0.2621 -0.7844 -0.8832
   69MOL   C19422090   4.119   5.524   7.423  0.1350  0.4095 -0.0872
   69MOL   C19522091   3.987   5.434   7.442  0.1513 -0.1750  0.2384
   69MOL   C19622092   3.912   5.479   7.564  0.4208 -0.1983 -0.2044
   69MOL   C19722093   3.909   5.381   7.666  0.6698 -0.1829 -0.0098
   69MOL   C19822094   3.847   5.410   7.792 -0.2823 -0.7546  0.6726
   69MOL   C19922095   3.780   5.536   7.800  0.0289  0.2375 -0.5236
   69MOL   C20022096   3.772   5.627   7.688 -0.7145  0.2490  0.8828
   69MOL   C20122097   3.848   5.604   7.574  0.4127 -0.5320 -0.9406
   69MOL   H20222098   4.177   5.510   7.332  0.0548 -0.7995  0.0442
   69MOL   H20322099   4.089   5.629   7.421  0.0668  0.4300  1.6102
   69MOL   H20422100   4.025   5.332   7.447  3.6121  1.0103 -0.3375
   69MOL   H20522101   3.955   5.284   7.661 -0.2180 -0.6090 -0.0846
   69MOL   H20622102   3.865   5.344   7.875 -0.5678  0.2257  1.5291
   69MOL   H20722103   3.719   5.543   7.889 -1.5931  0.7346 -1.6448
   69MOL   H20822104   3.717   5.720   7.689 -0.2103  0.5609  0.1623
   69MOL   H20922105   3.838   5.663   7.484 -4.4231  0.6951  0.2857
   69MOL   C21022106   3.913   5.446   7.304 -0.4859 -0.1789  0.2851
   69MOL   C21122107   3.765   5.406   7.285 -0.7086  0.4736  0.1591
   69MOL   C21222108   3.717   5.439   7.140 -0.3938  0.3443  0.1841
   69MOL   C21322109   3.789   5.400   7.025  0.3845 -0.1005  0.2046
   69MOL   C21422110   3.749   5.425   6.894  0.2759 -0.2524  0.3968
   69MOL   C21522111   3.630   5.496   6.871 -0.0563 -0.3521  0.2183
   69MOL   C21622112   3.567   5.557   6.981  0.0205 -0.1401 -0.1698
   69MOL   C21722113   3.607   5.525   7.115  0.6899  0.7351  0.9643
   69MOL   H21822114   3.965   5.400   7.220 -2.4101  1.9823 -2.1518
   69MOL   H21922115   3.925   5.551   7.278 -0.7297 -0.2497 -0.1186
   69MOL   H22022116   3.715   5.478   7.351  0.7184 -0.7766  2.6752
   69MOL   H22122117   3.881   5.346   7.042  0.7130  0.1945 -0.6230
   69MOL   H22222118   3.802   5.384   6.810  2.1841 -0.3408  1.6158
   69MOL   H22322119   3.591   5.508   6.771 -2.2830  0.5511  1.1501
   69MOL   H22422120   3.486   5.628   6.971  0.8172  0.7451 -0.4282
   69MOL   H22522121   3.553   5.571   7.197  0.3176  0.2313  1.0068
   69MOL   C22622122   3.724   5.261   7.342 -0.0014 -0.3139 -0.5559
   69MOL   C22722123   3.786   5.134   7.284 -0.1639  0.7543  0.2106
   69MOL   C22822124   3.839   5.037   7.391  0.3798  0.2708  0.1847
   69MOL   C22922125   3.978   5.034   7.411  0.5710 -0.4499 -0.2721
   69MOL   C23022126   4.034   4.942   7.504  0.1042  0.0414  0.6478
   69MOL   C23122127   3.949   4.853   7.574  0.6794  0.0896 -0.8222
   69MOL   C23222128   3.810   4.855   7.557 -0.0436  0.9500 -0.7544
   69MOL   C23322129   3.754   4.945   7.466 -0.1354  0.2843 -0.6354
   69MOL   H23422130   3.616   5.245   7.349  0.1586 -0.4449  2.4620
   69MOL   H23522131   3.763   5.262   7.444 -0.7151 -0.4817 -0.2741
   69MOL   H23622132   3.872   5.167   7.226 -0.8875  0.1543 -1.2338
   69MOL   H23722133   4.040   5.102   7.354 -0.3293  2.4936  2.1295
   69MOL   H23822134   4.140   4.946   7.527  1.0624  2.6044 -3.6686
   69MOL   H23922135   3.988   4.789   7.651  1.4992 -0.0932 -1.3843
   69MOL   H24022136   3.747   4.797   7.623  1.1916  3.4168  2.7332
   69MOL   H24122137   3.648   4.949   7.448 -0.5229  0.8131  1.6672
   69MOL   C24222138   3.698   5.071   7.180 -0.0974 -1.4524  0.1636
   69MOL   C24322139   3.737   4.932   7.124  0.2017 -0.0653  0.3683
   69MOL   C24422140   3.634   4.885   7.022  0.1025 -0.8752  0.3613
   69MOL   C24522141   3.567   4.763   7.045 -0.1811 -0.4922  0.5160
   69MOL   C24622142   3.461   4.731   6.949 -0.3585  0.3088 -0.2654
   69MOL   C24722143   3.420   4.812   6.843  0.1155 -0.2128 -0.6360
   69MOL   C24822144   3.502   4.918   6.807  0.0435  0.9272  0.9842
   69MOL   C24922145   3.602   4.961   6.902 -0.4646  0.4658  0.4101
   69MOL   H25022146   3.694   5.134   7.092  0.2600 -0.0538  1.1201
   69MOL   H25122147   3.599   5.073   7.226 -0.0778  2.1843  0.2176
   69MOL   H25222148   3.720   4.861   7.205 -2.6458  1.6813  1.3793
   69MOL   H25322149   3.588   4.700   7.130 -0.3525 -1.6299 -0.2656
   69MOL   H25422150   3.406   4.640   6.968  0.4697 -0.2806 -0.6633
   69MOL   H25522151   3.338   4.782   6.779 -0.2672 -0.7711  0.1148
   69MOL   H25622152   3.476   4.975   6.719 -2.2033 -1.3844  0.0963
   69MOL   H25722153   3.664   5.042   6.868  0.9867 -0.6656  0.3074
   69MOL   C25822154   3.882   4.924   7.064 -0.1238 -0.1925 -0.5327
   69MOL   C25922155   3.942   4.781   7.063 -0.1229  0.2434 -0.3234
   69MOL   C26022156   4.057   4.773   6.957  0.1681  0.3861 -0.7044
   69MOL   C26122157   4.191   4.783   6.991  0.0299 -0.0933 -0.4192
   69MOL   C26222158   4.287   4.767   6.891  0.0999 -0.0434  0.0890
   69MOL   C26322159   4.256   4.741   6.758  0.4922  0.7820  0.3362
   69MOL   C26422160   4.122   4.726   6.721  0.3344  0.4138  0.3403
   69MOL   C26522161   4.025   4.744   6.822 -0.3359 -1.0799 -0.3681
   69MOL   H26622162   3.951   4.996   7.109 -0.1675 -0.8132  0.5385
   69MOL   H26722163   3.876   4.955   6.960  2.2829  0.1505 -0.6082
   69MOL   H26822164   3.863   4.718   7.023  0.4148 -0.3123 -0.5250
   69MOL   H26922165   4.218   4.785   7.096 -1.1645 -2.1970 -0.0387
   69MOL   H27022166   4.393   4.774   6.912  0.2006 -1.6019  0.1701
   69MOL   H27122167   4.335   4.719   6.688  1.0443  1.6153  0.6956
   69MOL   H27222168   4.103   4.727   6.614  1.1867  0.8810  0.1834
   69MOL   H27322169   3.921   4.751   6.793  0.4272  1.0492 -2.7462
   69MOL   C27422170   3.971   4.730   7.209  0.4083 -0.2690 -0.4439
   69MOL   C27522171   3.977   4.575   7.233  0.3579  0.7363 -0.1326
   69MOL   C27622172   3.842   4.514   7.191  0.5645 -0.1257 -0.6130
   69MOL   C27722173   3.736   4.498   7.290  0.2496 -0.3875 -0.7292
   69MOL   C27822174   3.612   4.441   7.264  0.1505  1.0030  0.3054
   69MOL   C27922175   3.587   4.393   7.140  0.7076 -0.2864  0.2919
   69MOL   C28022176   3.688   4.394   7.036 -0.6290  0.3308  0.2809
   69MOL   C28122177   3.810   4.458   7.064 -0.6118  0.7225  0.2736
   69MOL   H28222178   3.906   4.776   7.283 -0.0550 -0.8371 -0.4968
   69MOL   H28322179   4.061   4.774   7.252 -0.5458 -1.6473  3.0991
   69MOL   H28422180   3.983   4.555   7.340 -0.6400 -0.7908 -0.3584
   69MOL   H28522181   3.754   4.532   7.391  0.3695 -0.1045 -0.8462
   69MOL   H28622182   3.533   4.445   7.337  0.0483 -3.9969  0.6861
   69MOL   H28722183   3.488   4.358   7.114  0.7373 -0.7999  0.8631
   69MOL   H28822184   3.660   4.358   6.938 -1.5503 -0.0490  0.6759
   69MOL   H28922185   3.886   4.455   6.987 -0.0476 -0.3213  0.8569
   69MOL   C29022186   4.102   4.498   7.184 -0.5955 -0.4708  0.3523
   69MOL   C29122187   4.236   4.531   7.261  1.0043  1.0483 -0.5801
   69MOL   C29222188   4.226   4.487   7.404 -0.3682 -0.4239 -0.0732
   69MOL   C29322189   4.226   4.346   7.443 -0.3410  0.0583  0.8528
   69MOL   C29422190   4.197   4.313   7.577  0.0520 -0.0423 -0.0060
   69MOL   C29522191   4.192   4.409   7.670  0.1132 -0.1478 -0.3185
   69MOL   C29622192   4.208   4.541   7.639  0.4118 -0.3010 -0.5599
   69MOL   C29722193   4.216   4.583   7.506  0.1642  0.5237 -0.5847
   69MOL   H29822194   4.120   4.511   7.077 -0.9412  0.5523  0.4140
   69MOL   H29922195   4.076   4.393   7.191  1.2308 -1.1755 -2.3234
   69MOL   H30022196   4.244   4.640   7.271 -0.6403  1.1490 -0.1915
   69MOL   H30122197   4.224   4.267   7.370  0.9707  0.5737  0.2386
   69MOL   H30222198   4.175   4.209   7.599 -1.9352 -0.1296 -2.2579
   69MOL   H30322199   4.192   4.376   7.772  3.2153  1.0444  0.1288
   69MOL   H30422200   4.214   4.607   7.724  1.1323  0.9408 -1.5503
   69MOL   H30522201   4.223   4.690   7.493 -0.4843  0.7279  0.6366
   69MOL   C30622202   4.361   4.486   7.188 -0.2068 -0.4131 -0.3559
   69MOL   C30722203   4.486   4.549   7.253  0.1074  0.1360  0.0288
   69MOL   C30822204   4.600   4.557   7.155 -0.8270 -0.6721  0.0651
   69MOL   C30922205   4.628   4.679   7.100  0.2326 -0.0751  0.0105
   69MOL   C31022206   4.726   4.685   7.000 -0.4077  0.0825 -0.1301
   69MOL   C31122207   4.804   4.567   6.966  0.6741 -0.4966 -0.2669
   69MOL   C31222208   4.781   4.443   7.031 -0.2232  0.4439  0.3933
   69MOL   C31322209   4.666   4.438   7.116  0.0233  0.3771  0.5423
   69MOL   H31422210   4.341   4.515   7.085  1.8452 -0.2137 -0.7302
   69MOL   H31522211   4.368   4.377   7.188 -2.4851 -0.5772  0.5368
   69MOL   H31622212   4.511   4.478   7.332 -0.2284  1.9829  1.8344
   69MOL   H31722213   4.565   4.765   7.117  0.9711  0.5193 -0.1901
   69MOL   H31822214   4.755   4.772   6.942  1.7610 -2.5820 -3.2653
   69MOL   H31922215   4.872   4.560   6.883 -1.0074 -0.0712 -1.7131
   69MOL   H32022216   4.823   4.353   6.989 -2.4696 -0.7888  0.7342
   69MOL   H32122217   4.641   4.345   7.164 -2.2413 -0.5689 -2.3315
   69MOL   H32222218   4.469   4.649   7.295 -1.0988  0.6106 -1.5621
   70MOL     C122219   3.234   0.042   7.587  0.0945  0.6663 -0.8618
   70MOL     C222220   3.196   8.012   7.552  0.6563 -0.1347 -0.1837
   70MOL     C322221   3.210   7.985   7.399 -0.7270 -0.3395 -0.3013
   70MOL     C422222   3.331   7.939   7.337  0.0598 -0.7541  0.1855
   70MOL     C522223   3.346   7.928   7.200 -0.2520 -0.0680 -0.2743
   70MOL     C622224   3.245   7.977   7.115  0.3014  0.0347 -0.0653
   70MOL     C722225   3.122   8.016   7.169 -0.9184 -0.2742 -0.0123
   70MOL     C822226   3.111   8.016   7.309 -0.4684  0.3915  1.0398
   70MOL     H922227   3.331   0.065   7.543  0.9687 -0.2699  0.5396
   70MOL    H1022228   3.164   0.107   7.535  0.3269  2.0422  0.5109
   70MOL    H1122229   3.088   8.001   7.566  0.4843  0.4460 -0.9953
   70MOL    H1222230   3.424   7.923   7.389 -0.8890  0.0194  2.1835
   70MOL    H1322231   3.440   7.893   7.160  0.2055  1.0285 -0.1778
   70MOL    H1422232   3.262   7.967   7.009  1.7223 -1.5306  0.2781
   70MOL    H1522233   3.036   8.058   7.119 -0.2607  1.8740  0.6508
   70MOL    H1622234   3.013   8.040   7.347 -1.9292 -1.7199 -1.2532
   70MOL    H1722235   3.232   0.062   7.694 -0.9070  0.2029 -0.7872
   70MOL    C1822236   3.265   7.896   7.638  0.0241  0.4035 -0.7220
   70MOL    C1922237   3.213   7.878   7.780  1.0691 -0.0087 -0.1162
   70MOL    C2022238   3.055   7.882   7.794 -0.0400 -0.0578  0.8008
   70MOL    C2122239   2.993   7.955   7.897  0.9334  0.3311  0.2969
   70MOL    C2222240   2.853   7.953   7.906  0.1584  0.2708  0.2309
   70MOL    C2322241   2.778   7.882   7.814  0.1117 -0.0981 -0.1194
   70MOL    C2422242   2.833   7.817   7.710  0.3622  0.6287  0.6089
   70MOL    C2522243   2.976   7.811   7.699 -0.9990 -0.2939 -0.1703
   70MOL    H2622244   3.372   7.901   7.623  0.2940 -0.8915  0.7156
   70MOL    H2722245   3.239   7.806   7.582 -1.4828  1.3459 -1.6021
   70MOL    H2822246   3.239   7.958   7.849 -2.1499  0.0449  1.1635
   70MOL    H2922247   3.047   8.006   7.975  1.1766  0.5531 -0.0165
   70MOL    H3022248   2.805   8.013   7.982 -1.8363  0.4227 -1.1016
   70MOL    H3122249   2.670   7.894   7.817  0.2899  1.2821  1.0486
   70MOL    H3222250   2.771   7.769   7.636  1.4732 -0.8510  0.6025
   70MOL    H3322251   3.012   7.764   7.609 -2.0478 -1.0499 -0.2035
   70MOL    C3422252   3.270   7.748   7.836 -0.3355  0.2013 -0.2634
   70MOL    C3522253   3.258   7.734   7.990 -0.0277  0.1049  0.5707
   70MOL    C3622254   3.216   7.596   8.032  0.2572 -0.3242  0.1434
   70MOL    C3722255   3.308   7.492   8.011  0.6386  0.1991  0.3858
   70MOL    C3822256   3.272   7.361   8.043  0.1184  0.3523 -0.0272
   70MOL    C3922257   3.145   7.334   8.091 -0.1008  0.3366 -1.0485
   70MOL    C4022258   3.058   7.442   0.006  0.1519 -0.0368  0.8435
   70MOL    C4122259   3.087   7.576   8.086 -0.4888 -0.6765 -0.3289
   70MOL    H4222260   3.375   7.734   7.810 -0.0219  1.1223  0.4616
   70MOL    H4322261   3.223   7.660   7.792 -3.3205  0.8859  1.4153
   70MOL    H4422262   3.182   7.803   8.026  0.3173  0.5795  0.3970
   70MOL    H4522263   3.406   7.513   7.972  0.8526  1.6529  1.6355
   70MOL    H4622264   3.344   7.282   8.026 -0.6188 -0.0131 -1.5075
   70MOL    H4722265   3.113   7.235   0.004  6.5428 -1.4842  0.8937
   70MOL    H4822266   2.962   7.419   0.050 -1.9979  1.0161 -3.0735
   70MOL    H4922267   3.022   7.660   8.106  1.4782  0.5530  1.1007
   70MOL    C5022268   3.391   7.770   8.065  0.2541  0.0792  0.3075
   70MOL    C5122269   3.437   7.923   8.066  0.4004  1.0973 -0.0680
   70MOL    C5222270   3.335   8.005   0.021 -0.0152 -0.1703 -0.5098
   70MOL    C5322271   3.292   0.006   8.066 -0.4366 -0.1594 -1.1668
   70MOL    C5422272   3.212   0.102   0.024 -0.6793  0.2718  0.2334
   70MOL    C5522273   3.204   0.091   0.162 -0.0854  0.5055  0.5189
   70MOL    C5622274   3.238   8.087   0.228 -0.1762  0.2508 -0.6506
   70MOL    C5722275   3.302   7.989   0.152 -0.1489 -0.1683 -0.6541
   70MOL    H5822276   3.470   7.707   8.024  0.7523  1.9464 -1.6963
   70MOL    H5922277   3.389   7.724   0.049  2.2749 -3.3303 -1.1577
   70MOL    H6022278   3.442   7.957   7.962  1.9827 -1.1379 -0.7675
   70MOL    H6122279   3.313   0.015   7.960  0.8975  0.9614 -0.8250
   70MOL    H6222280   3.175   0.197   8.103  0.3338  0.1080 -1.2992
   70MOL    H6322281   3.141   0.160   0.216 -1.1642 -0.4956  0.5722
   70MOL    H6422282   3.219   8.082   0.334 -0.7503  1.5195 -0.6958
   70MOL    H6522283   3.351   7.917   0.216  1.3033  1.2948 -0.1045
   70MOL    C6622284   3.580   7.953   0.010 -0.4200  0.4216 -0.2156
   70MOL    C6722285   3.698   7.862   8.074  0.4711 -0.3215  1.0015
   70MOL    C6822286   3.694   7.863   7.922 -0.1397  0.1250  0.0539
   70MOL    C6922287   3.693   7.984   7.847 -0.0739 -0.2575 -0.2183
   70MOL    C7022288   3.679   7.986   7.709  0.8759  0.4816  0.2550
   70MOL    C7122289   3.665   7.862   7.648  0.0259 -0.2324  0.0886
   70MOL    C7222290   3.661   7.742   7.712  0.1925 -0.4879  0.0252
   70MOL    C7322291   3.669   7.745   7.853  0.2962  0.0711  0.7399
   70MOL    H7422292   3.564   7.913   0.110  0.7028  0.1121 -0.1529
   70MOL    H7522293   3.614   8.056   0.016 -1.4286  0.6837  1.3449
   70MOL    H7622294   3.670   7.759   8.094  0.4798 -0.5555 -0.1955
   70MOL    H7722295   3.706   8.078   7.898 -0.9720  0.0188 -0.4856
   70MOL    H7822296   3.681   8.076   7.649  1.4336 -1.3167 -2.5460
   70MOL    H7922297   3.655   7.867   7.541  2.9948  1.7027 -0.1676
   70MOL    H8022298   3.659   7.652   7.652 -0.9628 -0.4986  0.0770
   70MOL    H8122299   3.661   7.653   7.910 -1.1478  0.1282  0.6503
   70MOL    C8222300   3.835   7.907   0.014  0.2716 -0.2536  0.1692
   70MOL    C8322301   3.956   7.817   8.095  0.8843 -0.3502  0.4654
   70MOL    C8422302   4.078   7.916   8.079  0.8326  0.7790  0.5246
   70MOL    C8522303   4.090   7.985   7.956  0.6075  0.1699 -0.4553
   70MOL    C8622304   4.187   8.090   7.944  0.8840 -0.4164 -0.2858
   70MOL    C8722305   4.265   0.004   8.053  0.1075 -0.4418  0.1256
   70MOL    C8822306   4.262   8.050   0.053  0.7566 -0.5330 -0.5228
   70MOL    C8922307   4.173   7.942   0.067  0.3663  0.1700  0.3781
   70MOL    H9022308   3.833   7.914   0.123 -1.9564 -2.0418  0.2829
   70MOL    H9122309   3.850   8.007   8.088  0.4787 -0.5485 -0.4807
   70MOL    H9222310   3.935   7.765   8.002  1.1061  1.5600 -0.6761
   70MOL    H9322311   4.016   7.972   7.879 -0.7084 -1.5064  1.0413
   70MOL    H9422312   4.184   0.049   7.865  0.1611  1.9508  1.8885
   70MOL    H9522313   4.326   0.094   8.052  0.7567 -0.8825 -0.1780
   70MOL    H9622314   4.332   8.074   0.131  2.2752 -1.0706 -1.6958
   70MOL    H9722315   4.170   7.877   0.153  1.5767 -0.6733 -0.1981
   70MOL    C9822316   3.969   7.700   0.090 -0.2222 -0.6380 -0.2558
   70MOL    C9922317   3.853   7.598   0.104  0.0677  0.4583  0.5945
   70MOL   C10022318   3.829   7.508   8.098  0.3659 -0.2461 -0.4127
   70MOL   C10122319   3.702   7.453   8.074 -0.2216  0.2650  0.6259
   70MOL   C10222320   3.678   7.370   7.958 -0.3116  0.1947  0.6078
   70MOL   C10322321   3.787   7.348   7.872 -0.4865 -0.2915  0.5185
   70MOL   C10422322   3.913   7.400   7.897  0.0096  0.2410 -0.0750
   70MOL   C10522323   3.934   7.478   8.012  0.2606 -0.6455  0.5152
   70MOL   H10622324   3.982   7.744   0.189  0.3564 -1.5272  0.0678
   70MOL   H10722325   4.065   7.649   0.078  0.7013  0.8374  0.6903
   70MOL   H10822326   3.763   7.659   0.117  0.0663  0.5053  0.3636
   70MOL   H10922327   3.619   7.474   0.024 -1.4558 -0.2230 -0.7878
   70MOL   H11022328   3.583   7.323   7.935 -0.5519  0.3209  1.3172
   70MOL   H11122329   3.768   7.277   7.794 -0.0497  0.2905 -0.1306
   70MOL   H11222330   3.999   7.377   7.836 -0.0117 -1.0942  0.3966
   70MOL   H11322331   4.034   7.520   8.021 -0.1711  0.5564 -0.1629
   70MOL   C11422332   3.866   7.522   0.235 -0.4063  0.0017  0.1696
   70MOL   C11522333   3.814   7.600   0.359 -0.1518 -0.3912 -0.2559
   70MOL   C11622334   3.666   7.630   0.356 -0.1373 -0.0197 -0.2723
   70MOL   C11722335   3.574   7.528   0.319  0.4527 -0.2461 -0.1246
   70MOL   C11822336   3.433   7.554   0.328 -0.6776  0.0692 -0.3093
   70MOL   C11922337   3.387   7.682   0.367 -0.3603 -1.1660  0.2422
   70MOL   C12022338   3.475   7.784   0.394 -0.2541 -0.8077 -0.7496
   70MOL   C12122339   3.615   7.758   0.392  0.2564  0.0703 -0.0667
   70MOL   H12222340   3.971   7.498   0.251 -0.7375 -1.4116  0.2742
   70MOL   H12322341   3.802   7.435   0.217 -1.3288  0.7112 -0.0459
   70MOL   H12422342   3.859   7.700   0.362 -0.0253 -0.4714  0.6961
   70MOL   H12522343   3.610   7.429   0.295  0.9090 -0.2049  0.3716
   70MOL   H12622344   3.354   7.482   0.311 -1.3279  0.9333 -0.9624
   70MOL   H12722345   3.282   7.708   0.358 -0.5693 -2.4906 -1.1631
   70MOL   H12822346   3.435   7.881   0.417  2.1258  0.3037 -1.1376
   70MOL   H12922347   3.684   7.840   0.406 -0.3225  0.7972 -1.4730
   70MOL   C13022348   3.841   7.523   0.491  0.1522 -0.4378  0.1482
   70MOL   C13122349   3.987   7.514   0.527 -0.3851 -0.1930 -0.6249
   70MOL   C13222350   4.041   7.652   0.571 -0.2220  0.7082  0.0064
   70MOL   C13322351   3.983   7.726   0.677 -0.4856 -0.3300 -0.8284
   70MOL   C13422352   4.034   7.851   0.718 -0.6290 -0.1275 -0.4036
   70MOL   C13522353   4.139   7.906   0.640  0.4182 -0.2290  0.4828
   70MOL   C13622354   4.202   7.839   0.535  0.5460  0.4855  0.5466
   70MOL   C13722355   4.147   7.713   0.501 -1.3210  0.6097  0.1023
   70MOL   H13822356   3.798   7.424   0.478  1.2362 -0.8351 -0.4316
   70MOL   H13922357   3.796   7.571   0.578  1.6447 -1.3782  1.4529
   70MOL   H14022358   4.041   7.478   0.439 -0.6127 -3.3287  0.4446
   70MOL   H14122359   3.905   7.678   0.733 -0.4249  0.4175 -0.0953
   70MOL   H14222360   3.998   7.898   0.808 -1.9210  0.2583 -1.1080
   70MOL   H14322361   4.175   8.000   0.678  1.1825 -0.1072 -0.5310
   70MOL   H14422362   4.281   7.882   0.474  0.6645 -1.7329 -0.9140
   70MOL   H14522363   4.189   7.666   0.413 -0.9026 -1.2756  1.2784
   70MOL   C14622364   4.016   7.413   0.639 -0.0861  0.1602 -0.0007
   70MOL   C14722365   3.992   7.259   0.612 -0.1082  0.0814 -0.5822
   70MOL   C14822366   4.061   7.215   0.484 -0.0667 -0.1791 -0.5150
   70MOL   C14922367   4.189   7.236   0.441 -0.0783 -0.3554 -0.5608
   70MOL   C15022368   4.235   7.182   0.325 -0.3184 -1.0624  0.4093
   70MOL   C15122369   4.160   7.083   0.257 -0.9228  0.3633 -0.7657
   70MOL   C15222370   4.031   7.058   0.300 -0.6337 -0.6912  0.9115
   70MOL   C15322371   3.980   7.122   0.414  0.8200 -0.8259  0.3572
   70MOL   H15422372   3.956   7.441   0.726 -1.8154 -1.9641 -0.4615
   70MOL   H15522373   4.121   7.431   0.664  0.6219  0.1806 -2.8917
   70MOL   H15622374   3.884   7.249   0.600 -0.1592 -0.3550  0.1481
   70MOL   H15722375   4.258   7.298   0.497  0.4764 -0.1043 -1.5048
   70MOL   H15822376   4.336   7.196   0.291 -0.7433 -0.5987 -0.6719
   70MOL   H15922377   4.205   7.033   0.173  1.1925  0.5786  0.2055
   70MOL   H16022378   3.974   6.985   0.244 -0.9234  0.1712  0.0692
   70MOL   H16122379   3.879   7.097   0.442 -0.0438  0.9287 -1.1047
   70MOL   C16222380   4.042   7.180   0.740  1.1191  0.3596 -0.3821
   70MOL   C16322381   3.923   7.121   0.816  1.1543 -0.2723 -0.7290
   70MOL   C16422382   3.833   7.022   0.735 -0.0372  0.2952 -0.0425
   70MOL   C16522383   3.691   7.039   0.733  0.2234 -0.5567 -0.2523
   70MOL   C16622384   3.609   6.944   0.673  0.1847 -0.6197  0.6624
   70MOL   C16722385   3.662   6.839   0.605  0.1579  0.1299  0.0802
   70MOL   C16822386   3.801   6.821   0.603  0.2678 -0.6693  0.0052
   70MOL   C16922387   3.885   6.914   0.666 -0.1327  0.6984  0.1716
   70MOL   H17022388   4.100   7.248   0.802  0.6053  0.5830 -0.1428
   70MOL   H17122389   4.105   7.096   0.709 -0.6370 -1.7141  1.4699
   70MOL   H17222390   3.858   7.201   0.854  0.0679 -1.1727 -0.6474
   70MOL   H17322391   3.640   7.122   0.780  1.1662 -0.1598  0.0824
   70MOL   H17422392   3.501   6.935   0.677 -0.1705  2.2647 -0.9785
   70MOL   H17522393   3.596   6.767   0.559 -1.4081  1.0238  0.8454
   70MOL   H17622394   3.840   6.739   0.544 -0.9723  0.6664 -2.7453
   70MOL   H17722395   3.990   6.914   0.642 -0.3195 -1.9838 -0.8313
   70MOL   C17822396   3.973   7.060   0.953  0.3194 -0.0384  0.0033
   70MOL   C17922397   3.892   6.961   1.034  0.1958 -0.3152 -0.6846
   70MOL   C18022398   3.979   6.881   1.122 -0.2526 -0.8511 -0.4968
   70MOL   C18122399   4.059   6.782   1.057 -0.0071  0.3702 -0.3942
   70MOL   C18222400   4.144   6.701   1.132 -0.1884  0.6061  0.2536
   70MOL   C18322401   4.142   6.717   1.268  0.0119  0.0067 -0.9643
   70MOL   C18422402   4.059   6.805   1.334 -0.6596 -0.4870 -0.0237
   70MOL   C18522403   3.976   6.888   1.263  0.2670  0.0393  0.4213
   70MOL   H18622404   4.003   7.144   1.016 -2.0017  0.8672 -0.0590
   70MOL   H18722405   4.065   7.010   0.924  0.3776  0.7521 -1.1974
   70MOL   H18822406   3.858   6.887   0.962  2.5889 -1.4319 -0.7218
   70MOL   H18922407   4.061   6.772   0.949  0.2992  0.6883 -0.4210
   70MOL   H19022408   4.211   6.636   1.077 -1.9178  0.6121 -1.9339
   70MOL   H19122409   4.221   6.665   1.320  0.7984  2.0925  0.0036
   70MOL   H19222410   4.057   6.807   1.442 -0.1206  0.6286 -0.0205
   70MOL   H19322411   3.914   6.959   1.316 -0.2608 -0.4456  0.4563
   70MOL   C19422412   3.761   7.009   1.097  0.7735  0.3103 -0.9952
   70MOL   C19522413   3.669   6.899   1.158  0.2106  0.3863  0.5196
   70MOL   C19622414   3.538   6.957   1.200  0.6213 -0.1026  0.2746
   70MOL   C19722415   3.437   6.980   1.102 -0.6274  0.8388 -0.8617
   70MOL   C19822416   3.321   7.038   1.144 -0.2557 -0.5630 -0.3336
   70MOL   C19922417   3.294   7.053   1.284 -0.0662  0.1328 -0.3401
   70MOL   C20022418   3.393   7.027   1.382 -0.8597  0.2849  0.6663
   70MOL   C20122419   3.515   6.980   1.338  0.7027  0.1560 -0.4266
   70MOL   H20222420   3.705   7.036   1.007 -1.2197 -2.5611 -0.7159
   70MOL   H20322421   3.765   7.084   1.175  2.0345 -2.0352  1.2922
   70MOL   H20422422   3.716   6.861   1.248  2.8708 -0.0171 -0.9858
   70MOL   H20522423   3.453   6.949   0.999  0.6709  1.4495 -0.8464
   70MOL   H20622424   3.239   7.047   1.074  0.9636  1.3563 -1.5689
   70MOL   H20722425   3.193   7.079   1.311 -1.2643 -4.8604  0.4497
   70MOL   H20822426   3.386   7.058   1.485 -1.9834  1.2299  0.3204
   70MOL   H20922427   3.588   6.956   1.413  0.3913  0.9965  0.1582
   70MOL   C21022428   3.659   6.772   1.066  0.0161  0.0551  0.2376
   70MOL   C21122429   3.549   6.670   1.105  0.0683  0.2203  0.0477
   70MOL   C21222430   3.523   6.578   0.982  0.3730 -0.0342 -0.1866
   70MOL   C21322431   3.581   6.450   0.979  0.4519  0.3829 -0.5144
   70MOL   C21422432   3.553   6.366   0.870 -0.3963  0.3921  0.0389
   70MOL   C21522433   3.464   6.407   0.768 -0.5079  0.3407  0.0821
   70MOL   C21622434   3.413   6.536   0.766 -0.0057  0.5157 -0.0776
   70MOL   C21722435   3.437   6.615   0.875 -0.1744 -0.5081 -0.0816
   70MOL   H21822436   3.753   6.727   1.036 -0.8196 -1.8272  0.3230
   70MOL   H21922437   3.621   6.811   0.972  0.9712 -0.0876 -0.2072
   70MOL   H22022438   3.454   6.721   1.119  0.2637  0.8555 -0.9034
   70MOL   H22122439   3.660   6.426   1.048  2.0857  1.9956 -1.7893
   70MOL   H22222440   3.597   6.268   0.858 -0.8747 -0.0160  1.5635
   70MOL   H22322441   3.456   6.351   0.677  4.3374  0.2968 -0.4311
   70MOL   H22422442   3.353   6.571   0.683 -0.4318  1.5090  0.6412
   70MOL   H22522443   3.405   6.718   0.869 -2.2454 -1.0169  1.5278
   70MOL   C22622444   3.573   6.598   1.243 -0.0774  0.3845 -0.0040
   70MOL   C22722445   3.440   6.533   1.298 -0.0474 -0.1457  0.1700
   70MOL   C22822446   3.472   6.451   1.426  0.3093  0.0399  0.8352
   70MOL   C22922447   3.509   6.317   1.409  0.8272  0.0161 -0.1543
   70MOL   C23022448   3.539   6.242   1.523  0.8624  0.1118  0.0731
   70MOL   C23122449   3.546   6.295   1.651 -0.4243  1.0860 -0.2201
   70MOL   C23222450   3.514   6.433   1.666 -0.1390 -0.5038 -0.8259
   70MOL   C23322451   3.479   6.512   1.554 -0.3759 -0.1447 -0.0056
   70MOL   H23422452   3.609   6.679   1.307 -0.2583  0.2700  0.2412
   70MOL   H23522453   3.656   6.527   1.239  0.1208  0.6185 -0.0707
   70MOL   H23622454   3.414   6.453   1.229 -0.0710  0.1071 -0.1204
   70MOL   H23722455   3.508   6.277   1.308  0.0833  0.1025 -0.1859
   70MOL   H23822456   3.579   6.146   1.495  1.1829  0.6100 -1.2298
   70MOL   H23922457   3.567   6.234   1.738 -0.0144  1.5751  0.0203
   70MOL   H24022458   3.507   6.476   1.765 -1.0569  0.8194 -1.4376
   70MOL   H24122459   3.470   6.620   1.558 -0.2065 -0.1232 -0.1966
   70MOL   C24222460   3.317   6.622   1.322  0.1140 -0.0293 -0.0222
   70MOL   C24322461   3.198   6.614   1.221 -1.0110  0.1446 -0.3343
   70MOL   C24422462   3.167   6.471   1.190 -0.3868  0.5306  0.2300
   70MOL   C24522463   3.073   6.398   1.268  0.9993  0.2611 -0.8967
   70MOL   C24622464   3.048   6.258   1.241  0.1927  0.0087 -0.1085
   70MOL   C24722465   3.093   6.209   1.117  0.2109  0.1309  0.3940
   70MOL   C24822466   3.178   6.284   1.028  0.6238 -0.3206 -0.1704
   70MOL   C24922467   3.206   6.415   1.067  0.0448  0.4631 -0.3503
   70MOL   H25022468   3.329   6.727   1.347 -1.3508 -0.1352  1.2280
   70MOL   H25122469   3.265   6.583   1.410  0.3441  1.4110  0.7760
   70MOL   H25222470   3.236   6.663   1.131 -1.9840  1.0811 -0.2448
   70MOL   H25322471   3.031   6.443   1.357  1.1882 -0.1059 -0.6228
   70MOL   H25422472   2.977   6.204   1.302  0.6856 -0.0023  0.4558
   70MOL   H25522473   3.078   6.108   1.083  0.6476 -0.6087  2.3418
   70MOL   H25622474   3.207   6.241   0.933  2.1995 -0.5272  0.3960
   70MOL   H25722475   3.274   6.473   1.007  1.6585 -0.8450  0.1907
   70MOL   C25822476   3.078   6.701   1.270 -0.1146  0.5121 -0.8213
   70MOL   C25922477   2.966   6.722   1.172  0.5324  0.2111  0.1105
   70MOL   C26022478   2.834   6.766   1.241  0.1351 -0.1414 -0.8127
   70MOL   C26122479   2.710   6.700   1.210  0.4992  0.9944  0.9521
   70MOL   C26222480   2.594   6.723   1.285  0.4170 -0.3785  0.1241
   70MOL   C26322481   2.597   6.812   1.390 -0.5724 -0.0385  0.7096
   70MOL   C26422482   2.721   6.875   1.427 -0.3784  0.1338  0.0336
   70MOL   C26522483   2.835   6.853   1.353  0.3333  0.3109 -0.5873
   70MOL   H26622484   3.111   6.802   1.293 -1.7341  0.7040  0.7820
   70MOL   H26722485   3.041   6.666   1.367  0.7295 -0.7677 -0.9634
   70MOL   H26822486   2.948   6.622   1.133 -1.4271  1.1593 -1.4796
   70MOL   H26922487   2.713   6.635   1.124  1.4478  1.3779  0.6857
   70MOL   H27022488   2.501   6.678   1.252  0.6880 -0.2899 -0.7972
   70MOL   H27122489   2.509   6.825   1.451 -0.4131  0.4178  0.8451
   70MOL   H27222490   2.731   6.934   1.517 -0.2571 -0.7617  0.6147
   70MOL   H27322491   2.923   6.909   1.379  0.0194  1.2601 -1.5059
   70MOL   C27422492   2.978   6.819   1.056 -0.0697 -0.1474 -0.1218
   70MOL   C27522493   2.866   6.836   0.948  0.0765  0.0633 -0.2867
   70MOL   C27622494   2.863   6.982   0.921 -1.1127 -0.4787 -0.2630
   70MOL   C27722495   2.752   7.049   0.971  0.3727 -0.0014  0.3036
   70MOL   C27822496   2.739   7.183   0.942  0.9302  0.2265  0.7427
   70MOL   C27922497   2.841   7.254   0.882  0.0608 -0.0013 -0.9850
   70MOL   C28022498   2.957   7.192   0.836  0.2012 -0.1252  0.6403
   70MOL   C28122499   2.968   7.050   0.852 -0.1966  0.1621  0.6152
   70MOL   H28222500   3.068   6.794   1.000 -0.0818 -0.6147  0.0649
   70MOL   H28322501   2.996   6.918   1.097  0.8599  0.9443 -3.0125
   70MOL   H28422502   2.768   6.795   0.973  0.9488 -1.8763  0.0044
   70MOL   H28522503   2.678   7.010   1.038 -0.5139  2.0092  0.5214
   70MOL   H28622504   2.651   7.239   0.970  0.8404  0.8971 -0.8505
   70MOL   H28722505   2.835   7.362   0.876 -0.1165 -0.0732 -2.1181
   70MOL   H28822506   3.041   7.237   0.786  0.2342  0.0034  0.8126
   70MOL   H28922507   3.048   6.995   0.805 -1.4589  0.1644 -1.5935
   70MOL   C29022508   2.897   6.757   0.816 -0.2231 -0.1914 -1.3142
   70MOL   C29122509   2.918   6.605   0.822 -0.6667  0.5638  0.5510
   70MOL   C29222510   2.804   6.528   0.885 -0.0181 -0.0807  0.0498
   70MOL   C29322511   2.822   6.429   0.980  0.1953  0.2899 -0.3165
   70MOL   C29422512   2.715   6.350   1.026 -0.6051  0.8497  0.4494
   70MOL   C29522513   2.584   6.386   0.983  0.3707 -0.0948  0.3423
   70MOL   C29622514   2.560   6.488   0.892 -0.0688 -0.0900  0.2335
   70MOL   C29722515   2.666   6.557   0.840 -0.6333  0.0232 -0.1958
   70MOL   H29822516   2.985   6.795   0.765  0.5586 -2.1955 -1.5033
   70MOL   H29922517   2.815   6.791   0.751 -0.5815 -1.5414 -1.5765
   70MOL   H30022518   3.004   6.588   0.887 -2.5770 -0.1381  2.9841
   70MOL   H30122519   2.918   6.416   1.026 -0.1463 -0.7068  0.1156
   70MOL   H30222520   2.735   6.270   1.096 -0.7067 -1.4472 -2.0378
   70MOL   H30322521   2.503   6.331   1.029 -0.6166  0.7349 -0.3911
   70MOL   H30422522   2.461   6.505   0.853  0.0093 -0.8854 -0.3220
   70MOL   H30522523   2.649   6.634   0.767 -0.2283 -1.2457 -1.6574
   70MOL   C30622524   2.957   6.553   0.678 -0.1755  0.0790  0.4028
   70MOL   C30722525   2.980   6.400   0.666 -0.4015  0.4155  0.0700
   70MOL   C30822526   3.005   6.348   0.527 -0.1485  0.1720  0.0610
   70MOL   C30922527   3.107   6.400   0.440  0.4397  0.2814 -0.3067
   70MOL   C31022528   3.117   6.355   0.306 -0.4792  0.1596 -0.1077
   70MOL   C31122529   3.029   6.257   0.264  0.3337 -0.1708  0.2439
   70MOL   C31222530   2.927   6.210   0.346  0.0618  0.3384 -0.0857
   70MOL   C31322531   2.915   6.256   0.476 -0.3482  0.0995 -1.0582
   70MOL   H31422532   3.048   6.600   0.643  0.7375 -1.5112  0.6171
   70MOL   H31522533   2.874   6.574   0.610 -0.0725  2.4312  0.9402
   70MOL   H31622534   2.902   6.342   0.715 -0.5638 -1.9508 -2.8366
   70MOL   H31722535   3.178   6.470   0.480 -0.5267  0.4527  1.1322
   70MOL   H31822536   3.195   6.391   0.241 -0.4214 -0.3816 -0.3447
   70MOL   H31922537   3.045   6.221   0.163 -0.4536  1.5653 -0.5098
   70MOL   H32022538   2.851   6.141   0.313 -2.7416  2.0202  2.5148
   70MOL   H32122539   2.841   6.213   0.543  1.1622  0.9417  1.2234
   70MOL   H32222540   3.066   6.370   0.727  0.1172 -2.2793 -1.9028
   71MOL     C122541   4.782   0.383   3.400  0.4959  0.3279  0.4967
   71MOL     C222542   4.746   0.329   3.540 -0.0733  0.3767  0.3784
   71MOL     C322543   4.760   0.180   3.560  0.4593 -0.0999 -0.6658
   71MOL     C422544   4.880   0.112   3.549  0.7128 -0.0888 -0.2834
   71MOL     C522545   4.891   8.089   3.580 -0.9486  0.0364  0.2052
   71MOL     C622546   4.778   8.014   3.609  0.2628  0.1852 -0.7818
   71MOL     C722547   4.648   8.082   3.623  0.0015 -0.5559 -0.6045
   71MOL     C822548   4.647   0.106   3.602 -0.0781  0.5587  0.1709
   71MOL     H922549   4.757   0.489   3.391  1.3589  0.5051  0.0956
   71MOL    H1022550   4.888   0.387   3.375  0.2366  2.9799 -0.4065
   71MOL    H1122551   4.640   0.351   3.550 -0.0606  0.0208  1.3792
   71MOL    H1222552   4.965   0.173   3.524 -0.2897  0.8740 -1.4652
   71MOL    H1322553   4.982   8.038   3.551  0.4005  2.4193  0.1505
   71MOL    H1422554   4.799   7.909   3.623 -1.5047 -0.1033 -0.0667
   71MOL    H1522555   4.559   8.031   3.657  0.7275 -1.4293  0.0310
   71MOL    H1622556   4.553   0.159   3.615  0.4255  1.3719  0.5341
   71MOL    H1722557   4.728   0.330   3.322  0.0143 -0.6219  1.4744
   71MOL    C1822558   4.818   0.407   3.651 -0.0625 -0.0928  0.4475
   71MOL    C1922559   4.737   0.527   3.686  0.0312 -0.4501  0.4328
   71MOL    C2022560   4.607   0.485   3.756  0.3524 -0.3406  0.0662
   71MOL    C2122561   4.607   0.435   3.888  0.8584  0.5301 -0.8164
   71MOL    C2222562   4.483   0.395   3.947 -0.6329 -0.1131 -0.9261
   71MOL    C2322563   4.361   0.413   3.871  0.3400 -0.2446 -0.2768
   71MOL    C2422564   4.365   0.455   3.741 -0.5548 -0.4507 -0.1731
   71MOL    C2522565   4.487   0.495   3.691  0.0652  0.2874  0.6214
   71MOL    H2622566   4.917   0.445   3.629 -0.8483  1.3766 -0.6165
   71MOL    H2722567   4.833   0.342   3.738 -1.1886 -0.5338  0.3265
   71MOL    H2822568   4.704   0.584   3.599 -0.9606  2.4690  2.6414
   71MOL    H2922569   4.699   0.422   3.944 -1.3373  0.2818  2.8625
   71MOL    H3022570   4.479   0.348   4.044  0.9458 -0.5045 -1.0347
   71MOL    H3122571   4.264   0.381   3.909  0.7176  2.0657  2.8559
   71MOL    H3222572   4.273   0.472   3.687 -0.9730 -0.1451  0.6215
   71MOL    H3322573   4.488   0.539   3.592 -0.2986 -0.1794  0.4062
   71MOL    C3422574   4.821   0.630   3.771 -0.0807  0.2165 -0.3268
   71MOL    C3522575   4.739   0.752   3.813 -0.2836  0.4327 -0.4279
   71MOL    C3622576   4.822   0.835   3.913  0.9400 -0.2825  0.0448
   71MOL    C3722577   4.766   0.853   4.042  0.4059  0.9354 -0.7439
   71MOL    C3822578   4.842   0.926   4.136 -0.2409 -0.0641 -0.0708
   71MOL    C3922579   4.966   0.984   4.097 -0.5296  0.1205  0.1008
   71MOL    C4022580   5.017   0.970   3.968  0.2471  0.2221  0.1642
   71MOL    C4122581   4.947   0.894   3.874  0.8636 -0.1205 -0.3446
   71MOL    H4222582   4.916   0.657   3.725  1.7026 -0.9312  2.5547
   71MOL    H4322583   4.851   0.571   3.858 -0.5788 -1.9891 -1.6208
   71MOL    H4422584   4.645   0.715   3.855 -0.1472 -1.4253 -1.6947
   71MOL    H4522585   4.662   0.834   4.061  0.3609 -0.3390 -2.2602
   71MOL    H4622586   4.799   0.934   4.235  0.3928 -1.2405  0.3100
   71MOL    H4722587   5.027   1.049   4.159 -0.2018  0.9865 -1.1194
   71MOL    H4822588   5.114   1.012   3.945  1.4835 -3.1294 -1.0195
   71MOL    H4922589   4.989   0.876   3.776 -2.2954 -2.1074 -1.4030
   71MOL    C5022590   4.692   0.839   3.697 -0.3687  0.2260  0.0639
   71MOL    C5122591   4.619   0.972   3.739 -0.7927  0.1938 -0.5275
   71MOL    C5222592   4.716   1.090   3.736 -0.0248  0.1806 -0.0868
   71MOL    C5322593   4.780   1.125   3.611  0.1599  0.5590  0.0333
   71MOL    C5422594   4.855   1.243   3.588 -0.6683  0.2760  0.1549
   71MOL    C5522595   4.864   1.332   3.698 -0.7927  0.4524  0.2435
   71MOL    C5622596   4.801   1.299   3.821 -0.0243  0.3390 -0.2562
   71MOL    C5722597   4.735   1.174   3.847  0.3985 -0.2459  0.0604
   71MOL    H5822598   4.626   0.795   3.622 -0.1206 -0.2387  0.1153
   71MOL    H5922599   4.786   0.859   3.646  0.0258 -0.8846  0.3432
   71MOL    H6022600   4.597   0.973   3.846 -1.8891 -1.0930 -0.7331
   71MOL    H6122601   4.770   1.065   3.521 -0.8659 -0.1618  0.6184
   71MOL    H6222602   4.900   1.261   3.491 -1.2491  1.2980  0.0744
   71MOL    H6322603   4.908   1.428   3.679  0.4330  0.0677  1.0239
   71MOL    H6422604   4.803   1.369   3.903  1.3391 -0.0700  0.0743
   71MOL    H6522605   4.692   1.144   3.942  1.1553 -0.1221  0.4447
   71MOL    C6622606   4.488   1.007   3.674  0.0089  0.2876 -0.1768
   71MOL    C6722607   4.371   0.916   3.712  0.5282  0.4289  0.8416
   71MOL    C6822608   4.354   0.893   3.864 -0.6607  0.4566 -0.8440
   71MOL    C6922609   4.381   0.766   3.921  0.5634 -0.0580 -0.4615
   71MOL    C7022610   4.375   0.750   4.060  0.4145  0.5027 -0.2538
   71MOL    C7122611   4.343   0.858   4.143 -0.4631 -0.3170 -0.8552
   71MOL    C7222612   4.315   0.985   4.094  0.5244  0.2873 -0.5157
   71MOL    C7322613   4.321   0.999   3.951  0.8148 -0.5692  0.3598
   71MOL    H7422614   4.502   1.012   3.566 -1.3422  0.8618 -0.3326
   71MOL    H7522615   4.461   1.107   3.708  0.7103  1.0254 -1.6977
   71MOL    H7622616   4.385   0.818   3.666  0.8576  1.6389 -1.7462
   71MOL    H7722617   4.399   0.681   3.857 -1.1338  0.8415 -2.1758
   71MOL    H7822618   4.387   0.654   4.107 -0.7993  0.8384  0.7714
   71MOL    H7922619   4.353   0.849   4.251  1.0815  0.4620 -0.9180
   71MOL    H8022620   4.295   1.068   4.161 -0.0654 -0.7299  0.5889
   71MOL    H8122621   4.293   1.097   3.914 -0.8862 -1.3134 -0.3708
   71MOL    C8222622   4.241   0.968   3.650 -0.5726 -0.2678 -0.2152
   71MOL    C8322623   4.239   0.933   3.496  0.5667  0.1190  0.6449
   71MOL    C8422624   4.192   0.794   3.472  0.5714 -0.0369 -1.1994
   71MOL    C8522625   4.125   0.713   3.573  0.1887  0.4201 -0.0491
   71MOL    C8622626   4.089   0.583   3.543  0.6487 -0.3488  0.2924
   71MOL    C8722627   4.103   0.533   3.409 -0.7618 -0.3717 -0.8005
   71MOL    C8822628   4.171   0.607   3.308  0.4225 -1.2176  0.3922
   71MOL    C8922629   4.216   0.736   3.346 -1.1785  0.0609  0.2204
   71MOL    H9022630   4.247   1.077   3.661 -0.1828 -0.1267 -1.6349
   71MOL    H9122631   4.152   0.939   3.706 -0.6359 -2.6748 -1.5102
   71MOL    H9222632   4.340   0.934   3.455  0.6233 -0.1487  0.7697
   71MOL    H9322633   4.091   0.734   3.673 -2.0492  0.1077 -0.7169
   71MOL    H9422634   4.032   0.523   3.612  1.4921 -0.3555  0.9838
   71MOL    H9522635   4.053   0.444   3.376 -2.0498  0.1009 -0.1228
   71MOL    H9622636   4.175   0.565   3.209  1.5176  0.7598 -0.4191
   71MOL    H9722637   4.270   0.784   3.265 -0.1427  0.9185  1.3945
   71MOL    C9822638   4.145   1.029   3.416 -0.2412 -0.4813  0.2569
   71MOL    C9922639   4.172   1.180   3.416  0.5646  0.0684  0.0052
   71MOL   C10022640   4.309   1.223   3.385 -0.2285 -0.2051 -0.7384
   71MOL   C10122641   4.382   1.296   3.481  0.1821  0.3121  0.1178
   71MOL   C10222642   4.517   1.335   3.460 -0.1411  0.0069 -0.0772
   71MOL   C10322643   4.578   1.302   3.337 -0.0374 -0.2363  0.3144
   71MOL   C10422644   4.505   1.224   3.245 -0.0961 -0.0650 -0.4201
   71MOL   C10522645   4.374   1.180   3.264 -0.4527 -0.3417  0.2927
   71MOL   H10622646   4.043   1.012   3.452 -1.3020  0.2652 -2.2622
   71MOL   H10722647   4.157   0.995   3.313 -0.1861  1.3374 -0.3559
   71MOL   H10822648   4.166   1.208   3.521 -1.1736  0.0441 -0.0751
   71MOL   H10922649   4.327   1.336   3.565 -1.5287 -0.0484 -0.8070
   71MOL   H11022650   4.566   1.401   3.530 -0.3684  0.8727 -0.7231
   71MOL   H11122651   4.679   1.336   3.319  0.2955 -1.3291  0.1267
   71MOL   H11222652   4.566   1.189   3.163  0.5548 -0.1374  0.0905
   71MOL   H11322653   4.325   1.128   3.183  0.9435 -1.6788  0.2894
   71MOL   C11422654   4.068   1.259   3.339  0.3485  0.1805  0.4149
   71MOL   C11522655   3.930   1.281   3.406  0.2609 -0.4479  0.4189
   71MOL   C11622656   3.939   1.338   3.551 -0.2280 -0.3378  0.1392
   71MOL   C11722657   3.993   1.468   3.580  0.5690  0.2914 -0.6185
   71MOL   C11822658   4.008   1.513   3.715  0.9138  0.2433  0.4657
   71MOL   C11922659   3.960   1.436   3.818 -0.9915 -0.4970 -0.4780
   71MOL   C12022660   3.906   1.312   3.788 -0.5481  0.5117 -0.4894
   71MOL   C12122661   3.891   1.261   3.659 -0.5383 -0.6727  0.6773
   71MOL   H12222662   4.058   1.215   3.239  0.8533  1.1090 -0.0518
   71MOL   H12322663   4.112   1.358   3.323 -0.1290  0.2313 -0.6760
   71MOL   H12422664   3.879   1.185   3.421  1.0402 -0.6363  1.9903
   71MOL   H12522665   4.021   1.526   3.493 -2.3378  1.0769 -1.0880
   71MOL   H12622666   4.053   1.611   3.716 -2.2431  1.7933 -1.1481
   71MOL   H12722667   3.976   1.466   3.920 -1.5502 -0.7974 -0.2993
   71MOL   H12822668   3.875   1.245   3.868  0.3758  0.8101  0.1315
   71MOL   H12922669   3.842   1.167   3.638 -1.2019 -0.1205 -0.2407
   71MOL   C13022670   3.831   1.376   3.324  0.1895 -0.7518 -0.1316
   71MOL   C13122671   3.749   1.308   3.197  0.4185 -0.0028  0.0441
   71MOL   C13222672   3.825   1.220   3.104  0.2165 -0.2024 -0.5920
   71MOL   C13322673   3.876   1.276   2.983 -0.1683  0.1280 -0.7031
   71MOL   C13422674   3.955   1.197   2.895  0.6524 -0.5196  0.0917
   71MOL   C13522675   3.978   1.063   2.913 -0.3390 -0.3904  0.6688
   71MOL   C13622676   3.915   1.003   3.030 -0.1059 -0.0517 -0.4386
   71MOL   C13722677   3.836   1.077   3.120 -0.1761 -0.3204 -0.2456
   71MOL   H13822678   3.889   1.458   3.280 -1.3354  0.2722 -0.2673
   71MOL   H13922679   3.757   1.437   3.376  1.3624 -0.9432  1.7823
   71MOL   H14022680   3.709   1.389   3.136 -0.1629  0.9444  1.6610
   71MOL   H14122681   3.865   1.382   2.961  0.7827  0.1623 -1.0768
   71MOL   H14222682   4.004   1.247   2.812  1.5199 -1.1851  0.1987
   71MOL   H14322683   4.061   1.015   2.864  0.9664  2.8745 -0.4337
   71MOL   H14422684   3.928   0.898   3.051  0.8153 -0.0475 -0.9682
   71MOL   H14522685   3.785   1.014   3.191 -0.3767 -1.1274 -1.0806
   71MOL   C14622686   3.623   1.233   3.245 -0.1685 -0.8091 -0.2466
   71MOL   C14722687   3.511   1.312   3.317 -0.5931  0.2731 -0.7553
   71MOL   C14822688   3.463   1.431   3.231  0.1383  0.1851 -0.5453
   71MOL   C14922689   3.394   1.404   3.115  0.1267  0.5777  0.6947
   71MOL   C15022690   3.359   1.506   3.029 -0.5479 -0.5489  0.4669
   71MOL   C15122691   3.390   1.641   3.055  0.2722 -0.8746 -0.4981
   71MOL   C15222692   3.454   1.668   3.183  0.5654 -0.7746 -0.8655
   71MOL   C15322693   3.493   1.567   3.266 -0.0529  0.7537  0.2901
   71MOL   H15422694   3.657   1.156   3.315 -0.5870 -1.8702 -1.1873
   71MOL   H15522695   3.577   1.170   3.169 -2.1203 -0.1129  0.3307
   71MOL   H15622696   3.557   1.360   3.404  0.0760  0.2394 -1.0907
   71MOL   H15722697   3.384   1.300   3.089  0.5872  0.5593  0.5874
   71MOL   H15822698   3.310   1.480   2.937 -1.5257 -1.3801  1.2011
   71MOL   H15922699   3.362   1.718   2.985  0.9717  0.1995  0.3843
   71MOL   H16022700   3.489   1.767   3.210  3.3553 -1.7649 -0.7583
   71MOL   H16122701   3.546   1.587   3.358  0.2204  0.5528  0.1774
   71MOL   C16222702   3.404   1.213   3.374  0.6204  0.8869 -0.6832
   71MOL   C16322703   3.396   1.219   3.526 -0.4251 -1.0548 -1.3688
   71MOL   C16422704   3.369   1.366   3.570 -0.5001 -0.2614  0.0569
   71MOL   C16522705   3.465   1.433   3.646 -0.2142  0.5206 -0.0490
   71MOL   C16622706   3.442   1.574   3.676 -0.4541  0.8216 -0.4863
   71MOL   C16722707   3.328   1.637   3.631  0.0995 -0.3242 -0.7477
   71MOL   C16822708   3.230   1.563   3.561  0.2639  0.5313  0.3751
   71MOL   C16922709   3.246   1.424   3.531  0.9569 -0.3919  0.6769
   71MOL   H17022710   3.420   1.111   3.339 -2.3308 -0.3312  1.2553
   71MOL   H17122711   3.310   1.229   3.320  0.7667 -4.1047 -2.6439
   71MOL   H17222712   3.494   1.194   3.565 -0.4979 -1.0930 -1.2096
   71MOL   H17322713   3.554   1.377   3.671 -1.1174 -1.7701 -1.7343
   71MOL   H17422714   3.517   1.629   3.730 -0.5701  2.0952 -1.5864
   71MOL   H17522715   3.317   1.742   3.653 -2.0683 -1.0042  1.5515
   71MOL   H17622716   3.143   1.618   3.528  0.1975  0.8452  1.0643
   71MOL   H17722717   3.167   1.364   3.488  1.2230 -0.6088  0.4934
   71MOL   C17822718   3.304   1.119   3.598  0.8078 -0.2306 -0.5138
   71MOL   C17922719   3.339   0.970   3.593 -0.4186 -0.7869 -0.4340
   71MOL   C18022720   3.479   0.939   3.651 -1.1071 -0.4115 -0.6571
   71MOL   C18122721   3.508   0.941   3.791 -0.0999  1.2087 -0.4227
   71MOL   C18222722   3.642   0.910   3.834  0.1523 -0.1719  0.3765
   71MOL   C18322723   3.739   0.866   3.738 -0.6677 -0.1405  0.5709
   71MOL   C18422724   3.704   0.856   3.601 -0.3769 -0.1218 -0.5834
   71MOL   C18522725   3.578   0.889   3.563 -0.0832 -0.1750  0.1315
   71MOL   H18622726   3.201   1.139   3.567  0.2590 -1.3723  0.5370
   71MOL   H18722727   3.306   1.139   3.705 -0.4242  1.3776 -0.7744
   71MOL   H18822728   3.342   0.946   3.487 -1.8602  1.8672 -1.1295
   71MOL   H18922729   3.434   0.960   3.868 -0.6742  1.7883 -1.1087
   71MOL   H19022730   3.670   0.912   3.938  0.6218  1.0297  0.2390
   71MOL   H19122731   3.837   0.843   3.779  0.9082  0.0949 -2.9107
   71MOL   H19222732   3.773   0.826   3.524 -0.7472  2.8085 -2.1633
   71MOL   H19322733   3.555   0.894   3.457 -0.1064  0.9344  0.1829
   71MOL   C19422734   3.233   0.882   3.659 -0.0340 -0.6916  0.0377
   71MOL   C19522735   3.106   0.875   3.568 -0.3730  0.0596  0.5686
   71MOL   C19622736   3.126   0.781   3.446  0.2365  0.4377 -0.4119
   71MOL   C19722737   3.169   0.840   3.324 -0.1420  0.2289 -0.1969
   71MOL   C19822738   3.176   0.761   3.204 -0.1121  0.8960  0.2565
   71MOL   C19922739   3.130   0.628   3.209 -0.4206 -0.0952 -0.1481
   71MOL   C20022740   3.087   0.572   3.329 -0.3142 -0.6264 -0.0264
   71MOL   C20122741   3.085   0.645   3.444 -0.2595 -0.6369  0.0007
   71MOL   H20222742   3.213   0.935   3.752  1.6528 -0.7391  0.4412
   71MOL   H20322743   3.277   0.785   3.681  1.0230 -0.2942 -0.3110
   71MOL   H20422744   3.080   0.973   3.529  0.5107 -0.9198 -2.6419
   71MOL   H20522745   3.199   0.944   3.323  1.5266 -0.2344 -0.2757
   71MOL   H20622746   3.205   0.802   3.108 -3.3213  0.6885 -0.8831
   71MOL   H20722747   3.142   0.573   3.116  0.9670  0.3436 -0.2488
   71MOL   H20822748   3.049   0.471   3.322 -1.6365  0.0409 -3.6547
   71MOL   H20922749   3.030   0.601   3.526  1.1168  0.2170  1.4118
   71MOL   C21022750   2.979   0.840   3.647  0.1880 -0.1562 -0.2507
   71MOL   C21122751   2.928   0.945   3.747 -0.1088  0.1717 -0.5937
   71MOL   C21222752   2.909   1.088   3.703  0.3365 -0.2163  0.0464
   71MOL   C21322753   2.980   1.188   3.771  0.0213 -0.5452 -0.7264
   71MOL   C21422754   2.964   1.325   3.734  0.7316 -0.7022 -0.4247
   71MOL   C21522755   2.878   1.362   3.626 -0.4694 -0.0887  0.3643
   71MOL   C21622756   2.808   1.262   3.562  0.7883  0.2168  0.1738
   71MOL   C21722757   2.819   1.126   3.599 -0.1014  0.1391  0.0289
   71MOL   H21822758   3.005   0.755   3.709  0.0242 -0.3787 -0.4853
   71MOL   H21922759   2.892   0.829   3.582 -0.5854  0.5651  0.6448
   71MOL   H22022760   3.005   0.945   3.825  0.6709  0.5776 -1.3596
   71MOL   H22122761   3.036   1.180   3.863 -0.4787  2.1051 -0.1443
   71MOL   H22222762   3.023   1.399   3.787 -1.0340 -0.3311  1.0775
   71MOL   H22322763   2.882   1.463   3.588  1.9864  0.0059  0.7656
   71MOL   H22422764   2.751   1.294   3.476 -0.2626 -1.7895  0.0939
   71MOL   H22522765   2.763   1.051   3.545  0.4732  0.2899 -0.7847
   71MOL   C22622766   2.802   0.882   3.818  0.3639 -0.3897  0.1972
   71MOL   C22722767   2.730   0.964   3.927 -1.0806 -0.1066  0.2230
   71MOL   C22822768   2.586   0.926   3.933  0.0460  0.5332  0.1878
   71MOL   C22922769   2.558   0.791   3.947 -0.0056  0.1676 -0.2028
   71MOL   C23022770   2.421   0.751   3.947  0.5783  0.4742 -0.6377
   71MOL   C23122771   2.314   0.844   3.936  0.1304  0.5861  0.0021
   71MOL   C23222772   2.349   0.979   3.914 -0.0102  0.2643  0.2578
   71MOL   C23322773   2.480   1.020   3.914 -0.2002 -0.4633 -0.4186
   71MOL   H23422774   2.820   0.776   3.836  1.9077 -0.6997 -2.7444
   71MOL   H23522775   2.729   0.873   3.737  1.6147  3.1576 -1.4487
   71MOL   H23622776   2.731   1.065   3.887 -1.7161  0.2040  0.9698
   71MOL   H23722777   2.635   0.717   3.961 -1.5329 -1.2229  1.0073
   71MOL   H23822778   2.399   0.646   3.955  2.1458  0.2296  0.7383
   71MOL   H23922779   2.210   0.814   3.941 -0.2689  1.7294 -1.0417
   71MOL   H24022780   2.267   1.050   3.908  0.2052  0.3481 -2.7476
   71MOL   H24122781   2.500   1.124   3.890  0.9026 -0.2628  1.2062
   71MOL   C24222782   2.812   0.958   4.061  0.1909  0.1389  0.3187
   71MOL   C24322783   2.760   1.040   4.178 -0.0763 -0.3777 -0.4129
   71MOL   C24422784   2.843   1.027   4.311  0.6482 -0.2963  0.7649
   71MOL   C24522785   2.958   1.102   4.336 -0.4927 -0.0066 -0.1614
   71MOL   C24622786   3.036   1.089   4.455 -0.3162 -0.0945  0.5861
   71MOL   C24722787   2.988   0.994   4.552  0.3490  0.0520  0.5358
   71MOL   C24822788   2.872   0.916   4.523 -0.4837  0.3131  0.6272
   71MOL   C24922789   2.805   0.923   4.401  1.0975 -0.7540 -0.3694
   71MOL   H25022790   2.910   1.001   4.043 -0.4634  1.2799 -0.6074
   71MOL   H25122791   2.822   0.852   4.083  0.5532 -0.2792 -1.6985
   71MOL   H25222792   2.662   1.003   4.208  0.1123  0.6243  1.5111
   71MOL   H25322793   2.985   1.178   4.264  0.7630 -0.8103 -0.5644
   71MOL   H25422794   3.121   1.155   4.466 -1.9902  2.1369  0.3576
   71MOL   H25522795   3.036   0.996   4.648 -1.3425  0.9964  1.3807
   71MOL   H25622796   2.837   0.841   4.593 -1.7263 -0.4117 -0.7436
   71MOL   H25722797   2.720   0.861   4.378  1.0816 -0.5103 -0.9924
   71MOL   C25822798   2.739   1.185   4.141 -0.5896  0.2690 -0.8274
   71MOL   C25922799   2.703   1.289   4.244 -0.0179 -0.3627 -0.6145
   71MOL   C26022800   2.672   1.419   4.174  0.1279 -0.5237 -0.1954
   71MOL   C26122801   2.768   1.524   4.179 -0.2928 -0.2409  0.0982
   71MOL   C26222802   2.747   1.651   4.118 -0.2090  0.2940 -0.6642
   71MOL   C26322803   2.625   1.663   4.045 -1.2793  0.4091 -0.0923
   71MOL   C26422804   2.531   1.554   4.034  0.1272  0.0812  0.6035
   71MOL   C26522805   2.548   1.444   4.107  0.7120 -0.5226  0.2420
   71MOL   H26622806   2.666   1.186   4.060 -0.7739 -2.4160 -0.7177
   71MOL   H26722807   2.832   1.210   4.090  0.2502 -0.2271  0.4529
   71MOL   H26822808   2.791   1.303   4.306 -1.0020 -0.6862  0.8808
   71MOL   H26922809   2.867   1.520   4.222  0.6896  1.4189 -1.9098
   71MOL   H27022810   2.819   1.731   4.129 -1.0150  1.0044 -0.5726
   71MOL   H27122811   2.597   1.753   3.993 -3.1117 -0.5734 -0.8511
   71MOL   H27222812   2.444   1.562   3.971 -1.0942 -1.5740  2.0690
   71MOL   H27322813   2.472   1.369   4.089  1.8037 -1.8837  1.1990
   71MOL   C27422814   2.587   1.253   4.344  0.3334 -0.0247 -0.2523
   71MOL   C27522815   2.559   1.352   4.457 -0.0447 -0.0317  0.0936
   71MOL   C27622816   2.425   1.313   4.523  0.0075 -0.0593  0.3315
   71MOL   C27722817   2.319   1.408   4.526 -0.0516 -0.5418  0.1509
   71MOL   C27822818   2.195   1.377   4.592  0.2504 -0.0468  0.4362
   71MOL   C27922819   2.179   1.246   4.645  0.1163 -0.1606 -0.4921
   71MOL   C28022820   2.282   1.147   4.638  0.2053 -0.1036 -0.1432
   71MOL   C28122821   2.407   1.186   4.583 -0.0854 -0.4305  0.2606
   71MOL   H28222822   2.586   1.149   4.376  0.2003 -0.0943 -0.4783
   71MOL   H28322823   2.496   1.259   4.284 -0.9212 -1.0802  1.4966
   71MOL   H28422824   2.538   1.449   4.411  0.9626  0.2933  0.3051
   71MOL   H28522825   2.320   1.506   4.482  0.3457 -1.3520 -1.6722
   71MOL   H28622826   2.115   1.451   4.597  0.4078  0.0727  1.3918
   71MOL   H28722827   2.094   1.233   4.709  1.1708  2.0434  1.4276
   71MOL   H28822828   2.270   1.047   4.677  1.4921 -0.6730 -1.1552
   71MOL   H28922829   2.494   1.123   4.598  1.0903  0.8995 -0.7297
   71MOL   C29022830   2.678   1.379   4.550  0.0638  0.3115 -0.2942
   71MOL   C29122831   2.662   1.443   4.686 -0.0071  0.0456 -0.6509
   71MOL   C29222832   2.756   1.378   4.791 -0.1522  0.1336 -0.2401
   71MOL   C29322833   2.900   1.369   4.778  0.0758  0.2154  0.5486
   71MOL   C29422834   2.978   1.313   4.874 -0.3636  0.1022 -0.2653
   71MOL   C29522835   2.920   1.269   4.999  0.4476 -0.3515  0.0866
   71MOL   C29622836   2.786   1.286   5.020 -0.6168  0.8038 -0.2913
   71MOL   C29722837   2.702   1.335   4.916 -0.3019 -0.5543 -0.1935
   71MOL   H29822838   2.756   1.434   4.498  0.7938  0.4749  0.9410
   71MOL   H29922839   2.719   1.279   4.561  1.6692  1.3199  3.8053
   71MOL   H30022840   2.559   1.440   4.724 -0.5517  3.8726 -1.5556
   71MOL   H30122841   2.948   1.391   4.683 -0.1736 -0.8666  0.1627
   71MOL   H30222842   3.085   1.299   4.865 -0.1937  1.1044  0.0866
   71MOL   H30322843   2.985   1.214   5.065  2.0037  2.9477  1.4281
   71MOL   H30422844   2.733   1.256   5.110  1.8756 -1.4529  0.4761
   71MOL   H30522845   2.594   1.345   4.924 -0.7862 -2.4556 -3.3660
   71MOL   C30622846   2.694   1.594   4.680  0.0093 -0.9434 -0.1220
   71MOL   C30722847   2.623   1.676   4.569  0.0740  0.4998  0.7678
   71MOL   C30822848   2.662   1.823   4.562 -0.7848  0.5312  0.7310
   71MOL   C30922849   2.614   1.909   4.664  0.8768  0.2962  0.5031
   71MOL   C31022850   2.632   2.050   4.653 -0.1836 -0.1251  0.5521
   71MOL   C31122851   2.714   2.100   4.546 -0.5309  0.2087 -0.1122
   71MOL   C31222852   2.771   2.016   4.449  0.1630 -0.2955  0.2644
   71MOL   C31322853   2.749   1.874   4.459  0.4989 -0.2366 -0.1397
   71MOL   H31422854   2.800   1.615   4.662 -0.2215 -0.9641 -1.5909
   71MOL   H31522855   2.672   1.636   4.778 -0.3062 -0.3557 -0.4397
   71MOL   H31622856   2.515   1.666   4.583  0.3416 -2.3395  0.9895
   71MOL   H31722857   2.539   1.873   4.733  0.1677  1.6104  0.4344
   71MOL   H31822858   2.587   2.117   4.725 -2.1478  0.9265 -1.5630
   71MOL   H31922859   2.735   2.204   4.528  0.0960  0.0843 -0.1027
   71MOL   H32022860   2.847   2.048   4.378  0.0836 -1.2621 -0.2624
   71MOL   H32122861   2.784   1.816   4.375  0.3460 -1.3918  0.5849
   71MOL   H32222862   2.655   1.641   4.471  1.9159  2.5281  0.6123
   72MOL     C122863   3.565   6.656   5.278 -0.7583 -0.1003  0.3180
   72MOL     C222864   3.459   6.565   5.201  0.2475  0.1767 -0.3038
   72MOL     C322865   3.516   6.430   5.175 -0.0270 -0.1116 -0.4490
   72MOL     C422866   3.487   6.320   5.262 -0.0545 -0.5772  0.2348
   72MOL     C522867   3.531   6.188   5.234 -0.1219  0.3197  0.1074
   72MOL     C622868   3.604   6.160   5.115  1.0322 -0.0916 -0.4499
   72MOL     C722869   3.632   6.270   5.028  0.3616 -0.7348  0.3168
   72MOL     C822870   3.587   6.403   5.053 -0.0816  0.1364 -0.6360
   72MOL     H922871   3.510   6.732   5.334 -0.5248 -0.1546  0.6235
   72MOL    H1022872   3.633   6.601   5.343 -0.8027 -0.6224 -0.0729
   72MOL    H1122873   3.456   6.613   5.103  0.1598  0.5896 -0.1002
   72MOL    H1222874   3.417   6.321   5.344 -0.6174  0.2977 -0.2368
   72MOL    H1322875   3.488   6.108   5.292  3.0050 -0.0147  2.0743
   72MOL    H1422876   3.626   6.057   5.091 -0.4764 -0.8465  1.2824
   72MOL    H1522877   3.662   6.249   4.926 -2.8533  0.2822 -0.8921
   72MOL    H1622878   3.602   6.484   4.983  2.5085  2.3349  2.3246
   72MOL    H1722879   3.631   6.713   5.212 -0.7542 -1.2510 -0.7020
   72MOL    C1822880   3.317   6.570   5.256  0.2272 -0.2727 -0.3430
   72MOL    C1922881   3.201   6.488   5.192 -0.0359  0.5760  0.1035
   72MOL    C2022882   3.084   6.488   5.289  0.0811 -0.2254  0.2215
   72MOL    C2122883   3.031   6.604   5.350  0.3258  0.6196  0.1606
   72MOL    C2222884   2.919   6.602   5.435  0.0295 -0.1528 -0.1631
   72MOL    C2322885   2.863   6.476   5.460 -0.0081 -0.4083 -0.4190
   72MOL    C2422886   2.914   6.362   5.399  0.6672  0.9803 -0.1154
   72MOL    C2522887   3.024   6.360   5.319 -0.0505  0.2795  0.2297
   72MOL    H2622888   3.287   6.675   5.264  2.1573  0.1494  2.4049
   72MOL    H2722889   3.321   6.539   5.361  0.0807  0.1977 -0.1949
   72MOL    H2822890   3.234   6.385   5.179 -0.1809  0.3577  1.4165
   72MOL    H2922891   3.062   6.701   5.316  2.0159 -0.1003 -0.3853
   72MOL    H3022892   2.886   6.694   5.480  0.5816 -0.7056  1.3706
   72MOL    H3122893   2.779   6.471   5.527 -0.2413  1.0704 -0.5810
   72MOL    H3222894   2.885   6.261   5.425 -0.9181  1.4675  0.0283
   72MOL    H3322895   3.077   6.271   5.288 -1.0683 -0.6485  1.0880
   72MOL    C3422896   3.157   6.542   5.057 -0.3100 -0.1039  0.2492
   72MOL    C3522897   3.050   6.469   4.983 -0.6454  0.2292  0.3104
   72MOL    C3622898   3.001   6.551   4.863  0.0859  0.2346 -0.1041
   72MOL    C3722899   3.092   6.595   4.765  0.4549 -0.0459 -0.1600
   72MOL    C3822900   3.057   6.696   4.672 -0.1096  0.0879 -0.8691
   72MOL    C3922901   2.923   6.747   4.679  0.5104 -0.1728 -0.7391
   72MOL    C4022902   2.825   6.691   4.768 -0.6137  0.5551 -0.1207
   72MOL    C4122903   2.867   6.594   4.859 -0.6753  0.2383  0.2931
   72MOL    H4222904   3.244   6.545   4.991  1.2449 -1.5674  2.1606
   72MOL    H4322905   3.141   6.648   5.078  1.6903 -0.1210  2.0345
   72MOL    H4422906   2.969   6.471   5.057 -0.6093  1.2293  0.3410
   72MOL    H4522907   3.195   6.564   4.774  0.3432 -0.2892  0.2814
   72MOL    H4622908   3.136   6.740   4.613 -0.1144  0.3700 -0.6625
   72MOL    H4722909   2.904   6.831   4.614 -1.7351  0.8347  1.1371
   72MOL    H4822910   2.721   6.720   4.776 -1.5094 -2.4374 -0.4997
   72MOL    H4922911   2.793   6.556   4.928 -1.1238  1.5966  0.5690
   72MOL    C5022912   3.083   6.318   4.940 -0.1084  0.6203 -0.2583
   72MOL    C5122913   2.968   6.231   4.906  0.1341  0.0857  0.1478
   72MOL    C5222914   2.994   6.128   4.798  0.2416 -0.5373  0.2227
   72MOL    C5322915   3.046   6.003   4.833 -0.2120 -0.1459  0.5702
   72MOL    C5422916   3.066   5.903   4.736  0.2923  0.0377  0.1961
   72MOL    C5522917   3.047   5.929   4.598  0.8878 -0.1584 -0.0413
   72MOL    C5622918   2.998   6.059   4.558  0.1144 -0.1039 -0.4594
   72MOL    C5722919   2.969   6.151   4.662  0.5861 -0.9443 -0.8436
   72MOL    H5822920   3.135   6.281   5.028 -0.2116 -0.8690 -0.8002
   72MOL    H5922921   3.159   6.317   4.861 -0.9146 -0.9659 -1.0359
   72MOL    H6022922   2.915   6.312   4.856  0.4807  0.4909  0.4383
   72MOL    H6122923   3.086   5.981   4.931  0.5948 -1.5275 -0.0577
   72MOL    H6222924   3.108   5.807   4.763  1.4573  0.2689 -0.7511
   72MOL    H6322925   3.079   5.847   4.536 -2.1534 -0.4034 -1.3468
   72MOL    H6422926   2.989   6.074   4.451 -0.0537  1.9288 -0.1855
   72MOL    H6522927   2.922   6.246   4.641  1.3553 -0.5288 -0.6996
   72MOL    C6622928   2.893   6.180   5.031 -0.0421 -0.2321 -0.5343
   72MOL    C6722929   2.751   6.120   5.003  0.5763  0.5712  0.5400
   72MOL    C6822930   2.713   6.027   5.120 -0.4582 -0.3533  0.0249
   72MOL    C6922931   2.663   6.084   5.238 -0.8030 -0.2057 -0.4992
   72MOL    C7022932   2.630   6.005   5.351 -0.5202  0.5528 -0.2650
   72MOL    C7122933   2.640   5.869   5.339  0.0027 -0.1017 -0.4291
   72MOL    C7222934   2.693   5.811   5.221  0.3833 -0.1220  0.2643
   72MOL    C7322935   2.720   5.891   5.109 -0.1299 -0.0175 -1.0076
   72MOL    H7422936   2.890   6.259   5.105 -0.8080 -0.7194 -0.0266
   72MOL    H7522937   2.943   6.095   5.077  1.6976  0.6629 -0.7340
   72MOL    H7622938   2.736   6.056   4.916 -1.3382 -1.1568  2.0850
   72MOL    H7722939   2.658   6.191   5.255 -0.7484 -0.2341 -0.3009
   72MOL    H7822940   2.594   6.051   5.442 -0.5209  1.6826 -0.8327
   72MOL    H7922941   2.590   5.808   5.412  2.3986 -0.1526  1.2078
   72MOL    H8022942   2.700   5.703   5.217  0.7656 -0.1120  0.6765
   72MOL    H8122943   2.754   5.836   5.022 -1.7254 -2.0907 -0.3555
   72MOL    C8222944   2.656   6.243   4.988 -0.1768 -0.0009 -0.0085
   72MOL    C8322945   2.513   6.206   4.952 -0.4320  0.3951  0.9053
   72MOL    C8422946   2.436   6.339   4.953 -0.1550  0.3824  0.0588
   72MOL    C8522947   2.329   6.344   5.037  0.3868 -0.6268 -0.9207
   72MOL    C8622948   2.242   6.452   5.043  0.0822  0.5837 -0.2254
   72MOL    C8722949   2.257   6.563   4.954 -0.2020  0.8563 -0.4286
   72MOL    C8822950   2.373   6.560   4.871  0.5615 -0.1063  0.1469
   72MOL    C8922951   2.461   6.447   4.863  0.2162 -0.2453 -0.1839
   72MOL    H9022952   2.691   6.307   4.907 -2.1193  0.7262 -0.2825
   72MOL    H9122953   2.666   6.303   5.078 -0.4855  1.4217 -0.9115
   72MOL    H9222954   2.483   6.138   5.032 -0.8223  0.4260  0.7845
   72MOL    H9322955   2.314   6.258   5.101  2.0851 -1.1391 -1.1900
   72MOL    H9422956   2.158   6.457   5.111 -2.0269 -0.9741 -2.6448
   72MOL    H9522957   2.186   6.644   4.962  0.7870  1.7965 -1.1795
   72MOL    H9622958   2.382   6.640   4.799 -0.4108  0.8195  1.0277
   72MOL    H9722959   2.545   6.443   4.796  0.3653 -2.6417  0.1327
   72MOL    C9822960   2.493   6.134   4.814  0.0742 -0.1507 -0.3017
   72MOL    C9922961   2.443   5.988   4.828  0.1510  0.4667  0.1786
   72MOL   C10022962   2.322   5.957   4.916 -0.4530 -0.5777  0.7410
   72MOL   C10122963   2.322   5.853   5.009  0.0116  0.3699 -0.0757
   72MOL   C10222964   2.209   5.840   5.089  0.0826 -0.2372 -0.1927
   72MOL   C10322965   2.094   5.923   5.075 -0.3972 -0.5539  0.7237
   72MOL   C10422966   2.089   6.011   4.962  0.4142  0.4694  0.8119
   72MOL   C10522967   2.207   6.034   4.894  0.2853  0.6885 -0.5023
   72MOL   H10622968   2.586   6.144   4.759 -0.1509  0.3185 -0.6029
   72MOL   H10722969   2.422   6.193   4.755 -0.6852 -1.6120 -0.8746
   72MOL   H10822970   2.527   5.924   4.855  0.8391  1.8134  1.3087
   72MOL   H10922971   2.409   5.790   5.017 -0.7610 -0.5324  1.3503
   72MOL   H11022972   2.214   5.774   5.174 -0.9683 -0.2078 -0.1072
   72MOL   H11122973   2.014   5.908   5.145 -0.7196 -2.0127  0.0652
   72MOL   H11222974   2.000   6.069   4.942 -0.8234 -1.0711  1.7637
   72MOL   H11322975   2.216   6.111   4.818 -1.6442  1.3008 -0.1478
   72MOL   C11422976   2.433   5.927   4.680 -0.2271  0.0501 -0.7632
   72MOL   C11522977   2.402   5.781   4.682  0.3321 -0.6172  0.1472
   72MOL   C11622978   2.329   5.740   4.555  0.5345 -0.7610 -0.5529
   72MOL   C11722979   2.208   5.663   4.565 -0.9081 -0.2086  0.0973
   72MOL   C11822980   2.151   5.604   4.452  0.1405 -0.3720  0.1258
   72MOL   C11922981   2.200   5.631   4.323 -0.5453 -0.3585 -0.5874
   72MOL   C12022982   2.317   5.713   4.316 -0.2720  0.7037  0.4628
   72MOL   C12122983   2.378   5.766   4.429 -0.1317 -0.7853  0.1728
   72MOL   H12222984   2.529   5.943   4.631  0.0302  0.3322 -0.1679
   72MOL   H12322985   2.354   5.990   4.639 -0.9687 -0.1055  0.3893
   72MOL   H12422986   2.321   5.762   4.752 -1.3167 -3.1730 -2.3333
   72MOL   H12522987   2.157   5.640   4.658 -2.2276  0.5685 -0.4125
   72MOL   H12622988   2.061   5.544   4.457  0.1911 -0.5443 -0.9682
   72MOL   H12722989   2.151   5.591   4.236 -0.2607 -0.5939 -0.6418
   72MOL   H12822990   2.361   5.733   4.219 -1.1405  0.8325  0.0886
   72MOL   H12922991   2.457   5.839   4.415 -1.0678  0.1129 -0.4434
   72MOL   C13022992   2.527   5.694   4.697  0.3543  0.4164 -0.2629
   72MOL   C13122993   2.498   5.545   4.744  0.0753  0.5676 -0.4217
   72MOL   C13222994   2.614   5.460   4.690 -0.6566  0.3328  0.4810
   72MOL   C13322995   2.613   5.414   4.553 -0.0088 -0.6002  0.8679
   72MOL   C13422996   2.715   5.339   4.501  0.0174 -0.2077 -0.1002
   72MOL   C13522997   2.821   5.297   4.579 -0.3088  0.6629  0.0672
   72MOL   C13622998   2.830   5.347   4.707  0.6667  0.7747 -0.4368
   72MOL   C13722999   2.731   5.426   4.768  0.4090  0.1497 -0.2956
   72MOL   H13823000   2.590   5.749   4.766 -1.8550  2.4912  0.1635
   72MOL   H13923001   2.588   5.688   4.607  1.9190 -2.1000  0.8941
   72MOL   H14023002   2.414   5.505   4.687 -1.6104  3.2815  0.1057
   72MOL   H14123003   2.538   5.443   4.480 -0.1782 -1.2063  0.7947
   72MOL   H14223004   2.707   5.300   4.401 -0.6095  0.9810 -0.5233
   72MOL   H14323005   2.896   5.228   4.544 -0.5872 -0.2473  1.2607
   72MOL   H14423006   2.913   5.318   4.770  1.7647  0.7636 -1.8752
   72MOL   H14523007   2.741   5.461   4.870  3.0528  2.1016 -1.1493
   72MOL   C14623008   2.460   5.536   4.889  0.6261  0.3428 -0.2850
   72MOL   C14723009   2.445   5.409   4.964  0.1216 -1.4816  0.5092
   72MOL   C14823010   2.465   5.427   5.114  0.6303  0.3826 -0.1230
   72MOL   C14923011   2.382   5.519   5.191 -0.7541 -0.0102  0.6568
   72MOL   C15023012   2.420   5.555   5.317 -0.9322  0.1321  0.2961
   72MOL   C15123013   2.528   5.486   5.375  0.1655  0.5336  0.1025
   72MOL   C15223014   2.598   5.377   5.309 -0.0816 -0.5338  0.4986
   72MOL   C15323015   2.570   5.353   5.174  0.5199  0.0449  0.2697
   72MOL   H15423016   2.369   5.594   4.904  1.0113  1.1051 -0.8692
   72MOL   H15523017   2.541   5.594   4.932 -0.8883  2.3068 -0.0298
   72MOL   H15623018   2.523   5.348   4.919 -0.4592 -1.6477 -0.2919
   72MOL   H15723019   2.292   5.552   5.142 -0.3089 -1.9415 -1.5706
   72MOL   H15823020   2.368   5.633   5.371  0.0180 -0.0738  1.5405
   72MOL   H15923021   2.559   5.514   5.475  2.8913  0.6133 -0.7016
   72MOL   H16023022   2.683   5.331   5.358  0.6903  1.7947  1.4313
   72MOL   H16123023   2.640   5.299   5.111  1.6579  1.1783  0.5566
   72MOL   C16223024   2.318   5.336   4.935 -0.2761  0.3655  0.2380
   72MOL   C16323025   2.337   5.189   4.927  0.6211  0.4185 -0.1140
   72MOL   C16423026   2.232   5.105   4.995  0.9348  0.0004  0.6399
   72MOL   C16523027   2.272   4.987   5.066  0.5666 -0.0259 -0.4548
   72MOL   C16623028   2.178   4.902   5.119  0.1593  0.5624  0.5833
   72MOL   C16723029   2.039   4.928   5.105 -0.3352  1.1910  0.1657
   72MOL   C16823030   2.003   5.045   5.039  0.6144 -0.4262  0.2894
   72MOL   C16923031   2.093   5.131   4.978 -0.3991 -0.6356  0.3274
   72MOL   H17023032   2.271   5.378   4.847 -0.0807  1.4206  0.6345
   72MOL   H17123033   2.246   5.352   5.016  0.4450  0.0330  0.9603
   72MOL   H17223034   2.429   5.166   4.981 -0.1526  0.9260  1.4533
   72MOL   H17323035   2.372   4.949   5.075  0.8803  0.7450 -0.6994
   72MOL   H17423036   2.211   4.820   5.182  1.1245  1.5805  1.4385
   72MOL   H17523037   1.967   4.859   5.147 -1.2028  1.7104 -0.4677
   72MOL   H17623038   1.898   5.057   5.021  0.6736  0.9856  0.8126
   72MOL   H17723039   2.064   5.223   4.928 -0.9510  0.1636  2.0722
   72MOL   C17823040   2.362   5.151   4.782  0.3670 -0.1439  0.1673
   72MOL   C17923041   2.428   5.015   4.756 -0.1208 -0.1437  0.1036
   72MOL   C18023042   2.412   4.976   4.608  0.7200 -0.6420 -0.4329
   72MOL   C18123043   2.480   5.043   4.514 -0.6903  0.2349 -0.3053
   72MOL   C18223044   2.477   5.006   4.380  0.1449 -0.2049 -0.0818
   72MOL   C18323045   2.381   4.910   4.342  0.6009 -0.0928 -0.0705
   72MOL   C18423046   2.293   4.863   4.432 -0.2403  0.2855 -0.6059
   72MOL   C18523047   2.303   4.895   4.574 -0.1997  0.6874 -0.0265
   72MOL   H18623048   2.420   5.234   4.740  2.9604 -1.6691  0.6478
   72MOL   H18723049   2.260   5.147   4.746 -0.1610  0.7951  1.4816
   72MOL   H18823050   2.370   4.942   4.812  0.0969  0.3727  1.0051
   72MOL   H18923051   2.551   5.121   4.537  1.6810 -1.9138 -0.0931
   72MOL   H19023052   2.544   5.059   4.313 -2.4633  3.4673  0.0885
   72MOL   H19123053   2.365   4.883   4.239 -1.1231 -0.1511  0.1868
   72MOL   H19223054   2.206   4.814   4.391  0.1087 -0.0692 -0.9282
   72MOL   H19323055   2.227   4.859   4.641  0.0607  0.5296  0.1850
   72MOL   C19423056   2.573   5.009   4.804 -0.2055 -0.9264  0.3333
   72MOL   C19523057   2.648   4.882   4.770 -0.6609 -0.0737  1.0597
   72MOL   C19623058   2.795   4.909   4.794 -0.6781  0.9686 -0.7732
   72MOL   C19723059   2.845   4.886   4.927 -0.8088  0.3011  0.7575
   72MOL   C19823060   2.979   4.906   4.959  0.2441  0.2332 -0.1633
   72MOL   C19923061   3.078   4.941   4.862 -0.0704 -0.4557 -0.7377
   72MOL   C20023062   3.026   4.964   4.727  0.0642  0.0701 -0.1003
   72MOL   C20123063   2.889   4.956   4.695  0.1005 -0.0755  0.1014
   72MOL   H20223064   2.591   5.022   4.911  0.3707  0.3899  0.0810
   72MOL   H20323065   2.626   5.082   4.744 -1.7150 -1.2542 -1.4344
   72MOL   H20423066   2.648   4.877   4.661 -0.8527  1.5421  0.9716
   72MOL   H20523067   2.779   4.851   5.004 -0.4449  0.7598  1.2821
   72MOL   H20623068   3.002   4.892   5.063  0.3702  0.5494 -0.1475
   72MOL   H20723069   3.179   4.950   4.898 -0.3769  2.4190 -0.4617
   72MOL   H20823070   3.093   4.981   4.644 -0.0462  1.5267  0.0997
   72MOL   H20923071   2.861   4.973   4.593 -0.3256 -1.5905 -0.0572
   72MOL   C21023072   2.597   4.747   4.827  0.3304 -0.3161  0.6269
   72MOL   C21123073   2.669   4.620   4.773 -0.7153 -0.0437 -0.0791
   72MOL   C21223074   2.651   4.501   4.867  0.4571 -0.3721 -0.0630
   72MOL   C21323075   2.752   4.466   4.947 -0.8870 -0.1765 -0.4402
   72MOL   C21423076   2.740   4.367   5.043  0.3224  0.0244 -0.1129
   72MOL   C21523077   2.611   4.305   5.064 -0.6317 -0.2300 -0.3449
   72MOL   C21623078   2.501   4.339   4.977 -0.2347 -0.0023 -0.1071
   72MOL   C21723079   2.521   4.441   4.883  0.3737 -1.0084  0.0252
   72MOL   H21823080   2.492   4.730   4.805  0.2426  0.6777  0.2447
   72MOL   H21923081   2.600   4.751   4.935  0.0329 -1.5878  0.6845
   72MOL   H22023082   2.775   4.643   4.768 -0.5987 -0.2454  1.2855
   72MOL   H22123083   2.843   4.524   4.938 -0.9172 -0.2269 -1.1699
   72MOL   H22223084   2.823   4.335   5.104  0.0587 -2.3012 -0.9190
   72MOL   H22323085   2.597   4.230   5.140 -0.3023  0.2281  0.1802
   72MOL   H22423086   2.402   4.298   4.982 -0.1823 -0.1162  0.0168
   72MOL   H22523087   2.441   4.468   4.815 -0.8598 -0.6593  1.5914
   72MOL   C22623088   2.618   4.596   4.626 -1.3241  0.6031 -0.0247
   72MOL   C22723089   2.727   4.523   4.541  0.7643 -0.6618 -0.1059
   72MOL   C22823090   2.667   4.474   4.409  0.1088  0.0598 -0.3851
   72MOL   C22923091   2.600   4.564   4.325  0.3751  0.2058  0.3920
   72MOL   C23023092   2.540   4.526   4.202  0.5129 -0.6241 -0.8249
   72MOL   C23123093   2.548   4.396   4.162  0.0394 -0.1335 -0.0682
   72MOL   C23223094   2.604   4.301   4.253 -0.7880 -0.5863 -0.2658
   72MOL   C23323095   2.667   4.341   4.365  0.9752  0.5228  0.6020
   72MOL   H23423096   2.596   4.687   4.571  1.8800  2.8315  2.1761
   72MOL   H23523097   2.523   4.544   4.626  0.6709 -3.2398 -0.1149
   72MOL   H23623098   2.761   4.433   4.592 -0.4757 -1.3485 -0.4781
   72MOL   H23723099   2.598   4.670   4.345 -0.4159  0.1929  0.4006
   72MOL   H23823100   2.492   4.608   4.150 -0.8078  1.0100  2.8195
   72MOL   H23923101   2.510   4.358   4.068 -0.1016  0.5652 -0.2915
   72MOL   H24023102   2.600   4.198   4.220 -0.9739 -0.6792  0.0408
   72MOL   H24123103   2.711   4.255   4.413  1.8614  0.2587 -0.6566
   72MOL   C24223104   2.849   4.609   4.511 -0.7112 -0.3440  0.2625
   72MOL   C24323105   2.976   4.521   4.500 -0.6889 -1.3915 -0.6743
   72MOL   C24423106   3.071   4.578   4.402 -0.3684 -0.5039  0.0099
   72MOL   C24523107   3.176   4.673   4.431 -0.7135 -0.0285  0.4884
   72MOL   C24623108   3.258   4.731   4.325  0.0670 -0.0750  0.2515
   72MOL   C24723109   3.234   4.694   4.188 -0.1815 -0.4298  0.1563
   72MOL   C24823110   3.137   4.590   4.164 -0.3282  0.0261 -0.1037
   72MOL   C24923111   3.057   4.538   4.265  0.7245  0.5375  0.5731
   72MOL   H25023112   2.874   4.686   4.584 -0.0996 -0.2937 -0.0025
   72MOL   H25123113   2.825   4.664   4.420  2.5834  3.8010  1.7191
   72MOL   H25223114   2.952   4.424   4.457  1.1323 -1.9634 -0.4480
   72MOL   H25323115   3.198   4.698   4.533  0.6463 -2.2908  0.7869
   72MOL   H25423116   3.332   4.806   4.349  2.9413 -1.6649 -3.2378
   72MOL   H25523117   3.308   4.728   4.117 -1.7207 -0.3621 -1.4554
   72MOL   H25623118   3.131   4.549   4.064 -3.2284  2.9540 -1.2394
   72MOL   H25723119   2.981   4.463   4.247  0.6604  0.8448 -0.4359
   72MOL   C25823120   3.039   4.487   4.642  0.3528 -0.8723 -1.0504
   72MOL   C25923121   3.166   4.401   4.641  0.2111  0.2176 -0.6712
   72MOL   C26023122   3.251   4.428   4.770  0.2841  0.8654 -0.3677
   72MOL   C26123123   3.387   4.464   4.756  0.1047 -0.3951 -0.4704
   72MOL   C26223124   3.464   4.494   4.865 -0.2141 -0.7906  0.1710
   72MOL   C26323125   3.409   4.497   4.991  0.0124  0.0266 -0.0401
   72MOL   C26423126   3.277   4.459   5.012 -0.1619 -0.2271  0.0420
   72MOL   C26523127   3.196   4.419   4.902 -0.3651  0.0698 -0.4234
   72MOL   H26623128   2.957   4.441   4.698  1.0488  0.8708  1.4993
   72MOL   H26723129   3.061   4.585   4.685 -1.5984 -0.1611 -1.6195
   72MOL   H26823130   3.224   4.441   4.559  1.9072 -0.2259  0.2800
   72MOL   H26923131   3.427   4.471   4.655 -1.3786  0.9318 -0.9926
   72MOL   H27023132   3.560   4.540   4.851 -0.9938  0.9895  0.5255
   72MOL   H27123133   3.475   4.525   5.072 -1.2147 -0.3163  1.0874
   72MOL   H27223134   3.242   4.463   5.113 -0.8982  0.2508 -0.2314
   72MOL   H27323135   3.091   4.403   4.916 -0.5383  0.6166 -1.0447
   72MOL   C27423136   3.150   4.244   4.611  0.3099 -0.7382  0.4111
   72MOL   C27523137   3.269   4.194   4.519 -0.7842  0.1443  0.2218
   72MOL   C27623138   3.279   4.037   4.526  0.0863 -0.2682  0.5013
   72MOL   C27723139   3.164   3.957   4.514 -0.4840  0.1443 -0.3845
   72MOL   C27823140   3.181   3.814   4.514 -0.2210 -0.2009  0.4658
   72MOL   C27923141   3.310   3.758   4.537  0.4053 -0.2593 -0.3570
   72MOL   C28023142   3.415   3.844   4.563 -1.0300  0.2971  0.3609
   72MOL   C28123143   3.403   3.982   4.542 -0.0843  0.0687 -0.5620
   72MOL   H28223144   3.054   4.234   4.562  0.5633 -0.3706 -0.1673
   72MOL   H28323145   3.145   4.188   4.705 -0.8475  2.3037  2.2594
   72MOL   H28423146   3.356   4.238   4.567 -1.1847  1.8409 -0.5637
   72MOL   H28523147   3.069   4.006   4.506  0.1314  1.5600  0.7631
   72MOL   H28623148   3.092   3.754   4.503  0.6525 -1.6832  1.2963
   72MOL   H28723149   3.333   3.653   4.527 -1.2723 -0.6651  0.0198
   72MOL   H28823150   3.514   3.803   4.577 -0.6674  0.3589 -1.7877
   72MOL   H28923151   3.484   4.052   4.543  1.7977 -2.0679  0.3367
   72MOL   C29023152   3.264   4.235   4.368  0.9157 -0.1194 -0.0670
   72MOL   C29123153   3.389   4.228   4.279 -0.2369  0.6482  0.4093
   72MOL   C29223154   3.369   4.227   4.128  0.0461 -0.4840  0.1244
   72MOL   C29323155   3.482   4.195   4.045 -0.4291  0.3851 -1.1419
   72MOL   C29423156   3.476   4.222   3.910 -0.4644 -0.6724 -0.4840
   72MOL   C29523157   3.354   4.260   3.851 -0.0604 -0.1705 -0.0171
   72MOL   C29623158   3.237   4.276   3.928 -0.0548  0.3704 -0.3322
   72MOL   C29723159   3.245   4.265   4.071 -0.1936  0.7410 -0.0539
   72MOL   H29823160   3.226   4.337   4.368 -1.6478 -1.0250  1.2360
   72MOL   H29923161   3.180   4.182   4.322  1.2670 -0.7066 -0.0336
   72MOL   H30023162   3.430   4.129   4.300  0.2511  0.9278  0.7808
   72MOL   H30123163   3.572   4.163   4.097 -0.7052  1.0098 -0.2639
   72MOL   H30223164   3.567   4.224   3.853  0.1241  0.5337  0.4650
   72MOL   H30323165   3.339   4.261   3.744 -2.5448  2.2595  0.2982
   72MOL   H30423166   3.146   4.303   3.878  0.2027  2.5760  0.3235
   72MOL   H30523167   3.162   4.296   4.133  1.2845  0.9662  1.8897
   72MOL   C30623168   3.508   4.314   4.331  0.7893  0.4383  0.0848
   72MOL   C30723169   3.507   4.464   4.295  0.7399 -0.0751  0.6981
   72MOL   C30823170   3.609   4.551   4.373 -0.8329 -0.7169  0.5451
   72MOL   C30923171   3.644   4.544   4.507  0.3213 -0.8774 -0.0934
   72MOL   C31023172   3.740   4.631   4.560 -0.3232 -0.5064  0.3008
   72MOL   C31123173   3.805   4.728   4.482  0.0469 -0.2879 -0.3706
   72MOL   C31223174   3.772   4.736   4.346 -0.0010 -0.3941 -1.0768
   72MOL   C31323175   3.679   4.648   4.288 -0.5846  0.2182  0.7582
   72MOL   H31423176   3.599   4.272   4.287 -0.4332  0.6489 -2.7290
   72MOL   H31523177   3.522   4.298   4.438 -0.5352  0.7941  0.3174
   72MOL   H31623178   3.408   4.504   4.320  0.3205 -1.3370  1.1054
   72MOL   H31723179   3.600   4.466   4.568 -2.0887  0.2431 -0.3455
   72MOL   H31823180   3.762   4.621   4.666  0.8859 -3.2655 -0.1775
   72MOL   H31923181   3.876   4.796   4.526 -2.6526  2.4643 -0.0643
   72MOL   H32023182   3.832   4.803   4.288 -0.0736  0.1743 -0.5088
   72MOL   H32123183   3.676   4.649   4.180 -2.5767 -1.2278  0.7778
   72MOL   H32223184   3.523   4.463   4.188  0.2783 -2.7899  0.6199
   73MOL     C123185   0.549   1.102   2.845  0.8602  0.1299 -0.7188
   73MOL     C223186   0.684   1.040   2.853 -0.1439  0.2446  0.6536
   73MOL     C323187   0.784   1.135   2.914 -0.2100  0.2087 -0.6671
   73MOL     C423188   0.919   1.106   2.890  0.4477 -0.0577  0.3740
   73MOL     C523189   1.017   1.161   2.974 -0.3999 -1.0467 -0.0111
   73MOL     C623190   0.976   1.260   3.070  0.2372 -0.1737  0.4097
   73MOL     C723191   0.841   1.297   3.085 -0.5147  0.1840 -0.1118
   73MOL     C823192   0.746   1.240   3.003  0.5796  0.3784 -0.4006
   73MOL     H923193   0.561   1.205   2.809  0.8091  1.0406  1.7690
   73MOL    H1023194   0.486   1.055   2.769  1.0246  0.1916 -0.8930
   73MOL    H1123195   0.708   1.026   2.748  1.8284 -0.3121  1.1531
   73MOL    H1223196   0.940   1.012   2.842 -2.1793 -0.4574 -0.0916
   73MOL    H1323197   1.115   1.116   2.977 -0.5329 -1.3975 -0.7342
   73MOL    H1423198   1.048   1.304   3.137  0.5451  0.0718 -0.0768
   73MOL    H1523199   0.812   1.370   3.159  0.0844 -1.6124  1.9651
   73MOL    H1623200   0.641   1.254   3.024  0.7061 -2.2196  2.1771
   73MOL    H1723201   0.490   1.099   2.937  0.9796  1.2784 -0.5892
   73MOL    C1823202   0.686   0.908   2.921  0.4261 -0.1288  0.4167
   73MOL    C1923203   0.613   0.801   2.844 -0.3918 -0.5173 -0.9072
   73MOL    C2023204   0.694   0.751   2.730  0.2146 -0.5630 -0.1990
   73MOL    C2123205   0.780   0.638   2.740 -0.4385 -0.0820 -0.6792
   73MOL    C2223206   0.847   0.583   2.627  0.0239 -0.4124 -0.8173
   73MOL    C2323207   0.854   0.655   2.509  0.0717 -0.1921  0.5000
   73MOL    C2423208   0.769   0.763   2.496  0.1753  0.2554  0.0658
   73MOL    C2523209   0.688   0.813   2.604 -0.3946 -0.2376 -0.2581
   73MOL    H2623210   0.641   0.932   3.018  0.6691 -0.1246  0.5288
   73MOL    H2723211   0.789   0.877   2.937  0.6416  1.5091  2.3757
   73MOL    H2823212   0.525   0.844   2.796 -0.0692 -0.8158 -1.7716
   73MOL    H2923213   0.790   0.584   2.833  0.4111  1.3580  0.0828
   73MOL    H3023214   0.897   0.488   2.638  0.8267  0.2988  1.9127
   73MOL    H3123215   0.902   0.620   2.420 -1.2282 -0.9710  0.0919
   73MOL    H3223216   0.763   0.817   2.402  0.3841 -1.0856 -0.7272
   73MOL    H3323217   0.624   0.898   2.588 -1.0868 -0.6403  0.3203
   73MOL    C3423218   0.564   0.694   2.937 -0.2509  0.2516  0.8828
   73MOL    C3523219   0.469   0.589   2.881 -0.1252 -0.0520  0.0996
   73MOL    C3623220   0.512   0.450   2.922  0.2262 -0.5653  0.3048
   73MOL    C3723221   0.562   0.356   2.829 -0.7385 -0.4440 -0.8140
   73MOL    C3823222   0.611   0.236   2.870  0.1587 -0.0525 -0.2008
   73MOL    C3923223   0.603   0.194   3.002  0.2957 -0.4146  0.1528
   73MOL    C4023224   0.556   0.291   3.098  0.2242  0.1178  0.1525
   73MOL    C4123225   0.501   0.410   3.056 -0.6222 -0.5150 -0.6347
   73MOL    H4223226   0.528   0.741   3.029 -0.7973  0.1885  0.6995
   73MOL    H4323227   0.648   0.641   2.982  1.1604  2.0429  0.4077
   73MOL    H4423228   0.467   0.596   2.772  0.5866  0.5224  0.1158
   73MOL    H4523229   0.576   0.386   2.726  2.1496  0.7849 -0.1241
   73MOL    H4623230   0.650   0.166   2.798  0.8554 -0.1619  0.2860
   73MOL    H4723231   0.660   0.108   3.033  0.7941  0.8785  3.0466
   73MOL    H4823232   0.551   0.263   3.203 -1.9629  0.8864  0.2805
   73MOL    H4923233   0.476   0.478   3.136  1.5062  0.7655 -1.0324
   73MOL    C5023234   0.321   0.599   2.931 -0.2271 -0.1920 -0.6463
   73MOL    C5123235   0.241   0.726   2.888  0.3070  0.0298  0.5238
   73MOL    C5223236   0.223   0.750   2.737 -0.1402  0.1347  0.3599
   73MOL    C5323237   0.197   0.642   2.645 -0.5245 -0.0189 -0.4441
   73MOL    C5423238   0.203   0.668   2.503 -0.0442  0.1473  0.0826
   73MOL    C5523239   0.214   0.799   2.460  0.4017 -0.2679  0.4613
   73MOL    C5623240   0.253   0.905   2.550 -0.5887  0.1524  0.3881
   73MOL    C5723241   0.255   0.874   2.682 -0.3008  0.3739 -0.1267
   73MOL    H5823242   0.326   0.613   3.039 -0.9092  0.0187 -0.6454
   73MOL    H5923243   0.265   0.509   2.909  0.0033  0.0297 -2.1871
   73MOL    H6023244   0.303   0.805   2.929 -1.4510  0.8902  1.5934
   73MOL    H6123245   0.190   0.538   2.673 -0.2478  0.1085  0.1042
   73MOL    H6223246   0.181   0.592   2.430 -0.8910 -0.8807  1.3871
   73MOL    H6323247   0.212   0.816   2.354 -1.9830  2.6577  0.9119
   73MOL    H6423248   0.276   1.004   2.513  0.7586 -0.1735  0.3068
   73MOL    H6523249   0.274   0.952   2.754  1.0253 -0.8222  0.8651
   73MOL    C6623250   0.099   0.724   2.956  0.0858  0.1997 -0.4339
   73MOL    C6723251   0.011   0.849   2.922  0.2098 -0.8581  0.2762
   73MOL    C6823252   7.974   0.824   2.935  0.2734  0.0619 -0.0896
   73MOL    C6923253   7.898   0.806   2.819  1.3068 -0.2798  0.0734
   73MOL    C7023254   7.757   0.785   2.820  0.4358  0.0768 -0.1295
   73MOL    C7123255   7.691   0.765   2.943 -0.7729  0.1416 -0.2355
   73MOL    C7223256   7.767   0.784   3.060  0.1112  0.4588 -1.0281
   73MOL    C7323257   7.907   0.822   3.060  0.3138 -0.8739 -0.1459
   73MOL    H7423258   0.100   0.707   3.063 -2.0973 -0.8375 -0.5601
   73MOL    H7523259   0.049   0.633   2.924  0.8539 -0.2679 -0.2958
   73MOL    H7623260   0.027   0.880   2.819  0.8529  0.8161  0.8633
   73MOL    H7723261   7.948   0.814   2.723  0.7550 -0.4950 -0.2315
   73MOL    H7823262   7.701   0.785   2.727 -0.0100  2.0642  0.1189
   73MOL    H7923263   7.591   0.724   2.950 -0.5055 -0.6252 -0.7952
   73MOL    H8023264   7.723   0.780   3.159 -1.7615 -0.3467 -1.8706
   73MOL    H8123265   7.966   0.831   3.150  1.3199 -0.7376 -0.8141
   73MOL    C8223266   0.058   0.976   3.006 -0.1228  0.5023  0.1864
   73MOL    C8323267   0.014   1.120   2.957 -0.7669 -0.2106  0.1420
   73MOL    C8423268   0.077   1.156   2.826 -0.0909 -0.4680  0.4347
   73MOL    C8523269   0.005   1.137   2.702  0.2912 -0.0401 -0.2289
   73MOL    C8623270   0.067   1.191   2.587 -0.7702  0.2765  0.8229
   73MOL    C8723271   0.190   1.265   2.588  0.8414  0.0142 -0.2324
   73MOL    C8823272   0.254   1.282   2.713  0.3679  0.3641  0.2033
   73MOL    C8923273   0.202   1.220   2.831  0.3667 -0.6153  0.6678
   73MOL    H9023274   0.167   0.971   3.006 -0.2017 -3.0801 -1.0667
   73MOL    H9123275   0.030   0.956   3.110  0.9699 -0.5629  0.2861
   73MOL    H9223276   0.062   1.180   3.034  0.0875 -0.7641  0.0464
   73MOL    H9323277   8.025   1.086   2.699  0.6068 -0.5915 -0.7748
   73MOL    H9423278   0.027   1.160   2.491  1.5213 -0.4335  0.0844
   73MOL    H9523279   0.234   1.304   2.498 -0.7221 -0.7892 -1.3767
   73MOL    H9623280   0.350   1.332   2.718  0.8320 -0.4277 -0.7541
   73MOL    H9723281   0.256   1.234   2.924  1.6229 -0.5922 -0.0539
   73MOL    C9823282   7.977   1.146   2.978  0.5416 -1.0738 -0.2687
   73MOL    C9923283   7.933   1.286   2.968  0.1726 -0.8829  0.6996
   73MOL   C10023284   7.919   1.354   2.829 -0.4386  0.1360 -0.0722
   73MOL   C10123285   7.833   1.297   2.733  1.0621  0.5412 -0.1648
   73MOL   C10223286   7.814   1.359   2.611 -0.3108  0.0770 -0.0299
   73MOL   C10323287   7.870   1.485   2.588 -0.2192 -0.2124 -0.1111
   73MOL   C10423288   7.947   1.553   2.679  0.0255 -0.4598 -0.6308
   73MOL   C10523289   7.979   1.480   2.798 -0.4877  0.5014  0.8004
   73MOL   H10623290   7.957   1.104   3.076  0.1712 -2.0221 -0.7401
   73MOL   H10723291   7.909   1.095   2.909 -1.3845 -1.3900  1.8171
   73MOL   H10823292   8.011   1.346   3.015  1.1572 -0.9102 -0.8542
   73MOL   H10923293   7.803   1.194   2.748  0.1892  0.9755  1.1640
   73MOL   H11023294   7.755   1.316   2.532  1.3934 -0.2208 -1.1602
   73MOL   H11123295   7.849   1.550   2.504 -0.1679  2.1350  1.6601
   73MOL   H11223296   7.986   1.653   2.667 -1.5557  0.4467  1.5568
   73MOL   H11323297   8.050   1.530   2.861 -0.5138  0.0044  1.2303
   73MOL   C11423298   7.792   1.306   3.037  0.0063  0.3670 -0.6297
   73MOL   C11523299   7.771   1.269   3.187  0.2826 -0.1556  0.9025
   73MOL   C11623300   7.890   1.315   3.268  0.3477  0.0618 -0.0778
   73MOL   C11723301   7.933   1.452   3.264 -0.1251  0.6756  0.4219
   73MOL   C11823302   8.054   1.485   3.332  0.5994 -0.3784 -0.3099
   73MOL   C11923303   0.022   1.392   3.395 -0.4423  0.2286  0.2735
   73MOL   C12023304   8.093   1.257   3.393  0.0794 -0.2599 -0.0937
   73MOL   C12123305   7.974   1.220   3.333  0.1636 -0.8867  0.3642
   73MOL   H12223306   7.719   1.251   2.977  0.5890 -1.7448  0.5809
   73MOL   H12323307   7.775   1.414   3.038  0.5470  0.4577  2.9584
   73MOL   H12423308   7.773   1.160   3.197  1.2027 -0.5214 -2.3670
   73MOL   H12523309   7.871   1.525   3.214 -1.8364 -0.9628  0.0805
   73MOL   H12623310   8.092   1.586   3.330  0.0896 -0.2055 -1.7995
   73MOL   H12723311   0.111   1.425   3.446  0.6563 -0.4478 -1.1733
   73MOL   H12823312   0.048   1.181   3.426 -0.3986 -0.7741 -0.2581
   73MOL   H12923313   7.942   1.118   3.319 -0.1681 -0.5874 -1.0365
   73MOL   C13023314   7.641   1.333   3.236 -0.3175  0.3036  0.0219
   73MOL   C13123315   7.514   1.252   3.197 -0.3181  0.5192  0.2565
   73MOL   C13223316   7.513   1.115   3.264 -0.3430 -0.0090  0.0104
   73MOL   C13323317   7.524   1.117   3.404  0.1643  0.0770  0.0848
   73MOL   C13423318   7.510   0.993   3.476 -0.1127  0.7090 -0.4621
   73MOL   C13523319   7.483   0.873   3.402  0.3947 -0.5898 -0.0476
   73MOL   C13623320   7.468   0.874   3.258 -0.0879  0.4144  0.9250
   73MOL   C13723321   7.482   0.996   3.191  0.5701 -0.0379 -0.6309
   73MOL   H13823322   7.629   1.433   3.193 -0.9410  1.0396  1.8606
   73MOL   H13923323   7.646   1.347   3.344 -0.1439 -0.5251  0.1215
   73MOL   H14023324   7.506   1.237   3.089  0.1374 -2.6516  0.6234
   73MOL   H14123325   7.525   1.210   3.459 -2.6237 -1.2216  2.4004
   73MOL   H14223326   7.519   1.003   3.583  0.4266 -0.2378 -0.4174
   73MOL   H14323327   7.473   0.779   3.454 -2.3345  0.5732  1.6486
   73MOL   H14423328   7.437   0.784   3.207  1.9685  0.3619 -0.2561
   73MOL   H14523329   7.460   0.998   3.085  0.9309  0.0987 -0.7055
   73MOL   C14623330   7.391   1.327   3.248 -1.3386  0.5138 -0.4035
   73MOL   C14723331   7.317   1.419   3.150 -0.0839  0.0240 -0.3875
   73MOL   C14823332   7.215   1.497   3.223 -0.1472 -0.0636 -0.7875
   73MOL   C14923333   7.074   1.465   3.209  0.5666 -0.6669 -0.2227
   73MOL   C15023334   6.977   1.557   3.255  0.7994 -0.3633  0.1956
   73MOL   C15123335   7.022   1.672   3.326 -0.0643  0.3664 -0.3476
   73MOL   C15223336   7.159   1.695   3.350  0.3911  0.2685  0.9538
   73MOL   C15323337   7.255   1.606   3.300  0.3995 -0.1659  0.9040
   73MOL   H15423338   7.421   1.379   3.339 -2.1221 -0.0121  0.1627
   73MOL   H15523339   7.328   1.249   3.291  1.0215 -0.3305  1.6506
   73MOL   H15623340   7.252   1.358   3.087  0.7782  0.7610 -2.0434
   73MOL   H15723341   7.037   1.382   3.151 -0.4871 -1.7428  1.9332
   73MOL   H15823342   6.870   1.539   3.248  0.6827  0.8506 -1.3004
   73MOL   H15923343   6.953   1.746   3.363  0.0179  0.8479 -1.1342
   73MOL   H16023344   7.190   1.786   3.399  1.3900 -0.1051  1.0345
   73MOL   H16123345   7.358   1.639   3.301 -0.2077  2.0733 -1.8290
   73MOL   C16223346   7.410   1.514   3.070 -0.3880  0.0957 -0.0241
   73MOL   C16323347   7.343   1.608   2.977  0.1141 -0.3102  0.3825
   73MOL   C16423348   7.444   1.724   2.942  0.2152 -0.0615 -0.8608
   73MOL   C16523349   7.402   1.860   2.957  0.1962 -0.6324  0.3573
   73MOL   C16623350   7.488   1.959   2.914 -0.3483 -0.5027 -0.1087
   73MOL   C16723351   7.620   1.931   2.870  0.0536 -0.2985 -0.0361
   73MOL   C16823352   7.654   1.797   2.854 -0.5180  0.5131  0.8652
   73MOL   C16923353   7.572   1.694   2.897  0.3335 -0.1851 -0.1065
   73MOL   H17023354   7.489   1.456   3.023  0.0021  0.6629 -0.0718
   73MOL   H17123355   7.465   1.572   3.144 -0.3144 -0.1627  0.1220
   73MOL   H17223356   7.261   1.660   3.026  0.8155  1.2049 -0.0015
   73MOL   H17323357   7.301   1.891   2.979 -0.1831 -2.7089  1.7404
   73MOL   H17423358   7.459   2.063   2.907 -2.7160 -1.0122  1.7390
   73MOL   H17523359   7.690   2.010   2.848  0.5261 -0.7188 -0.0544
   73MOL   H17623360   7.757   1.779   2.826 -0.1060  1.2113  1.9048
   73MOL   H17723361   7.620   1.597   2.897  1.4493  0.3360 -2.5270
   73MOL   C17823362   7.288   1.536   2.852 -0.1582 -0.0557  0.6402
   73MOL   C17923363   7.205   1.625   2.754  0.9033  0.0891 -0.1717
   73MOL   C18023364   7.269   1.628   2.615  0.3826  0.2350  0.6592
   73MOL   C18123365   7.249   1.513   2.526 -0.4295 -0.6257 -0.0282
   73MOL   C18223366   7.311   1.514   2.401  0.7204  0.0454 -0.0725
   73MOL   C18323367   7.383   1.627   2.351  0.2820 -0.7540 -0.1800
   73MOL   C18423368   7.389   1.738   2.433  0.3007  0.6438  0.0512
   73MOL   C18523369   7.332   1.741   2.562  0.4404  0.6690  0.3115
   73MOL   H18623370   7.230   1.447   2.876  0.6884 -1.0061 -0.7550
   73MOL   H18723371   7.367   1.491   2.792 -0.9470 -2.2642  1.2055
   73MOL   H18823372   7.223   1.726   2.790  0.4200  0.4495 -0.9369
   73MOL   H18923373   7.190   1.425   2.546  1.2820 -1.2698  2.4076
   73MOL   H19023374   7.305   1.426   2.338 -0.0824  1.3127 -1.8265
   73MOL   H19123375   7.428   1.620   2.253  2.0735  0.1557  0.5506
   73MOL   H19223376   7.454   1.821   2.411  1.3021 -0.0616  0.3251
   73MOL   H19323377   7.321   1.835   2.614 -0.9327  0.7068 -0.0381
   73MOL   C19423378   7.047   1.605   2.754  0.4596 -0.2781  0.1324
   73MOL   C19523379   6.963   1.698   2.664 -0.1906  0.3802 -0.3323
   73MOL   C19623380   6.819   1.643   2.654  0.0781  0.5739 -0.8576
   73MOL   C19723381   6.717   1.678   2.743 -0.5263  0.7168 -0.6553
   73MOL   C19823382   6.598   1.602   2.744 -0.0881  1.2203  0.4485
   73MOL   C19923383   6.574   1.503   2.645 -0.2907 -0.8875  0.3124
   73MOL   C20023384   6.673   1.477   2.553  0.3796 -0.3901 -0.2021
   73MOL   C20123385   6.793   1.546   2.553  0.3833  0.0582  1.4060
   73MOL   H20223386   7.017   1.624   2.857 -2.0914  0.7808 -0.7635
   73MOL   H20323387   7.042   1.498   2.735 -0.0261  0.4569 -4.3773
   73MOL   H20423388   6.995   1.688   2.560  3.1356  0.2828  0.6294
   73MOL   H20523389   6.729   1.755   2.818 -1.9839  0.5430 -0.2156
   73MOL   H20623390   6.524   1.615   2.822  1.0230  0.7890  1.5800
   73MOL   H20723391   6.479   1.451   2.640  0.4890 -2.4067  1.0018
   73MOL   H20823392   6.659   1.399   2.480 -0.0974  0.0630 -0.5949
   73MOL   H20923393   6.873   1.527   2.483 -0.6622  1.5836 -0.2392
   73MOL   C21023394   6.969   1.845   2.708  0.4791  0.2437 -0.6806
   73MOL   C21123395   6.889   1.938   2.629 -0.2422  0.0173  0.2544
   73MOL   C21223396   6.891   2.072   2.703  0.4026 -0.6851 -0.0700
   73MOL   C21323397   6.764   2.133   2.730  0.1609 -0.1537  0.6608
   73MOL   C21423398   6.753   2.248   2.808 -0.0810 -0.1600 -0.2350
   73MOL   C21523399   6.877   2.308   2.844  0.0739 -0.5302  0.7628
   73MOL   C21623400   7.002   2.248   2.818 -0.0195  0.5091  0.4205
   73MOL   C21723401   7.016   2.129   2.745 -0.3039 -0.3827 -0.1804
   73MOL   H21823402   7.076   1.863   2.697  0.9141 -1.3365  0.7212
   73MOL   H21923403   6.939   1.849   2.812 -0.7846  2.1043 -1.0901
   73MOL   H22023404   6.789   1.897   2.644 -0.1847 -0.4400 -0.6096
   73MOL   H22123405   6.679   2.087   2.681  0.2235 -1.0821  1.4012
   73MOL   H22223406   6.661   2.295   2.841  0.8138  0.7622  1.0027
   73MOL   H22323407   6.868   2.398   2.904 -3.0572  0.7364 -1.4649
   73MOL   H22423408   7.086   2.297   2.866 -1.1470  2.0607  0.8684
   73MOL   H22523409   7.109   2.074   2.750  0.7346  1.3633  0.4898
   73MOL   C22623410   6.932   1.954   2.484  0.0847 -0.2956 -0.1290
   73MOL   C22723411   6.829   1.877   2.393  0.6459  0.4770  0.2350
   73MOL   C22823412   6.687   1.926   2.405 -0.0436  0.7634 -0.5838
   73MOL   C22923413   6.655   2.059   2.380 -0.1943 -0.7497  0.9099
   73MOL   C23023414   6.524   2.101   2.407  0.7932 -0.4089  0.8898
   73MOL   C23123415   6.421   2.015   2.439 -0.4430  0.1349 -0.3525
   73MOL   C23223416   6.454   1.879   2.465 -0.1986 -0.6330  0.0485
   73MOL   C23323417   6.586   1.833   2.443 -0.0279  0.0569 -0.5047
   73MOL   H23423418   7.035   1.919   2.472  0.4231  0.1008  1.5361
   73MOL   H23523419   6.937   2.058   2.451 -1.1869 -0.0237  0.5330
   73MOL   H23623420   6.821   1.780   2.443 -0.9023  0.5192  0.0917
   73MOL   H23723421   6.728   2.136   2.361 -0.7228 -1.0720 -2.9435
   73MOL   H23823422   6.500   2.206   2.401  2.0441 -0.0306  2.3466
   73MOL   H23923423   6.319   2.052   2.448 -0.9010 -0.9991 -0.7651
   73MOL   H24023424   6.379   1.807   2.492 -0.1576 -0.2607  1.1584
   73MOL   H24123425   6.605   1.730   2.469  1.4720  0.5740  0.5344
   73MOL   C24223426   6.882   1.865   2.247  0.4286 -0.8648 -0.0391
   73MOL   C24323427   6.970   1.739   2.222  0.1622 -0.5785 -0.1320
   73MOL   C24423428   6.889   1.608   2.185 -0.3773  0.2474 -0.2782
   73MOL   C24523429   6.926   1.483   2.236 -0.2957 -0.4099  0.1209
   73MOL   C24623430   6.857   1.370   2.203  0.4680  0.3160 -0.2705
   73MOL   C24723431   6.744   1.372   2.120  0.0039  0.0662 -0.8196
   73MOL   C24823432   6.714   1.494   2.053 -0.1316 -0.6572  0.4772
   73MOL   C24923433   6.777   1.609   2.098 -0.8913  0.3404 -0.6443
   73MOL   H25023434   6.944   1.954   2.232  3.2929 -2.6120  0.9616
   73MOL   H25123435   6.804   1.875   2.172  0.1401 -2.0333  0.0996
   73MOL   H25223436   7.033   1.731   2.311 -1.1987 -0.4604  0.8497
   73MOL   H25323437   7.007   1.481   2.306 -1.0361  3.8000  1.2631
   73MOL   H25423438   6.897   1.277   2.242  1.0269  1.0118  0.8411
   73MOL   H25523439   6.687   1.281   2.107  0.9129 -1.0117  2.3063
   73MOL   H25623440   6.635   1.513   1.981  0.7690  1.3915  0.0118
   73MOL   H25723441   6.755   1.706   2.057 -1.4281  0.5691  0.2011
   73MOL   C25823442   7.082   1.766   2.128  0.0426  0.7422 -0.1355
   73MOL   C25923443   7.046   1.771   1.978 -0.6659  0.4437  0.2331
   73MOL   C26023444   7.084   1.916   1.930  0.1827  0.6194 -0.5490
   73MOL   C26123445   6.984   2.016   1.924 -0.0480  0.0516 -0.0807
   73MOL   C26223446   7.012   2.148   1.875 -0.2077  0.0270  0.7530
   73MOL   C26323447   7.142   2.172   1.838  0.7119  0.7231  0.1794
   73MOL   C26423448   7.242   2.072   1.842 -0.0977  0.7707 -0.5823
   73MOL   C26523449   7.214   1.942   1.887  1.1418  0.4750  0.3866
   73MOL   H26623450   7.159   1.688   2.137 -0.8048  0.0149  0.9847
   73MOL   H26723451   7.137   1.851   2.168  0.1024  0.0017  1.4106
   73MOL   H26823452   6.939   1.758   1.964 -0.4299 -0.7679 -0.5197
   73MOL   H26923453   6.886   1.997   1.964  0.0473  3.2635  1.8646
   73MOL   H27023454   6.948   2.234   1.872  0.5760  0.6628  1.7914
   73MOL   H27123455   7.171   2.266   1.792  1.6754  0.1525 -0.3944
   73MOL   H27223456   7.345   2.086   1.812  0.2624 -0.2196  0.1825
   73MOL   H27323457   7.291   1.867   1.885  1.0539  0.3887  0.1576
   73MOL   C27423458   7.114   1.661   1.898  0.0135  0.7537  0.1392
   73MOL   C27523459   7.089   1.646   1.748  0.0915 -0.1371 -0.5566
   73MOL   C27623460   7.214   1.586   1.684  0.0061  0.3402  0.5242
   73MOL   C27723461   7.248   1.454   1.698  0.2025 -0.4684 -0.3241
   73MOL   C27823462   7.362   1.401   1.633 -0.0025  0.0189 -0.4313
   73MOL   C27923463   7.441   1.481   1.554  0.4897  0.2131  0.4120
   73MOL   C28023464   7.412   1.617   1.546 -0.4106  0.6265  0.3860
   73MOL   C28123465   7.298   1.667   1.601  0.3436  0.6400 -0.2973
   73MOL   H28223466   7.096   1.564   1.944  1.0285  0.9585  0.9923
   73MOL   H28323467   7.222   1.669   1.911  0.1569  0.2479 -0.7364
   73MOL   H28423468   7.085   1.747   1.708  2.8729  2.3510  4.9311
   73MOL   H28523469   7.170   1.390   1.738 -1.5227  0.1053 -2.6488
   73MOL   H28623470   7.398   1.299   1.635  1.9842  0.7242  1.5928
   73MOL   H28723471   7.531   1.446   1.504 -0.7959 -0.8246 -1.2500
   73MOL   H28823472   7.474   1.677   1.481 -0.3714  0.4425  0.2487
   73MOL   H28923473   7.275   1.770   1.581  0.9671  0.2510 -3.2752
   73MOL   C29023474   6.962   1.559   1.714 -0.4491 -0.4432  0.2547
   73MOL   C29123475   6.833   1.637   1.705  0.2599  0.2707  0.0815
   73MOL   C29223476   6.844   1.756   1.618  0.4250  0.3298 -0.1612
   73MOL   C29323477   6.792   1.880   1.671 -0.4233 -0.9222 -0.1491
   73MOL   C29423478   6.792   1.997   1.589  0.5936 -0.0756 -0.4367
   73MOL   C29523479   6.852   1.991   1.461  0.4617  0.8462  0.1284
   73MOL   C29623480   6.912   1.869   1.416 -0.0394 -0.5265  0.2987
   73MOL   C29723481   6.897   1.745   1.487 -0.1954 -0.2432  0.3897
   73MOL   H29823482   6.961   1.467   1.773  0.3563  0.4305  1.6862
   73MOL   H29923483   6.977   1.522   1.613  3.1879  2.1789 -0.2546
   73MOL   H30023484   6.818   1.668   1.808  3.0553 -2.4416  1.3961
   73MOL   H30123485   6.751   1.891   1.770  0.3524  1.1294 -0.0353
   73MOL   H30223486   6.756   2.092   1.626 -2.2019 -1.3947  0.3656
   73MOL   H30323487   6.865   2.084   1.408 -0.6279  1.2842  0.6267
   73MOL   H30423488   6.959   1.867   1.319 -2.6955 -1.3489 -1.0066
   73MOL   H30523489   6.942   1.654   1.451 -0.1165 -0.8787  2.0260
   73MOL   C30623490   6.718   1.544   1.654  0.2980 -0.7773 -0.1405
   73MOL   C30723491   6.575   1.610   1.649 -0.0853  0.7859 -0.2230
   73MOL   C30823492   6.457   1.515   1.641 -0.2225  0.6010  0.7613
   73MOL   C30923493   6.364   1.529   1.534  0.1617  0.3660 -0.1376
   73MOL   C31023494   6.258   1.432   1.526 -0.2960  0.2611  0.2176
   73MOL   C31123495   6.244   1.332   1.628  0.4535  0.2784  0.6248
   73MOL   C31223496   6.334   1.322   1.730 -0.1949  0.2138 -0.0496
   73MOL   C31323497   6.445   1.411   1.733  0.1464 -0.4424 -1.1177
   73MOL   H31423498   6.701   1.466   1.729  1.0383 -1.2557 -0.4592
   73MOL   H31523499   6.739   1.493   1.560 -1.2939 -3.0389  0.6876
   73MOL   H31623500   6.583   1.684   1.569  1.0091  1.7182  0.7430
   73MOL   H31723501   6.371   1.615   1.468  1.3690 -0.6722 -1.3955
   73MOL   H31823502   6.180   1.432   1.452 -0.0969 -4.3117 -0.1140
   73MOL   H31923503   6.158   1.267   1.617  0.2789  1.0828 -3.2133
   73MOL   H32023504   6.326   1.237   1.797  1.7720  0.5789  0.6760
   73MOL   H32123505   6.512   1.392   1.815 -0.7365  1.0408 -0.0021
   73MOL   H32223506   6.562   1.668   1.740  2.0853 -1.9984  1.9604
   74MOL     C123507   0.899   6.270   6.404  0.5123  0.2170 -0.1008
   74MOL     C223508   0.751   6.273   6.369 -0.0336  0.5602  0.0745
   74MOL     C323509   0.669   6.190   6.473 -0.6398 -0.1145 -0.4222
   74MOL     C423510   0.648   6.049   6.449  0.1145 -0.1004  0.1403
   74MOL     C523511   0.574   5.972   6.546 -0.0554  0.0967  0.4040
   74MOL     C623512   0.535   6.033   6.665 -0.4609  0.0414 -0.7178
   74MOL     C723513   0.564   6.168   6.689  0.4569 -0.0735 -0.0987
   74MOL     C823514   0.632   6.245   6.595 -0.3956 -0.2748 -0.7973
   74MOL     H923515   0.925   6.328   6.492  1.8294  2.1391 -1.7162
   74MOL    H1023516   0.931   6.167   6.424  0.6641  0.2697 -0.0724
   74MOL    H1123517   0.738   6.216   6.277 -2.6307  1.2800 -0.0616
   74MOL    H1223518   0.656   5.997   6.355  1.8042  0.0059  0.2139
   74MOL    H1323519   0.541   5.870   6.533 -0.5142  0.3020 -0.0860
   74MOL    H1423520   0.473   5.979   6.735 -0.8459  2.7657  1.1314
   74MOL    H1523521   0.535   6.206   6.786 -1.8731  0.2695 -0.8834
   74MOL    H1623522   0.668   6.345   6.615  0.3646 -0.4801 -1.1251
   74MOL    H1723523   0.961   6.311   6.325  0.3623 -1.7544 -1.2981
   74MOL    C1823524   0.705   6.415   6.339  0.3218 -0.0102  0.3890
   74MOL    C1923525   0.555   6.440   6.306  0.4700 -0.3683  0.4624
   74MOL    C2023526   0.506   6.586   6.320  0.2830  0.6110  0.6113
   74MOL    C2123527   0.466   6.661   6.208 -1.2618  0.4018  0.1199
   74MOL    C2223528   0.459   6.804   6.225 -0.1604 -0.0819  0.0510
   74MOL    C2323529   0.464   6.862   6.352 -0.3496 -1.0352 -0.3861
   74MOL    C2423530   0.495   6.786   6.461  0.0222  0.6188  0.2435
   74MOL    C2523531   0.518   6.645   6.443 -0.4192 -0.1672 -0.1560
   74MOL    H2623532   0.770   6.461   6.265 -0.4775 -0.9770 -0.9201
   74MOL    H2723533   0.728   6.467   6.432  2.7899  1.4447 -0.9839
   74MOL    H2823534   0.506   6.392   6.391 -0.2623  0.4278  0.5011
   74MOL    H2923535   0.455   6.616   6.111  0.2784 -0.0396  0.1397
   74MOL    H3023536   0.435   6.859   6.135  0.7841 -0.0503 -0.1888
   74MOL    H3123537   0.446   6.968   6.361  1.5427 -0.7444  0.1414
   74MOL    H3223538   0.511   6.829   6.559 -0.7258 -1.6895  1.4372
   74MOL    H3323539   0.555   6.584   6.524 -0.4022 -0.4574 -0.3835
   74MOL    C3423540   0.513   6.372   6.181 -0.7214  0.3652 -0.2574
   74MOL    C3523541   0.362   6.368   6.149 -0.5529 -0.1838  0.2507
   74MOL    C3623542   0.328   6.383   6.001 -0.7159  0.2470  0.2618
   74MOL    C3723543   0.241   6.484   5.963  0.2640  0.4558 -0.4605
   74MOL    C3823544   0.228   6.518   5.826 -0.2704  0.1017 -0.7806
   74MOL    C3923545   0.300   6.448   5.731 -0.3077  0.6594 -0.0146
   74MOL    C4023546   0.390   6.341   5.766  0.3325  0.1132  0.1399
   74MOL    C4123547   0.400   6.306   5.903  0.3391 -0.2362 -0.3784
   74MOL    H4223548   0.557   6.272   6.191 -2.5577 -0.3431  1.1282
   74MOL    H4323549   0.567   6.433   6.109  0.9409 -0.9080 -0.1191
   74MOL    H4423550   0.322   6.460   6.190  0.9502  1.4232 -1.7887
   74MOL    H4523551   0.199   6.546   6.041  0.3637  0.4928 -0.4352
   74MOL    H4623552   0.160   6.599   5.803 -3.9897 -1.4957  3.7680
   74MOL    H4723553   0.300   6.479   5.628  0.4984 -1.7339 -0.7703
   74MOL    H4823554   0.453   6.298   5.690 -1.7960 -0.9444 -1.0719
   74MOL    H4923555   0.478   6.233   5.924  0.8244  0.0588 -1.1393
   74MOL    C5023556   0.293   6.243   6.204  0.9279 -0.6877 -0.5062
   74MOL    C5123557   0.181   6.272   6.308  0.4662  0.6665 -0.4024
   74MOL    C5223558   0.084   6.152   6.330 -0.1128 -0.5813  0.3413
   74MOL    C5323559   0.133   6.026   6.372  0.0775 -0.0016  0.1715
   74MOL    C5423560   0.036   5.929   6.398 -0.1075 -0.0431 -0.0069
   74MOL    C5523561   8.014   5.947   6.378 -0.4406  0.2513  0.8004
   74MOL    C5623562   7.969   6.070   6.330  0.4011  0.2270 -0.0114
   74MOL    C5723563   8.064   6.177   6.313 -0.1301 -0.2548 -0.2563
   74MOL    H5823564   0.354   6.159   6.239  1.1808 -0.2202  0.1874
   74MOL    H5923565   0.245   6.197   6.118  1.1049 -2.3785  0.2612
   74MOL    H6023566   0.112   6.346   6.267  1.2338  2.1710  0.9572
   74MOL    H6123567   0.240   6.017   6.389  0.5287  0.1551 -2.4157
   74MOL    H6223568   0.059   5.832   6.439 -0.6915 -0.0898  0.2214
   74MOL    H6323569   7.931   5.879   6.390 -0.8949  0.9632  1.7641
   74MOL    H6423570   7.868   6.104   6.311  0.1641 -0.1382  0.5748
   74MOL    H6523571   8.031   6.277   6.289  2.0243  1.2479  2.6478
   74MOL    C6623572   0.240   6.326   6.443  0.1056  0.6909  1.2863
   74MOL    C6723573   0.146   6.337   6.568  0.4305 -0.5186 -0.3986
   74MOL    C6823574   0.226   6.357   6.702 -0.2302 -0.3081  0.7705
   74MOL    C6923575   0.314   6.466   6.714 -0.2984  0.3098  0.1172
   74MOL    C7023576   0.387   6.487   6.836  0.6279 -0.9794 -0.0575
   74MOL    C7123577   0.384   6.387   6.936 -0.2945 -0.3611 -0.3314
   74MOL    C7223578   0.284   6.287   6.932 -1.2948  0.4115  1.0891
   74MOL    C7323579   0.209   6.267   6.812 -0.6180  0.4460  0.0999
   74MOL    H7423580   0.278   6.426   6.423  0.5280 -0.1104 -2.2068
   74MOL    H7523581   0.323   6.263   6.476 -0.4970 -0.8259 -0.0130
   74MOL    H7623582   0.107   6.235   6.572 -1.8545  0.2608 -1.6687
   74MOL    H7723583   0.324   6.544   6.639 -0.6645 -1.3335 -1.6774
   74MOL    H7823584   0.455   6.569   6.853  0.3739 -1.3074  2.7489
   74MOL    H7923585   0.453   6.400   7.018 -0.4264 -1.9614  0.0545
   74MOL    H8023586   0.275   6.225   7.020  0.9544 -1.3114  0.1557
   74MOL    H8123587   0.142   6.183   6.802 -1.4388  1.2648 -1.4441
   74MOL    C8223588   0.028   6.440   6.556  0.4141 -0.0565  0.7337
   74MOL    C8323589   8.025   6.442   6.659  0.2510 -0.1476  0.0614
   74MOL    C8423590   7.975   6.587   6.678 -0.2749 -0.6704 -0.3454
   74MOL    C8523591   7.997   6.645   6.803  0.5685 -0.9537 -0.4107
   74MOL    C8623592   7.938   6.774   6.832  0.1928  1.0732  0.1146
   74MOL    C8723593   7.866   6.843   6.734  0.4280 -0.7310 -0.2399
   74MOL    C8823594   7.849   6.778   6.616  0.0479 -0.7214  0.0778
   74MOL    C8923595   7.904   6.653   6.584 -0.2157  0.2256 -0.5293
   74MOL    H9023596   0.004   6.443   6.450  1.2013  0.3356  0.5577
   74MOL    H9123597   0.081   6.536   6.558  0.3341  0.0096 -0.1652
   74MOL    H9223598   8.070   6.396   6.747  0.3308 -0.6836 -0.2537
   74MOL    H9323599   8.072   6.616   6.875  2.6969 -2.1607 -3.0445
   74MOL    H9423600   7.952   6.819   6.929  0.6021  0.0187  0.5579
   74MOL    H9523601   7.819   6.935   6.764 -0.9799 -1.4104 -0.3316
   74MOL    H9623602   7.795   6.832   6.539 -0.6202  0.3025  1.2546
   74MOL    H9723603   7.887   6.612   6.485  0.6807  0.1185 -0.6418
   74MOL    C9823604   7.908   6.357   6.614 -0.3422 -0.3507  0.2051
   74MOL    C9923605   7.784   6.329   6.711 -0.1230 -0.4527 -0.1277
   74MOL   C10023606   7.678   6.241   6.641 -0.1760  0.9192 -0.2935
   74MOL   C10123607   7.713   6.112   6.583  0.5269  0.0303 -0.2537
   74MOL   C10223608   7.611   6.028   6.538  0.5753  0.1237  0.5761
   74MOL   C10323609   7.482   6.076   6.515 -0.3180  0.1293 -0.3234
   74MOL   C10423610   7.452   6.205   6.559  0.7298  0.8064 -0.3556
   74MOL   C10523611   7.544   6.279   6.632 -0.1110 -0.2866 -0.7896
   74MOL   H10623612   7.952   6.258   6.601  0.6080  0.2247 -0.9571
   74MOL   H10723613   7.882   6.390   6.514 -1.4668 -0.2240  0.5347
   74MOL   H10823614   7.734   6.425   6.717 -1.6938 -1.3346  1.1774
   74MOL   H10923615   7.811   6.068   6.590  0.8294  0.7943  0.4795
   74MOL   H11023616   7.632   5.925   6.515  2.7068  0.5537  0.5193
   74MOL   H11123617   7.414   6.004   6.473 -1.5044  1.4338 -0.6725
   74MOL   H11223618   7.352   6.242   6.547  0.7573  0.4197 -1.9001
   74MOL   H11323619   7.515   6.372   6.679  1.9208  1.6662 -3.2153
   74MOL   C11423620   7.829   6.284   6.850 -0.0382 -0.8951 -0.5380
   74MOL   C11523621   7.764   6.377   6.957  0.1133  0.2628 -0.0624
   74MOL   C11623622   7.621   6.324   6.994 -1.0349 -0.2649  0.1669
   74MOL   C11723623   7.608   6.206   7.068  0.0882  0.0697  0.8920
   74MOL   C11823624   7.480   6.178   7.116 -0.2239  0.3549 -0.0963
   74MOL   C11923625   7.367   6.250   7.074  0.2555 -0.0795  0.0024
   74MOL   C12023626   7.385   6.362   6.991  0.3918 -0.0955  0.0208
   74MOL   C12123627   7.512   6.403   6.951 -0.1726  0.4076 -0.3648
   74MOL   H12223628   7.936   6.300   6.858 -0.3721  1.0479  0.5377
   74MOL   H12323629   7.805   6.180   6.872 -1.9158 -0.3414  0.1970
   74MOL   H12423630   7.761   6.475   6.910  2.9577  1.6219  2.4147
   74MOL   H12523631   7.691   6.144   7.097  0.5046  1.0674  1.8637
   74MOL   H12623632   7.462   6.095   7.183  0.6861 -0.2408 -0.5795
   74MOL   H12723633   7.270   6.220   7.110 -0.3118 -0.4357 -1.7604
   74MOL   H12823634   7.303   6.420   6.949 -0.7581 -0.0640  2.2431
   74MOL   H12923635   7.522   6.486   6.883 -3.2616 -0.4915 -2.0047
   74MOL   C13023636   7.864   6.389   7.078  0.6102  0.3574  0.5131
   74MOL   C13123637   7.838   6.480   7.202  0.1190 -0.4244 -0.0359
   74MOL   C13223638   7.953   6.466   7.309  0.3670  0.4629  0.4126
   74MOL   C13323639   8.081   6.511   7.276  0.1308 -0.5857  0.7593
   74MOL   C13423640   0.070   6.499   7.366  0.8838 -0.0981  0.3405
   74MOL   C13523641   0.050   6.433   7.487 -0.4101 -0.4606 -0.4231
   74MOL   C13623642   8.032   6.381   7.522  0.2120  0.1801 -0.6498
   74MOL   C13723643   7.921   6.402   7.432 -0.3762 -0.4423  0.3097
   74MOL   H13823644   7.961   6.424   7.042  1.0831 -1.1978  0.2262
   74MOL   H13923645   7.883   6.292   7.123  1.7428  0.1337 -0.4259
   74MOL   H14023646   7.755   6.433   7.254  0.8534  2.3575  3.8439
   74MOL   H14123647   8.097   6.563   7.183  0.2395 -2.2161 -0.1550
   74MOL   H14223648   0.171   6.519   7.332  0.5884 -1.8093 -1.6679
   74MOL   H14323649   0.131   6.414   7.557  0.9088 -0.6963 -1.9963
   74MOL   H14423650   8.012   6.325   7.612  0.0847  1.0250 -0.1380
   74MOL   H14523651   7.824   6.361   7.452 -0.9516  0.7862  0.0669
   74MOL   C14623652   7.801   6.625   7.180  0.5243 -0.0931  0.2651
   74MOL   C14723653   7.656   6.665   7.211  0.3536 -0.8536 -0.5716
   74MOL   C14823654   7.610   6.614   7.348 -0.9594  0.0053 -0.1611
   74MOL   C14923655   7.674   6.659   7.467  0.2810 -0.1091 -0.2474
   74MOL   C15023656   7.634   6.606   7.590 -0.1372  0.2200 -0.1160
   74MOL   C15123657   7.534   6.512   7.596 -0.6732 -0.7507 -0.4062
   74MOL   C15223658   7.457   6.477   7.482 -0.5036  0.6950  0.2851
   74MOL   C15323659   7.499   6.525   7.356 -0.5184 -0.5312 -0.1354
   74MOL   H15423660   7.823   6.637   7.074 -0.8703  1.7133  0.1521
   74MOL   H15523661   7.865   6.691   7.237  1.3487 -0.0884 -0.6628
   74MOL   H15623662   7.586   6.620   7.141 -0.7083 -0.0032 -0.0770
   74MOL   H15723663   7.756   6.729   7.466 -1.1884  1.6797  1.8433
   74MOL   H15823664   7.678   6.642   7.682 -1.1131  1.2217 -0.0384
   74MOL   H15923665   7.512   6.464   7.690  0.6517  0.9505  0.7943
   74MOL   H16023666   7.376   6.408   7.497  1.1081 -0.8634  2.0777
   74MOL   H16123667   7.433   6.500   7.274 -3.2095  2.7823  0.9423
   74MOL   C16223668   7.640   6.821   7.206 -0.0605  0.5931  0.0935
   74MOL   C16323669   7.634   6.875   7.062  0.7890  0.1053 -0.4033
   74MOL   C16423670   7.518   6.820   6.973  0.1484  0.4585  0.1453
   74MOL   C16523671   7.386   6.819   7.018  0.1057 -0.2724 -0.0640
   74MOL   C16623672   7.282   6.760   6.946  0.8360 -0.1351 -0.3456
   74MOL   C16723673   7.309   6.708   6.816  0.4954 -0.2656  0.1053
   74MOL   C16823674   7.438   6.715   6.762 -0.0432 -0.1283 -0.0533
   74MOL   C16923675   7.541   6.772   6.836  0.3734 -0.1844 -0.2114
   74MOL   H17023676   7.728   6.861   7.256  1.2116 -2.6683  0.6344
   74MOL   H17123677   7.558   6.853   7.270 -0.8030 -1.6852  0.3262
   74MOL   H17223678   7.722   6.846   7.005  1.0508 -0.7271  0.4045
   74MOL   H17323679   7.364   6.857   7.116 -1.9908  1.2036 -1.0821
   74MOL   H17423680   7.184   6.755   6.991  1.5341 -0.6380  1.1464
   74MOL   H17523681   7.228   6.650   6.773  1.1329 -2.0703  1.2894
   74MOL   H17623682   7.460   6.666   6.668 -0.0201 -0.1065 -0.0598
   74MOL   H17723683   7.637   6.773   6.786  0.6219  0.7572  0.2784
   74MOL   C17823684   7.631   7.033   7.061  0.2621 -0.5337 -0.6185
   74MOL   C17923685   7.751   7.099   7.133  0.6278  0.2458  0.1896
   74MOL   C18023686   7.886   7.077   7.073 -0.8287  0.7875  0.2686
   74MOL   C18123687   7.931   7.155   6.960 -0.0511  0.2409  0.2902
   74MOL   C18223688   8.060   7.137   6.907 -0.3130  0.3198  0.3191
   74MOL   C18323689   0.031   7.043   6.962 -0.3416 -0.5564  0.2053
   74MOL   C18423690   8.103   6.963   7.074 -0.1364  0.1658 -0.4343
   74MOL   C18523691   7.970   6.976   7.126  0.0858 -0.3064  0.0583
   74MOL   H18623692   7.539   7.071   7.105 -1.1054 -1.2264 -2.7927
   74MOL   H18723693   7.613   7.064   6.958 -1.8098 -1.6840 -0.6465
   74MOL   H18823694   7.752   7.055   7.233 -1.6476 -1.2747 -0.4308
   74MOL   H18923695   7.867   7.232   6.919 -0.2572  0.6265  1.3192
   74MOL   H19023696   8.091   7.200   6.826  0.0164 -0.1168  0.1005
   74MOL   H19123697   0.131   7.033   6.922  0.1531 -0.8308  1.4929
   74MOL   H19223698   0.048   6.885   7.120 -1.5483 -0.2270  0.7856
   74MOL   H19323699   7.942   6.927   7.217 -0.8461 -0.4531 -0.3017
   74MOL   C19423700   7.736   7.251   7.172  0.1467 -0.0469 -0.4088
   74MOL   C19523701   7.627   7.286   7.272 -0.0517  0.1506  0.8847
   74MOL   C19623702   7.615   7.190   7.386  0.6720  0.8580  0.2688
   74MOL   C19723703   7.727   7.136   7.454 -0.3029 -0.0716  0.1833
   74MOL   C19823704   7.715   7.042   7.561 -0.2126 -0.2691 -0.6218
   74MOL   C19923705   7.583   6.991   7.587 -0.6806 -0.2990 -0.5204
   74MOL   C20023706   7.476   7.037   7.512 -0.0489 -0.2865 -0.3475
   74MOL   C20123707   7.489   7.130   7.410  0.4225  0.0690  0.0590
   74MOL   H20223708   7.719   7.314   7.086 -0.2037 -0.2112 -0.4622
   74MOL   H20323709   7.827   7.289   7.219  1.2901 -1.6963 -1.2192
   74MOL   H20423710   7.533   7.265   7.220  0.2531 -3.8030  1.8471
   74MOL   H20523711   7.822   7.184   7.438 -0.9132  0.8001 -0.9806
   74MOL   H20623712   7.800   7.006   7.617  0.5704  2.0894 -0.1933
   74MOL   H20723713   7.574   6.920   7.668  1.4854 -0.5311 -0.4690
   74MOL   H20823714   7.377   6.997   7.530 -0.2850  0.9870  1.3173
   74MOL   H20923715   7.404   7.164   7.352 -0.5506 -0.8759  0.8914
   74MOL   C21023716   7.644   7.433   7.318  0.0308  0.1288 -0.2965
   74MOL   C21123717   7.520   7.520   7.353 -0.1697 -0.1064  0.5341
   74MOL   C21223718   7.552   7.639   7.433 -0.6971 -0.1427 -0.1594
   74MOL   C21323719   7.634   7.736   7.378  0.6956 -0.4981  0.2082
   74MOL   C21423720   7.681   7.848   7.449 -0.0299  0.3285 -0.1705
   74MOL   C21523721   7.633   7.870   7.581  0.5520 -0.0885 -0.3933
   74MOL   C21623722   7.554   7.769   7.647  0.0667 -0.2741  0.4416
   74MOL   C21723723   7.513   7.656   7.568 -0.0877 -0.2621 -1.3366
   74MOL   H21823724   7.694   7.485   7.237  1.4229 -0.1301  0.3791
   74MOL   H21923725   7.718   7.433   7.398  0.2143  0.6717 -0.4650
   74MOL   H22023726   7.453   7.457   7.413  1.2500  0.2685  2.5899
   74MOL   H22123727   7.671   7.726   7.277 -1.3050 -0.4047 -0.5558
   74MOL   H22223728   7.751   7.917   7.404 -1.0173  0.9919 -0.7000
   74MOL   H22323729   7.667   7.956   7.636 -1.0945 -0.1937  0.8521
   74MOL   H22423730   7.512   7.781   7.746 -0.4481  0.0851  0.1829
   74MOL   H22523731   7.457   7.577   7.616  0.7787 -0.6629 -0.9815
   74MOL   C22623732   7.441   7.544   7.224 -1.2539  0.0538  0.0208
   74MOL   C22723733   7.296   7.592   7.238  0.5449 -0.0814  0.3245
   74MOL   C22823734   7.241   7.615   7.092  0.1975 -0.2327  0.1176
   74MOL   C22923735   7.231   7.506   7.008 -0.5523  0.5939  0.3883
   74MOL   C23023736   7.176   7.522   6.878  0.1024 -0.5981  0.5411
   74MOL   C23123737   7.132   7.646   6.833  0.0567  0.3202 -0.3572
   74MOL   C23223738   7.142   7.755   6.922 -0.1398  0.2935  0.7906
   74MOL   C23323739   7.187   7.738   7.056  0.9544 -0.0536  0.0778
   74MOL   H23423740   7.440   7.451   7.167  0.0243 -1.1317  1.8737
   74MOL   H23523741   7.504   7.613   7.168  0.6678 -2.0520 -0.4962
   74MOL   H23623742   7.295   7.686   7.293 -0.7187  0.8546 -1.2619
   74MOL   H23723743   7.264   7.410   7.044 -0.1267  1.4701  2.3753
   74MOL   H23823744   7.169   7.430   6.823  4.6513  0.7560 -2.5412
   74MOL   H23923745   7.094   7.659   6.733 -1.7910  0.4860  0.3509
   74MOL   H24023746   7.116   7.855   6.891  0.4327 -0.5566 -2.7346
   74MOL   H24123747   7.186   7.831   7.112 -0.1738  0.4342 -0.7284
   74MOL   C24223748   7.202   7.491   7.325  0.6525 -0.5970  0.6523
   74MOL   C24323749   7.053   7.511   7.280  0.0170 -0.2083  0.2519
   74MOL   C24423750   6.972   7.400   7.355  0.3377 -0.3797  0.3010
   74MOL   C24523751   6.912   7.430   7.486 -0.5038  0.0324 -0.3873
   74MOL   C24623752   6.847   7.330   7.556  0.2421 -0.7276  0.2004
   74MOL   C24723753   6.828   7.206   7.493  0.3434 -0.0085  0.0345
   74MOL   C24823754   6.884   7.175   7.368 -0.8204  0.0854  0.4858
   74MOL   C24923755   6.959   7.272   7.302  0.3538 -0.5262 -0.4041
   74MOL   H25023756   7.214   7.501   7.433  1.1075 -0.9811  0.6398
   74MOL   H25123757   7.233   7.389   7.305  0.6420 -0.3092 -0.9132
   74MOL   H25223758   7.041   7.484   7.175 -0.0820  1.5883 -0.2098
   74MOL   H25323759   6.917   7.527   7.531  0.4210  1.3530 -3.1968
   74MOL   H25423760   6.804   7.361   7.650  3.5229  1.2076  1.1503
   74MOL   H25523761   6.771   7.128   7.541  1.1342 -0.6792 -0.0928
   74MOL   H25623762   6.877   7.079   7.320 -2.2858 -0.9183  2.6199
   74MOL   H25723763   6.999   7.243   7.206  2.1690  1.2428 -0.2359
   74MOL   C25823764   6.981   7.652   7.299 -0.4051 -0.1484 -0.4665
   74MOL   C25923765   6.843   7.657   7.233 -0.3460 -0.3584 -0.0868
   74MOL   C26023766   6.774   7.792   7.267  0.0387 -0.1917  0.8310
   74MOL   C26123767   6.823   7.920   7.214  0.6292  0.5503 -0.4429
   74MOL   C26223768   6.741   8.039   7.225  0.3246  0.3515  0.2606
   74MOL   C26323769   6.628   8.031   7.305 -0.1952  0.3754 -0.4509
   74MOL   C26423770   6.585   7.910   7.362  0.1739 -0.3639  0.1126
   74MOL   C26523771   6.661   7.794   7.353 -0.4120  0.3478 -0.1339
   74MOL   H26623772   7.050   7.729   7.264 -1.8990  1.7097  0.6018
   74MOL   H26723773   6.956   7.674   7.403  1.7305  1.0712 -0.1920
   74MOL   H26823774   6.790   7.574   7.278 -0.5678 -0.5675 -0.7427
   74MOL   H26923775   6.922   7.928   7.171 -0.1148 -0.5084 -2.4342
   74MOL   H27023776   6.783   0.019   7.195 -0.5896  0.6423 -0.1314
   74MOL   H27123777   6.581   0.008   7.337 -0.6745  1.3866 -3.8143
   74MOL   H27223778   6.489   7.917   7.410 -0.3998 -0.5537 -0.9908
   74MOL   H27323779   6.616   7.707   7.399 -2.0719  1.6024  0.6587
   74MOL   C27423780   6.840   7.637   7.082  0.5398 -0.0650  0.0990
   74MOL   C27523781   6.700   7.614   7.020 -0.2263 -0.3353  0.3611
   74MOL   C27623782   6.671   7.734   6.927  0.5585  0.4917  0.4354
   74MOL   C27723783   6.594   7.841   6.974  0.5210 -0.4414  0.5158
   74MOL   C27823784   6.573   7.956   6.890  0.3556  0.4462  0.2951
   74MOL   C27923785   6.622   7.961   6.760 -0.5484 -0.5387  0.4741
   74MOL   C28023786   6.695   7.852   6.704 -0.0286 -0.5144  0.0302
   74MOL   C28123787   6.722   7.745   6.792  0.3137 -0.5039 -0.0463
   74MOL   H28223788   6.893   7.550   7.044 -0.8048 -0.2063 -1.5092
   74MOL   H28323789   6.888   7.718   7.029 -0.7067 -0.7454 -2.1072
   74MOL   H28423790   6.625   7.630   7.099 -0.0564 -1.6561  0.7987
   74MOL   H28523791   6.567   7.846   7.078 -0.9945  3.6525  0.0211
   74MOL   H28623792   6.524   8.041   6.935 -1.8689 -0.9425  0.5604
   74MOL   H28723793   6.595   8.048   6.701  2.1182  0.3810  0.5236
   74MOL   H28823794   6.740   7.858   6.606 -0.5059  0.4548 -0.1292
   74MOL   H28923795   6.787   7.666   6.759  1.3046  0.7617 -1.1885
   74MOL   C29023796   6.663   7.481   6.946 -0.0200 -0.0773  0.5476
   74MOL   C29123797   6.658   7.361   7.043 -0.4258 -0.0885  0.0699
   74MOL   C29223798   6.559   7.376   7.158  0.4896  0.1212 -0.1413
   74MOL   C29323799   6.605   7.393   7.290 -0.0118 -0.4662  0.4479
   74MOL   C29423800   6.516   7.402   7.395 -0.5987 -0.2311  0.4824
   74MOL   C29523801   6.376   7.389   7.375  0.2354  0.6454 -0.4782
   74MOL   C29623802   6.329   7.360   7.248 -0.6322 -0.4127  0.3894
   74MOL   C29723803   6.421   7.354   7.138  0.3381 -0.3639 -0.0255
   74MOL   H29823804   6.732   7.468   6.863  1.6145  1.0181  1.7219
   74MOL   H29923805   6.563   7.495   6.903  0.2298 -0.9242 -0.3178
   74MOL   H30023806   6.755   7.374   7.090 -0.1101  0.5728 -0.7585
   74MOL   H30123807   6.710   7.390   7.315 -0.0217  0.3956  0.5753
   74MOL   H30223808   6.554   7.408   7.496 -0.6844  1.7091  0.4227
   74MOL   H30323809   6.316   7.396   7.465  0.5495 -0.2006 -0.1994
   74MOL   H30423810   6.224   7.339   7.233 -0.5424 -0.4920 -0.1394
   74MOL   H30523811   6.380   7.355   7.038 -3.3491  1.3227  1.4210
   74MOL   C30623812   6.649   7.232   6.961 -0.3860 -0.1231 -0.7876
   74MOL   C30723813   6.656   7.110   7.052  0.1115 -0.2041  0.4394
   74MOL   C30823814   6.640   6.986   6.962 -0.0099  0.3138 -0.0378
   74MOL   C30923815   6.519   6.912   6.963 -0.0559  0.9269 -0.3994
   74MOL   C31023816   6.499   6.806   6.874 -0.1327 -0.3842 -0.4396
   74MOL   C31123817   6.601   6.760   6.789 -0.4469 -0.6425 -0.9376
   74MOL   C31223818   6.728   6.825   6.802  0.2842 -0.4490  0.4397
   74MOL   C31323819   6.744   6.944   6.883 -0.0851 -0.4837  0.0758
   74MOL   H31423820   6.727   7.227   6.885  0.2209 -0.3206 -0.1565
   74MOL   H31523821   6.557   7.224   6.903 -1.8064  2.0693  1.0556
   74MOL   H31623822   6.576   7.111   7.126  0.7300  0.3557  1.1053
   74MOL   H31723823   6.431   6.951   7.013 -0.9804 -0.6673 -0.7330
   74MOL   H31823824   6.399   6.769   6.859 -0.4657  0.6541 -0.8613
   74MOL   H31923825   6.592   6.680   6.718  0.0520  0.9810 -2.8632
   74MOL   H32023826   6.808   6.783   6.743 -0.9196 -0.1367 -1.4556
   74MOL   H32123827   6.836   7.001   6.880 -0.8978  0.9146  0.9891
   74MOL   H32223828   6.747   7.115   7.111 -0.1044  1.2599  0.6489
   75MOL     C123829   0.944   4.711   3.395 -1.1631  0.4069  0.2189
   75MOL     C223830   0.923   4.558   3.444  0.3785  0.3186 -0.3926
   75MOL     C323831   0.927   4.548   3.592  0.0073 -0.7201  0.6834
   75MOL     C423832   0.817   4.594   3.673 -0.3383  0.2339 -0.9140
   75MOL     C523833   0.828   4.590   3.812 -0.0358  0.1026 -0.3718
   75MOL     C623834   0.943   4.529   3.875 -0.8020  0.8662  0.2088
   75MOL     C723835   1.044   4.481   3.795 -0.0079 -0.0830 -0.1382
   75MOL     C823836   1.041   4.487   3.650  0.2894  0.5094  0.0925
   75MOL     H923837   1.038   4.755   3.426 -0.9226 -0.3641  0.5952
   75MOL    H1023838   0.943   4.716   3.286 -0.2559  2.4324  0.2758
   75MOL    H1123839   1.009   4.508   3.397 -0.5787  0.5249 -2.4113
   75MOL    H1223840   0.734   4.643   3.624 -0.6545 -0.4078 -1.0154
   75MOL    H1323841   0.746   4.617   3.878  0.4628 -1.1514  0.7931
   75MOL    H1423842   0.941   4.527   3.983  0.4753 -0.8131  0.2317
   75MOL    H1523843   1.123   4.425   3.843 -1.1407 -2.3864 -0.8598
   75MOL    H1623844   1.109   4.439   3.582  0.1621  0.7471 -0.2013
   75MOL    H1723845   0.865   4.779   3.426 -1.5071  0.1968 -0.1799
   75MOL    C1823846   0.804   4.483   3.388 -0.2462  0.3850 -0.7092
   75MOL    C1923847   0.810   4.473   3.230  0.1259 -0.0359 -0.0894
   75MOL    C2023848   0.943   4.447   3.171 -0.0688 -0.1064 -0.1404
   75MOL    C2123849   1.007   4.545   3.103 -0.1115  0.1761  0.4718
   75MOL    C2223850   1.134   4.531   3.050  0.7091  0.2536  0.2240
   75MOL    C2323851   1.199   4.411   3.049  0.3172 -0.1129  0.5107
   75MOL    C2423852   1.135   4.303   3.116  0.0329  0.0550  0.3517
   75MOL    C2523853   1.010   4.325   3.182 -0.0380  0.4978 -0.4286
   75MOL    H2623854   0.712   4.528   3.425 -0.5376  0.1594 -1.1493
   75MOL    H2723855   0.798   4.379   3.421  1.3876  0.7009  0.6399
   75MOL    H2823856   0.784   4.573   3.195 -0.9019 -0.9817 -2.1073
   75MOL    H2923857   0.963   4.643   3.096  2.5023  1.4674  1.3167
   75MOL    H3023858   1.168   4.623   3.005  1.4086 -0.1239 -0.0161
   75MOL    H3123859   1.295   4.403   3.000  1.4549  0.0049  2.6285
   75MOL    H3223860   1.184   4.207   3.124 -2.1950 -0.9624  2.0704
   75MOL    H3323861   0.964   4.250   3.245  1.4639 -0.5100 -0.4958
   75MOL    C3423862   0.705   4.361   3.183  0.5558  0.0249  0.4939
   75MOL    C3523863   0.708   4.330   3.030 -0.1051 -0.0576 -0.0394
   75MOL    C3623864   0.622   4.203   3.004  0.7336 -0.0762 -0.2499
   75MOL    C3723865   0.476   4.196   3.033  0.2512  0.5087  0.0814
   75MOL    C3823866   0.404   4.083   3.017 -0.4807  0.1119  0.5662
   75MOL    C3923867   0.472   3.963   2.986  0.2309  0.0212  0.3528
   75MOL    C4023868   0.609   3.963   2.956 -0.3525  0.2760 -0.3375
   75MOL    C4123869   0.688   4.078   2.967  0.7238  0.3300  0.2728
   75MOL    H4223870   0.606   4.384   3.221  0.1789  0.1298 -0.5518
   75MOL    H4323871   0.726   4.268   3.236 -1.5359 -0.2853  0.8245
   75MOL    H4423872   0.813   4.304   3.013  0.1415  1.2617 -0.6385
   75MOL    H4523873   0.425   4.286   3.064 -0.4165 -0.0214  0.5393
   75MOL    H4623874   0.298   4.077   3.038 -0.2858 -0.6325  1.3120
   75MOL    H4723875   0.414   3.874   2.965 -1.2510  0.5714  1.9664
   75MOL    H4823876   0.652   3.866   2.940 -1.8964 -0.7296  1.4069
   75MOL    H4923877   0.794   4.059   2.952  0.3080 -1.0645 -1.1061
   75MOL    C5023878   0.669   4.462   2.944 -0.3230  0.5846 -0.0077
   75MOL    C5123879   0.723   4.459   2.803 -0.7149 -0.3107 -0.2164
   75MOL    C5223880   0.646   4.577   2.728 -0.8117  0.6772  0.1332
   75MOL    C5323881   0.520   4.553   2.669  0.6269  0.1351  0.3410
   75MOL    C5423882   0.453   4.663   2.611 -0.4260  0.0808  0.6040
   75MOL    C5523883   0.520   4.787   2.597  0.3716  0.1279 -0.0912
   75MOL    C5623884   0.650   4.804   2.645  0.4574 -0.4210  0.6920
   75MOL    C5723885   0.708   4.702   2.720  0.7403 -0.8104 -0.0588
   75MOL    H5823886   0.712   4.552   2.987  1.8300 -1.1730  1.6120
   75MOL    H5923887   0.562   4.481   2.946 -1.0110 -3.0617  2.6398
   75MOL    H6023888   0.685   4.371   2.750  0.2547 -2.2723  2.2391
   75MOL    H6123889   0.466   4.461   2.684 -0.4565  0.9109  1.3317
   75MOL    H6223890   0.366   4.641   2.551  1.5089  0.7769 -2.6118
   75MOL    H6323891   0.469   4.872   2.553 -1.4826 -0.4403  0.8920
   75MOL    H6423892   0.703   4.897   2.636  2.1185 -1.3932  0.2947
   75MOL    H6523893   0.802   4.712   2.773  1.0441 -0.5749 -0.6288
   75MOL    C6623894   0.880   4.465   2.792 -0.2407  0.4029 -0.6967
   75MOL    C6723895   0.937   4.473   2.640 -0.1954 -0.3322 -0.1474
   75MOL    C6823896   1.034   4.590   2.619 -0.4099  0.2011  0.1292
   75MOL    C6923897   0.988   4.702   2.556  0.0478 -0.2874  0.0831
   75MOL    C7023898   1.082   4.801   2.526 -0.8929 -0.5328  0.5135
   75MOL    C7123899   1.213   4.797   2.562 -0.5461  0.4149  0.1672
   75MOL    C7223900   1.264   4.685   2.630  0.2337  0.3019 -0.6116
   75MOL    C7323901   1.167   4.589   2.668  0.1060 -0.0791  0.9063
   75MOL    H7423902   0.933   4.388   2.848 -0.3030  1.6475  1.1237
   75MOL    H7523903   0.912   4.553   2.848  0.5599  0.4931 -1.2788
   75MOL    H7623904   0.862   4.493   2.563  2.1395  0.8295 -2.2182
   75MOL    H7723905   0.890   4.707   2.510  0.3606  3.5756 -0.2936
   75MOL    H7823906   1.045   4.878   2.461  0.3693  0.3221  0.7861
   75MOL    H7923907   1.287   4.861   2.516 -1.2913  0.2246 -1.3269
   75MOL    H8023908   1.370   4.679   2.647  0.1601 -0.4976 -0.4376
   75MOL    H8123909   1.216   4.507   2.720  0.9892 -0.2661 -0.1943
   75MOL    C8223910   0.982   4.335   2.601 -0.0950 -0.7224 -0.3466
   75MOL    C8323911   1.054   4.302   2.468  0.4325  0.3059  0.7342
   75MOL    C8423912   1.154   4.183   2.468  0.0239 -0.3287  0.5092
   75MOL    C8523913   1.110   4.050   2.461 -0.5433  0.2147  0.3718
   75MOL    C8623914   1.197   3.944   2.452 -0.9665 -0.4479 -0.5577
   75MOL    C8723915   1.333   3.966   2.430 -0.5749 -0.1946 -0.9868
   75MOL    C8823916   1.380   4.101   2.434  0.4524 -0.4545 -0.4372
   75MOL    C8923917   1.288   4.208   2.453 -0.3018 -0.1487 -0.2838
   75MOL    H9023918   0.905   4.258   2.604 -0.4759 -0.4757 -2.6990
   75MOL    H9123919   1.057   4.308   2.676 -0.4844  0.1312  0.3550
   75MOL    H9223920   1.120   4.388   2.456  1.3839 -0.4263  0.6663
   75MOL    H9323921   1.004   4.028   2.467 -0.4840  0.4287  2.4573
   75MOL    H9423922   1.162   3.842   2.457 -0.8482 -0.3854  2.1613
   75MOL    H9523923   1.413   3.894   2.436 -0.5906 -0.0073  2.3841
   75MOL    H9623924   1.484   4.123   2.416  0.4596 -0.1778 -0.0643
   75MOL    H9723925   1.322   4.310   2.459 -2.2431  0.4062  2.3296
   75MOL    C9823926   0.960   4.305   2.350 -0.1423  0.1513 -0.1142
   75MOL    C9923927   1.034   4.283   2.215 -0.4764  0.2657  0.2304
   75MOL   C10023928   0.999   4.156   2.152 -0.4280  0.4260 -0.2769
   75MOL   C10123929   0.870   4.105   2.143 -0.3977 -0.5747 -0.3902
   75MOL   C10223930   0.839   3.986   2.082 -0.8122  0.7069  0.4797
   75MOL   C10323931   0.945   3.903   2.040 -0.0112  0.1257  0.3748
   75MOL   C10423932   1.077   3.945   2.050  0.2889 -0.9150 -0.4630
   75MOL   C10523933   1.106   4.076   2.102 -0.1650 -0.2881  0.0538
   75MOL   H10623934   0.923   4.407   2.346  1.9839  0.9268 -0.6901
   75MOL   H10723935   0.874   4.240   2.364 -1.0121  1.3239  0.0361
   75MOL   H10823936   1.141   4.270   2.232  0.0466  2.9430 -0.8271
   75MOL   H10923937   0.782   4.154   2.183  1.3963  1.8228  0.8132
   75MOL   H11023938   0.738   3.953   2.064  0.0554 -1.2560 -0.9671
   75MOL   H11123939   0.933   3.801   2.006  0.4097  0.4638 -0.8040
   75MOL   H11223940   1.158   3.876   2.034 -0.0969 -1.1298 -1.5524
   75MOL   H11323941   1.212   4.097   2.113 -0.0502 -1.2450  0.7934
   75MOL   C11423942   1.033   4.390   2.110 -0.3177 -0.1713  0.1353
   75MOL   C11523943   1.115   4.515   2.142 -0.9851 -0.0250  0.1824
   75MOL   C11623944   1.266   4.482   2.175 -0.3564  0.4520 -0.1721
   75MOL   C11723945   1.319   4.532   2.294  0.4405  0.5418 -0.5360
   75MOL   C11823946   1.455   4.508   2.334 -0.1171 -0.3180  0.7038
   75MOL   C11923947   1.534   4.445   2.236 -0.4826  0.5296  0.7019
   75MOL   C12023948   1.482   4.396   2.114 -0.7447 -0.0377 -0.0437
   75MOL   C12123949   1.347   4.408   2.089  0.3531  0.1335  0.6087
   75MOL   H12223950   0.929   4.415   2.091 -0.4161 -1.3156 -0.9063
   75MOL   H12323951   1.069   4.343   2.019  1.3419  1.5582 -0.1251
   75MOL   H12423952   1.061   4.549   2.230  0.4845  0.5932  0.8575
   75MOL   H12523953   1.255   4.585   2.363  0.9413 -0.6847  0.8977
   75MOL   H12623954   1.497   4.550   2.424  2.1127 -0.8366 -0.0687
   75MOL   H12723955   1.639   4.426   2.252 -0.2986  0.5012 -0.4880
   75MOL   H12823956   1.552   4.357   2.042  1.7973  1.7909  1.3498
   75MOL   H12923957   1.299   4.376   1.997  2.1071 -2.2357  0.4422
   75MOL   C13023958   1.113   4.620   2.025 -0.0210  0.0822  0.1750
   75MOL   C13123959   0.972   4.670   1.975 -0.1688  0.3941 -0.2579
   75MOL   C13223960   0.870   4.679   2.086  0.0680 -0.6140  0.6606
   75MOL   C13323961   0.890   4.779   2.184 -0.5368  0.4801  1.1167
   75MOL   C13423962   0.798   4.780   2.291  0.1216 -0.2337 -0.6721
   75MOL   C13523963   0.681   4.699   2.294 -0.0956 -0.0181 -0.7304
   75MOL   C13623964   0.660   4.602   2.193  0.2322  0.2213 -0.1962
   75MOL   C13723965   0.751   4.599   2.087 -0.6489 -0.6378 -0.1774
   75MOL   H13823966   1.157   4.570   1.939 -0.7386  2.0766 -1.3904
   75MOL   H13923967   1.182   4.701   2.049 -0.5333 -0.0151  2.0694
   75MOL   H14023968   0.935   4.593   1.907  2.2936 -0.5536 -0.5752
   75MOL   H14123969   0.979   4.840   2.191  0.3528 -0.4276 -1.5833
   75MOL   H14223970   0.814   4.851   2.371 -0.4659 -3.7045  2.6289
   75MOL   H14323971   0.614   4.719   2.376  1.1855 -0.8498  0.5582
   75MOL   H14423972   0.573   4.539   2.201  0.2880 -0.1197 -1.9050
   75MOL   H14523973   0.744   4.532   2.002  1.2750 -1.9500  0.6746
   75MOL   C14623974   0.992   4.797   1.890 -0.2605  0.3005 -0.0557
   75MOL   C14723975   0.912   4.818   1.769 -1.0623 -0.4451  0.3653
   75MOL   C14823976   0.769   4.824   1.807 -0.7413 -0.6733 -0.6024
   75MOL   C14923977   0.688   4.715   1.766  0.1348 -0.3869 -0.2272
   75MOL   C15023978   0.549   4.710   1.808 -0.1372  0.0068  0.1918
   75MOL   C15123979   0.498   4.812   1.891  0.4247  0.2247  0.0071
   75MOL   C15223980   0.585   4.915   1.935  0.0575  0.7907  0.2226
   75MOL   C15323981   0.716   4.920   1.899 -0.4036  0.8974 -0.5817
   75MOL   H15423982   1.094   4.801   1.853  0.0758 -3.0883  0.3651
   75MOL   H15523983   0.986   4.888   1.950  2.0980  0.3025  0.2221
   75MOL   H15623984   0.916   4.734   1.699  1.3000  1.6140 -2.0714
   75MOL   H15723985   0.728   4.639   1.700  0.1018 -2.1756  1.7747
   75MOL   H15823986   0.487   4.626   1.780 -1.1390  0.5973  0.6338
   75MOL   H15923987   0.393   4.804   1.917  0.7481 -1.7549  0.7868
   75MOL   H16023988   0.551   4.995   1.999 -0.9471  0.9441 -0.4937
   75MOL   H16123989   0.775   4.997   1.945  2.2675  0.5275 -3.2098
   75MOL   C16223990   0.957   4.937   1.675  0.3013 -0.0107  0.0531
   75MOL   C16323991   0.876   4.950   1.543 -0.0758  0.0834  0.0831
   75MOL   C16423992   0.924   5.074   1.474 -0.6469 -0.3409  0.1287
   75MOL   C16523993   1.056   5.088   1.434 -0.4795 -0.5972  0.4903
   75MOL   C16623994   1.099   5.194   1.350  0.4506 -0.0651  0.0553
   75MOL   C16723995   1.008   5.292   1.313  0.6153  0.5449  0.4717
   75MOL   C16823996   0.874   5.285   1.364 -0.0569 -0.4938  0.6764
   75MOL   C16923997   0.833   5.180   1.441 -0.1685 -0.0286  0.3897
   75MOL   H17023998   1.060   4.927   1.642  0.1477 -0.6811 -0.2331
   75MOL   H17123999   0.939   5.028   1.732 -1.4240 -0.0166 -0.4413
   75MOL   H17224000   0.771   4.962   1.568 -0.3326 -1.0768 -0.4053
   75MOL   H17324001   1.121   5.002   1.449  0.3327  0.0139  0.5362
   75MOL   H17424002   1.204   5.189   1.326  0.8995  1.5031  1.6074
   75MOL   H17524003   1.020   5.367   1.236  2.1700 -0.7572 -0.6029
   75MOL   H17624004   0.802   5.360   1.334  1.7190  1.4648  1.1619
   75MOL   H17724005   0.739   5.193   1.491 -0.1063 -0.2833  0.5763
   75MOL   C17824006   0.881   4.827   1.446 -0.4639 -0.2876 -0.3139
   75MOL   C17924007   0.829   4.838   1.298 -0.6596  0.1263 -0.4624
   75MOL   C18024008   0.896   4.723   1.216  0.2794 -0.1725 -0.5632
   75MOL   C18124009   0.833   4.602   1.189  0.3438  0.7606  0.2992
   75MOL   C18224010   0.902   4.499   1.109 -0.1171 -0.2545  0.7062
   75MOL   C18324011   1.040   4.517   1.081 -0.0412  0.4269 -0.2941
   75MOL   C18424012   1.102   4.637   1.117  0.1475  0.5604 -0.3734
   75MOL   C18524013   1.030   4.737   1.179 -0.1411 -0.0001  0.6470
   75MOL   H18624014   0.831   4.748   1.503 -0.5903  0.8196  1.1230
   75MOL   H18724015   0.981   4.785   1.442 -1.2986 -2.4978  1.1552
   75MOL   H18824016   0.873   4.931   1.265 -1.4164 -0.1164 -2.1867
   75MOL   H18924017   0.736   4.579   1.230  1.0618 -2.6104  0.2475
   75MOL   H19024018   0.854   4.407   1.080 -0.3577  0.4909 -1.3398
   75MOL   H19124019   1.097   4.441   1.030  0.5070  1.2755 -0.9527
   75MOL   H19224020   1.208   4.643   1.099  0.0732 -0.6481 -1.2119
   75MOL   H19324021   1.083   4.829   1.199 -0.3042  0.0401  0.8996
   75MOL   C19424022   0.678   4.863   1.305  0.3522 -0.3953 -0.0467
   75MOL   C19524023   0.604   4.891   1.174 -0.0042 -0.0384  0.1142
   75MOL   C19624024   0.446   4.869   1.182  0.6594  0.1126 -0.0604
   75MOL   C19724025   0.375   4.922   1.288  0.1182  0.1451  0.3420
   75MOL   C19824026   0.235   4.901   1.285  0.4641  0.0915  0.0714
   75MOL   C19924027   0.169   4.834   1.176 -0.4466  1.2802  0.0771
   75MOL   C20024028   0.244   4.779   1.072  0.4261  0.0325  0.2852
   75MOL   C20124029   0.384   4.794   1.083  0.8444 -0.3184 -0.0036
   75MOL   H20224030   0.657   4.947   1.371  0.2112 -0.1427 -0.4130
   75MOL   H20324031   0.637   4.770   1.346  2.7139 -1.5284 -0.1765
   75MOL   H20424032   0.639   4.812   1.108 -1.1424  0.0981 -0.6575
   75MOL   H20524033   0.420   4.982   1.366  1.5534 -0.5830  0.0782
   75MOL   H20624034   0.166   4.935   1.361 -2.9720 -5.4193 -0.2661
   75MOL   H20724035   0.061   4.829   1.182 -0.2406 -1.7423  1.9919
   75MOL   H20824036   0.199   4.730   0.987  1.2280 -1.0924  0.4826
   75MOL   H20924037   0.442   4.753   1.002 -1.1984 -1.1233 -1.1144
   75MOL   C21024038   0.624   5.026   1.103 -0.2201 -0.2056  0.6385
   75MOL   C21124039   0.738   5.019   0.998  0.4434 -0.6913  0.3265
   75MOL   C21224040   0.725   4.912   0.891 -0.1633 -0.0060 -0.0120
   75MOL   C21324041   0.831   4.827   0.856  0.0173  0.6988  0.1402
   75MOL   C21424042   0.811   4.718   0.767 -0.1874 -0.1399  0.2490
   75MOL   C21524043   0.686   4.694   0.709  0.2843  0.0873  0.4623
   75MOL   C21624044   0.584   4.788   0.733  0.3115  0.0455 -0.2603
   75MOL   C21724045   0.605   4.891   0.827  0.7295 -0.2878  0.1931
   75MOL   H21824046   0.631   5.106   1.176 -1.9766  0.2738  0.2987
   75MOL   H21924047   0.534   5.063   1.056  1.6124  3.8530  0.1184
   75MOL   H22024048   0.818   4.995   1.069  0.2224 -3.0314 -0.1689
   75MOL   H22124049   0.934   4.844   0.886  0.4710 -0.2079 -0.8838
   75MOL   H22224050   0.900   4.659   0.752 -0.3738 -0.1061 -1.0972
   75MOL   H22324051   0.671   4.599   0.660  1.4795  0.9688 -1.6867
   75MOL   H22424052   0.483   4.774   0.698  0.4775 -0.5955 -0.4996
   75MOL   H22524053   0.522   4.951   0.861  0.9365 -1.4768  2.9112
   75MOL   C22624054   0.763   5.154   0.931 -0.3418  0.0241  0.1567
   75MOL   C22724055   0.895   5.167   0.853 -0.4792 -0.1240  0.4231
   75MOL   C22824056   0.900   5.302   0.787  0.0294  0.7940 -0.6862
   75MOL   C22924057   0.920   5.422   0.862 -1.3686 -0.2370 -0.2874
   75MOL   C23024058   0.935   5.552   0.793 -0.1237  0.5541  0.4673
   75MOL   C23124059   0.921   5.550   0.650  0.0193 -0.1280 -0.8048
   75MOL   C23224060   0.899   5.433   0.575 -0.1520  0.3183 -0.3772
   75MOL   C23324061   0.900   5.313   0.648 -0.2498  0.2910 -0.5916
   75MOL   H23424062   0.757   5.228   1.012  0.5234  0.4502 -0.1627
   75MOL   H23524063   0.681   5.173   0.862 -0.4479  4.1613  1.2876
   75MOL   H23624064   0.893   5.092   0.773 -0.0565  1.0267 -0.6929
   75MOL   H23724065   0.930   5.422   0.970 -1.4559 -0.8777 -0.2787
   75MOL   H23824066   0.958   5.645   0.843 -2.2535 -0.1682  2.9019
   75MOL   H23924067   0.926   5.641   0.593  1.9957  1.4528  1.8378
   75MOL   H24024068   0.905   5.433   0.468 -3.0307 -1.3966 -0.6041
   75MOL   H24124069   0.900   5.223   0.588 -0.2873  1.3421 -2.2127
   75MOL   C24224070   1.021   5.126   0.933  0.0748  0.2525  0.0012
   75MOL   C24324071   1.155   5.133   0.872  0.4088 -0.4230  0.1599
   75MOL   C24424072   1.273   5.148   0.970  0.0952  0.1303  0.4848
   75MOL   C24524073   1.314   5.034   1.045 -0.8349  0.1715 -0.6236
   75MOL   C24624074   1.414   5.054   1.144  1.0476 -0.5407 -0.3791
   75MOL   C24724075   1.465   5.182   1.165 -0.0508  0.5717 -0.8587
   75MOL   C24824076   1.420   5.286   1.087 -0.0726 -0.3780  0.2475
   75MOL   C24924077   1.325   5.275   0.993  0.2485  0.6198  0.1938
   75MOL   H25024078   1.011   5.021   0.961  1.0516 -0.1067 -0.9603
   75MOL   H25124079   1.017   5.188   1.022 -0.1801 -0.3692  0.4317
   75MOL   H25224080   1.165   5.231   0.825  1.4592 -0.2327  0.7394
   75MOL   H25324081   1.263   4.940   1.034 -1.4997  0.2572  1.5162
   75MOL   H25424082   1.438   4.970   1.208 -1.1903 -0.9210 -0.0264
   75MOL   H25524083   1.543   5.201   1.237 -1.1740  0.0205  0.5207
   75MOL   H25624084   1.462   5.382   1.114  1.5916 -0.9036 -0.3670
   75MOL   H25724085   1.296   5.366   0.943  3.6637  0.7170 -1.7817
   75MOL   C25824086   1.170   5.024   0.762 -0.2488 -0.6952  0.6875
   75MOL   C25924087   1.299   5.043   0.676 -0.6476 -0.0837 -0.5193
   75MOL   C26024088   1.365   4.907   0.684 -0.6341  0.2587  0.4052
   75MOL   C26124089   1.482   4.891   0.762  0.0050 -0.3422 -0.3623
   75MOL   C26224090   1.541   4.761   0.767 -0.4169  0.0770 -0.2782
   75MOL   C26324091   1.479   4.650   0.700  0.6343  0.3051 -0.3054
   75MOL   C26424092   1.363   4.672   0.626  0.1532 -0.0126  0.2660
   75MOL   C26524093   1.309   4.802   0.616 -0.3337 -0.1251 -1.2458
   75MOL   H26624094   1.089   5.028   0.689  1.2218 -1.4654 -1.0107
   75MOL   H26724095   1.163   4.931   0.818 -1.9040 -2.1437 -1.8725
   75MOL   H26824096   1.354   5.113   0.740 -2.1637  0.6907 -0.0234
   75MOL   H26924097   1.527   4.973   0.818  0.2850 -1.6163  1.2983
   75MOL   H27024098   1.629   4.739   0.827 -1.1918 -0.6227  0.6201
   75MOL   H27124099   1.520   4.551   0.711 -0.4034 -0.2053 -0.9688
   75MOL   H27224100   1.319   4.585   0.579 -0.6725 -0.4175  1.7843
   75MOL   H27324101   1.222   4.812   0.552 -0.6519 -0.6769 -0.9015
   75MOL   C27424102   1.280   5.102   0.532  0.6349 -0.1546  0.1892
   75MOL   C27524103   1.249   5.257   0.532 -0.3120  0.1136 -0.5354
   75MOL   C27624104   1.352   5.342   0.593 -0.1632 -0.5549 -0.4172
   75MOL   C27724105   1.485   5.333   0.541 -0.1462  0.4315 -1.0999
   75MOL   C27824106   1.586   5.406   0.599 -0.2641 -0.1657  0.5569
   75MOL   C27924107   1.560   5.494   0.705  0.6516 -0.3538  0.7562
   75MOL   C28024108   1.431   5.511   0.747  1.2783 -0.1969 -0.0499
   75MOL   C28124109   1.324   5.430   0.701  0.9473 -0.6606 -0.0172
   75MOL   H28224110   1.203   5.048   0.478  0.2238  0.9865 -0.3925
   75MOL   H28324111   1.370   5.088   0.472  1.8282 -0.5985  2.0249
   75MOL   H28424112   1.162   5.284   0.592  2.3441  0.7055  3.2462
   75MOL   H28524113   1.503   5.270   0.455  0.8720 -2.8226  1.3981
   75MOL   H28624114   1.687   5.382   0.571 -1.5806 -2.8032 -2.2964
   75MOL   H28724115   1.638   5.537   0.766 -0.7620  1.2401  1.4760
   75MOL   H28824116   1.409   5.582   0.825  1.7038 -1.6942  1.4774
   75MOL   H28924117   1.230   5.444   0.753  0.1715  1.4261 -1.8824
   75MOL   C29024118   1.221   5.297   0.381  0.2745  0.2031 -0.2244
   75MOL   C29124119   1.190   5.440   0.354 -0.3490  0.4215  0.5146
   75MOL   C29224120   1.312   5.520   0.307 -0.2392  0.0028 -0.6960
   75MOL   C29324121   1.377   5.604   0.396 -0.0142  0.2062 -0.1918
   75MOL   C29424122   1.493   5.677   0.362  0.4773 -0.0273 -0.3208
   75MOL   C29524123   1.531   5.684   0.231  0.2796  0.7762  1.4821
   75MOL   C29624124   1.469   5.601   0.134 -0.3883  0.3089 -0.1722
   75MOL   C29724125   1.358   5.516   0.179 -0.2217  0.2564  0.4000
   75MOL   H29824126   1.134   5.240   0.350  1.6862 -0.9830 -2.1077
   75MOL   H29924127   1.304   5.266   0.317  1.1550 -0.3069  1.1385
   75MOL   H30024128   1.152   5.491   0.442  1.0638  0.1374  1.2965
   75MOL   H30124129   1.339   5.604   0.497  0.4713  1.3087 -0.0077
   75MOL   H30224130   1.539   5.730   0.444 -0.5219  0.1942  0.1097
   75MOL   H30324131   1.617   5.743   0.200 -0.6007  1.2698 -0.0830
   75MOL   H30424132   1.514   5.597   0.036  0.2406  0.7101  0.0965
   75MOL   H30524133   1.312   5.455   0.103 -2.5474  0.7604  1.3573
   75MOL   C30624134   1.073   5.465   0.258  0.2633 -0.1149  0.3899
   75MOL   C30724135   1.019   5.603   0.248  0.2749 -1.0183  1.1544
   75MOL   C30824136   0.885   5.603   0.181  0.7713  0.1037 -0.0156
   75MOL   C30924137   0.770   5.615   0.257  0.0507 -0.1273  0.1361
   75MOL   C31024138   0.645   5.604   0.196  0.2301 -0.0273  0.2741
   75MOL   C31124139   0.635   5.594   0.058  0.8025  0.0259 -0.0201
   75MOL   C31224140   0.751   5.596   8.095 -0.0853  0.3581  0.4550
   75MOL   C31324141   0.880   5.608   0.040  0.6462 -0.3206  0.0187
   75MOL   H31424142   0.984   5.411   0.291  0.2051  0.6705  1.5606
   75MOL   H31524143   1.100   5.423   0.161  2.4159  1.3674  0.3040
   75MOL   H31624144   1.090   5.669   0.198 -0.6539  0.8663  2.2583
   75MOL   H31724145   0.761   5.627   0.364 -1.9014 -2.9029  0.3187
   75MOL   H31824146   0.556   5.595   0.256  0.0110 -2.5035 -0.3786
   75MOL   H31924147   0.538   5.586   0.010  1.0534  0.2251 -0.5616
   75MOL   H32024148   0.748   5.598   7.987 -1.7646  0.6821  0.4963
   75MOL   H32124149   0.971   5.608   8.097  0.5500 -1.3162 -0.1400
   75MOL   H32224150   1.018   5.646   0.349 -1.2082 -1.0271  1.1609
   76MOL     C124151   1.376   1.886   2.524 -0.8683 -0.1999 -0.1595
   76MOL     C224152   1.300   1.832   2.396 -0.5992  0.3643 -0.1290
   76MOL     C324153   1.171   1.761   2.445 -0.7073  0.3173  0.3669
   76MOL     C424154   1.165   1.619   2.422  0.3676 -0.3881  0.6286
   76MOL     C524155   1.040   1.548   2.436  0.1370  0.6969  0.0123
   76MOL     C624156   0.924   1.617   2.483  0.1532 -0.4121  0.1485
   76MOL     C724157   0.928   1.752   2.510  0.6500 -0.4757  0.3546
   76MOL     C824158   1.051   1.822   2.493  0.4754 -0.1809  0.1155
   76MOL     H924159   1.441   1.970   2.499  0.6814 -2.1949 -3.1960
   76MOL    H1024160   1.311   1.922   2.603 -1.6786 -2.3101  0.1529
   76MOL    H1124161   1.368   1.764   2.346  1.0080  1.8091  0.0374
   76MOL    H1224162   1.248   1.569   2.374  0.6526  1.3186 -0.7156
   76MOL    H1324163   1.037   1.440   2.428 -0.2123  0.6701  0.4813
   76MOL    H1424164   0.834   1.559   2.487 -0.2050  0.1413  0.1883
   76MOL    H1524165   0.844   1.796   2.563 -0.1147 -1.5771  0.0715
   76MOL    H1624166   1.040   1.927   2.516 -1.9493  0.1038 -2.1785
   76MOL    H1724167   1.426   1.803   2.574 -1.9025 -1.2262 -0.7935
   76MOL    C1824168   1.263   1.957   2.306 -0.3898  0.3327 -0.0086
   76MOL    C1924169   1.168   1.937   2.190 -0.0178  0.5933  0.6392
   76MOL    C2024170   1.120   2.071   2.150 -0.2145  0.5099  0.3681
   76MOL    C2124171   0.990   2.109   2.192  0.2830  1.0323 -0.3339
   76MOL    C2224172   0.930   2.230   2.148 -0.8569  0.1099  0.0842
   76MOL    C2324173   1.011   2.312   2.063  0.6399 -0.7700 -0.4716
   76MOL    C2424174   1.140   2.280   2.023 -0.2909  0.1323 -0.2639
   76MOL    C2524175   1.197   2.159   2.071 -0.3175  0.0154 -0.2463
   76MOL    H2624176   1.357   2.007   2.283 -0.7506  1.5486  1.0817
   76MOL    H2724177   1.212   2.025   2.375 -0.1691 -0.0171  0.5014
   76MOL    H2824178   1.083   1.891   2.239 -0.4890  0.7540 -0.0235
   76MOL    H2924179   0.931   2.049   2.260 -0.2731  1.2435 -0.6250
   76MOL    H3024180   0.832   2.260   2.180 -0.9585  1.2183 -1.2469
   76MOL    H3124181   0.969   2.404   2.026 -2.5919 -2.2111 -0.5998
   76MOL    H3224182   1.181   2.351   1.952 -1.3445 -0.4933 -1.5201
   76MOL    H3324183   1.288   2.114   2.034 -0.3608  0.8506 -1.3877
   76MOL    C3424184   1.225   1.845   2.071 -0.2572 -0.3726  0.2070
   76MOL    C3524185   1.143   1.826   1.944  0.7185 -0.6711  0.3358
   76MOL    C3624186   1.220   1.749   1.838  0.1824  0.2836  0.0702
   76MOL    C3724187   1.260   1.612   1.854  0.2526 -0.4586  0.2823
   76MOL    C3824188   1.336   1.545   1.756  0.3368  0.2191  0.3008
   76MOL    C3924189   1.389   1.623   1.650 -0.3469 -0.6670 -0.1697
   76MOL    C4024190   1.360   1.759   1.637  0.6919  0.0723  0.6686
   76MOL    C4124191   1.278   1.825   1.735  0.6207  0.0246 -0.5767
   76MOL    H4224192   1.256   1.747   2.108  2.0367 -0.3988 -1.6811
   76MOL    H4324193   1.322   1.880   2.034  0.5736  1.3618  3.7163
   76MOL    H4424194   1.124   1.926   1.905 -0.5193 -1.4525 -1.1067
   76MOL    H4524195   1.227   1.548   1.935  1.8313 -1.3322  0.2553
   76MOL    H4624196   1.348   1.438   1.764  0.2686  0.1821 -0.0843
   76MOL    H4724197   1.450   1.568   1.580  0.3212 -0.7866  0.5037
   76MOL    H4824198   1.403   1.811   1.553 -0.0062  0.7227  0.7044
   76MOL    H4924199   1.268   1.932   1.724  0.9258  0.2437  1.2092
   76MOL    C5024200   1.008   1.765   1.963 -0.1248  0.1698 -0.1033
   76MOL    C5124201   0.901   1.814   1.864 -0.3118  0.4619 -0.1220
   76MOL    C5224202   0.791   1.711   1.867 -0.4765  0.0810 -0.5807
   76MOL    C5324203   0.735   1.658   1.745 -0.1508  0.1335  0.0677
   76MOL    C5424204   0.631   1.562   1.749  0.0674 -0.3672 -0.4813
   76MOL    C5524205   0.581   1.530   1.876 -0.4193 -1.0139  0.1245
   76MOL    C5624206   0.624   1.588   1.994 -0.4564 -0.2858  0.4767
   76MOL    C5724207   0.735   1.675   1.991 -0.0114 -0.3172 -0.2068
   76MOL    H5824208   0.986   1.767   2.069  0.3693  1.6602 -0.0185
   76MOL    H5924209   1.017   1.656   1.959 -0.0838  0.2120 -1.3070
   76MOL    H6024210   0.950   1.796   1.768 -1.4716 -0.6475 -0.5222
   76MOL    H6124211   0.783   1.703   1.659  1.9429 -1.2982  0.4472
   76MOL    H6224212   0.593   1.517   1.658 -0.8928  1.4068 -0.9764
   76MOL    H6324213   0.508   1.450   1.879 -1.3244 -0.2924 -1.7941
   76MOL    H6424214   0.574   1.566   2.088 -0.8099 -0.9268  0.1434
   76MOL    H6524215   0.773   1.707   2.086 -0.3329  0.6547 -0.3979
   76MOL    C6624216   0.844   1.958   1.865  0.1373  0.8459  0.5349
   76MOL    C6724217   0.774   2.008   1.739 -0.4473  0.1665 -0.4228
   76MOL    C6824218   0.677   2.123   1.771  0.8712 -0.1738 -0.1611
   76MOL    C6924219   0.715   2.252   1.811  0.0136  0.6612 -0.0322
   76MOL    C7024220   0.625   2.355   1.811 -0.4310 -0.9273 -0.0320
   76MOL    C7124221   0.494   2.338   1.763 -0.3908 -0.1944  0.1523
   76MOL    C7224222   0.446   2.204   1.742 -0.1072 -0.5140 -0.1664
   76MOL    C7324223   0.540   2.099   1.750  0.5430 -0.0862  0.0584
   76MOL    H7424224   0.923   2.029   1.889 -0.3486  0.6360  2.8635
   76MOL    H7524225   0.775   1.973   1.948  0.9711 -0.7992  1.5328
   76MOL    H7624226   0.714   1.927   1.699 -0.6749  0.0248  0.2022
   76MOL    H7724227   0.821   2.265   1.829  0.3147 -2.0838  0.3776
   76MOL    H7824228   0.663   2.456   1.821  0.5022 -1.2362 -0.4622
   76MOL    H7924229   0.431   2.425   1.762  0.7453  0.6323 -1.3869
   76MOL    H8024230   0.347   2.185   1.703 -0.5580  1.7286 -0.2103
   76MOL    H8124231   0.505   2.001   1.721 -1.3196  0.7521 -0.5836
   76MOL    C8224232   0.877   2.051   1.631  0.2453  1.3303  1.0065
   76MOL    C8324233   0.806   2.082   1.502 -0.2943  0.3967 -0.1384
   76MOL    C8424234   0.862   2.198   1.426  0.3552 -0.7719  1.0513
   76MOL    C8524235   0.967   2.173   1.334 -0.1677 -0.3941  0.2511
   76MOL    C8624236   1.016   2.278   1.251  0.3834  0.0245 -0.0010
   76MOL    C8724237   0.953   2.399   1.260 -0.3282 -0.8403  0.0426
   76MOL    C8824238   0.848   2.428   1.347  0.2030  0.4290  0.1656
   76MOL    C8924239   0.806   2.327   1.438 -0.3181  0.6126 -0.6954
   76MOL    H9024240   0.950   1.973   1.613  0.5008  2.1278 -1.6185
   76MOL    H9124241   0.939   2.139   1.650 -0.9652  2.5308 -0.5213
   76MOL    H9224242   0.710   2.128   1.526  0.9525  1.5311  2.9248
   76MOL    H9324243   1.010   2.074   1.333  2.6234  0.7188  2.9009
   76MOL    H9424244   1.095   2.253   1.182 -0.8817 -1.9314 -0.7946
   76MOL    H9524245   0.984   2.467   1.182  0.1867 -1.3791 -0.2278
   76MOL    H9624246   0.798   2.524   1.340 -0.3733  0.0842 -0.5989
   76MOL    H9724247   0.717   2.346   1.497 -1.1322 -1.5659 -1.2074
   76MOL    C9824248   0.786   1.959   1.417 -0.7031  0.6225  0.2536
   76MOL    C9924249   0.719   1.973   1.272 -0.1933 -0.1522 -0.0159
   76MOL   C10024250   0.688   1.835   1.206 -0.3117 -0.4803 -0.3323
   76MOL   C10124251   0.773   1.787   1.112  0.1173  0.5037  0.6303
   76MOL   C10224252   0.754   1.659   1.058  0.5902  0.1020 -0.7561
   76MOL   C10324253   0.634   1.590   1.077 -0.5056 -1.0456  0.4286
   76MOL   C10424254   0.536   1.644   1.161  0.4710 -0.1086 -0.9079
   76MOL   C10524255   0.565   1.764   1.231 -0.0959  0.0220 -0.5821
   76MOL   H10624256   0.721   1.886   1.466 -0.2751 -0.4192 -0.7019
   76MOL   H10724257   0.876   1.901   1.396 -1.1984 -0.0418 -0.0599
   76MOL   H10824258   0.797   2.023   1.214 -0.5170  1.1248  0.6232
   76MOL   H10924259   0.862   1.834   1.072 -0.4478  0.8412 -0.2505
   76MOL   H11024260   0.826   1.627   0.983 -1.3626 -3.0275 -1.3881
   76MOL   H11124261   0.617   1.497   1.026  0.3549 -1.7797  1.4551
   76MOL   H11224262   0.443   1.593   1.181  0.2062  0.2780 -1.1393
   76MOL   H11324263   0.490   1.800   1.300  0.2365 -0.4494  0.0309
   76MOL   C11424264   0.595   2.068   1.258  0.5450 -0.3953 -0.3495
   76MOL   C11524265   0.565   2.117   1.116 -0.3493 -0.1877 -0.3620
   76MOL   C11624266   0.420   2.151   1.091  0.4310  0.5047  0.5781
   76MOL   C11724267   0.335   2.064   1.015 -0.1145 -0.0185  0.9358
   76MOL   C11824268   0.212   2.110   0.974  0.5118  0.3684  0.3494
   76MOL   C11924269   0.161   2.237   1.012  0.0784  0.3903  0.6852
   76MOL   C12024270   0.242   2.323   1.088 -0.0206 -0.2124  0.2429
   76MOL   C12124271   0.367   2.276   1.134 -0.6337 -0.5521  0.3662
   76MOL   H12224272   0.627   2.155   1.315  0.6830 -0.4142 -0.3976
   76MOL   H12324273   0.504   2.030   1.304 -0.5015  1.3664 -0.8956
   76MOL   H12424274   0.594   2.033   1.054 -0.0216  0.2456 -0.8034
   76MOL   H12524275   0.359   1.966   0.975 -4.1131 -0.9360  0.4991
   76MOL   H12624276   0.153   2.041   0.915  2.5162  0.4078 -1.7533
   76MOL   H12724277   0.068   2.276   0.972  1.0762 -0.7207 -2.9541
   76MOL   H12824278   0.208   2.424   1.106 -1.1223 -0.6437  0.6549
   76MOL   H12924279   0.425   2.342   1.197  3.4790 -1.7298 -1.9486
   76MOL   C13024280   0.659   2.227   1.071 -0.7112 -0.8547 -0.3910
   76MOL   C13124281   0.688   2.248   0.916  0.4179 -0.8646  0.0477
   76MOL   C13224282   0.729   2.113   0.845 -0.4432 -0.7091  0.1610
   76MOL   C13324283   0.866   2.070   0.844  0.6397  0.0516 -0.1815
   76MOL   C13424284   0.916   1.953   0.790  0.2541  0.1732 -0.7062
   76MOL   C13524285   0.818   1.861   0.741 -0.2687 -0.2922 -0.0596
   76MOL   C13624286   0.685   1.903   0.730  0.7353 -0.0073  0.5123
   76MOL   C13724287   0.636   2.026   0.785  0.2291 -0.0033 -0.1840
   76MOL   H13824288   0.761   2.208   1.104 -0.3563  1.2683 -0.2162
   76MOL   H13924289   0.641   2.322   1.121  0.7669 -0.1753 -1.1002
   76MOL   H14024290   0.777   2.311   0.912  0.3018 -0.7087 -0.1517
   76MOL   H14124291   0.939   2.143   0.875  3.1631 -1.7332 -1.8120
   76MOL   H14224292   1.021   1.929   0.796  0.2843  0.8957  2.6814
   76MOL   H14324293   0.833   1.759   0.709 -5.2817 -0.6931 -1.5564
   76MOL   H14424294   0.607   1.840   0.691  0.5584  0.3263  0.3210
   76MOL   H14524295   0.531   2.047   0.797 -0.1603 -1.9471  0.0580
   76MOL   C14624296   0.582   2.338   0.843  0.3766 -0.2869  0.6048
   76MOL   C14724297   0.577   2.490   0.863 -0.0556 -0.0994  0.7141
   76MOL   C14824298   0.553   2.558   0.728 -0.3333 -0.2888 -0.0733
   76MOL   C14924299   0.646   2.659   0.679  0.7508  0.0156 -0.4736
   76MOL   C15024300   0.621   2.732   0.560  0.0528 -0.2684  0.0337
   76MOL   C15124301   0.518   2.694   0.476 -0.7757  1.0369  0.3508
   76MOL   C15224302   0.429   2.597   0.518  0.8431 -0.0958  0.3280
   76MOL   C15324303   0.441   2.528   0.647  0.6827  0.1146  0.0263
   76MOL   H15424304   0.479   2.304   0.855  0.0479  0.6443  0.4996
   76MOL   H15524305   0.612   2.326   0.739 -2.9832 -1.8526 -0.2590
   76MOL   H15624306   0.675   2.527   0.893 -0.0762  1.6697 -1.2686
   76MOL   H15724307   0.725   2.683   0.747  1.0880  0.2905 -0.9583
   76MOL   H15824308   0.686   2.815   0.534 -1.0466  0.7705  0.5260
   76MOL   H15924309   0.500   2.742   0.380 -0.5977 -0.0938 -0.2612
   76MOL   H16024310   0.343   2.576   0.456 -0.0632  2.5065  0.6487
   76MOL   H16124311   0.379   2.446   0.683  0.4719  1.3484  2.5417
   76MOL   C16224312   0.473   2.541   0.960 -0.3602  0.2568  0.7914
   76MOL   C16324313   0.467   2.696   0.986 -1.1090  0.2556 -0.0630
   76MOL   C16424314   0.339   2.714   1.060  0.5667 -0.0544 -0.2585
   76MOL   C16524315   0.228   2.774   0.992  0.0595 -0.2911  0.2566
   76MOL   C16624316   0.105   2.774   1.052 -0.1297 -0.7043 -0.0357
   76MOL   C16724317   0.084   2.734   1.187  0.1447 -0.4460 -0.2061
   76MOL   C16824318   0.190   2.670   1.252  0.0415  0.1882  0.1562
   76MOL   C16924319   0.315   2.667   1.192  0.1421  0.0290  0.5451
   76MOL   H17024320   0.494   2.503   1.060 -0.5675  0.6752  0.9935
   76MOL   H17124321   0.374   2.500   0.942 -0.0262 -0.6209  0.9548
   76MOL   H17224322   0.461   2.745   0.889  1.4845 -0.4681 -0.6320
   76MOL   H17324323   0.233   2.822   0.895  0.8219 -3.2466 -1.2081
   76MOL   H17424324   0.022   2.818   0.999 -0.3593 -0.1635  0.7616
   76MOL   H17524325   8.101   2.736   1.232  0.9157 -1.2367  1.5394
   76MOL   H17624326   0.167   2.636   1.352  1.0550  1.4213  0.8214
   76MOL   H17724327   0.399   2.631   1.250 -0.6063 -2.0325  0.4100
   76MOL   C17824328   0.593   2.743   1.056  0.0319 -0.7331 -0.1114
   76MOL   C17924329   0.586   2.888   1.095 -0.5314 -0.2039 -0.4593
   76MOL   C18024330   0.549   2.906   1.246  0.7014  0.4311 -0.2305
   76MOL   C18124331   0.433   2.968   1.277  0.6501  0.0074  0.1080
   76MOL   C18224332   0.399   2.981   1.408 -0.1530  0.6896  0.2083
   76MOL   C18324333   0.494   2.954   1.512  0.5412 -0.1967  0.3819
   76MOL   C18424334   0.612   2.888   1.480 -0.6216  0.5177 -0.6697
   76MOL   C18524335   0.640   2.863   1.343 -0.2045  0.1592 -0.2091
   76MOL   H18624336   0.683   2.729   0.997 -0.1295 -1.2532 -0.2350
   76MOL   H18724337   0.609   2.688   1.149 -0.8707  0.4439  0.7537
   76MOL   H18824338   0.506   2.931   1.035 -2.4700  0.2882  2.3765
   76MOL   H18924339   0.375   3.017   1.201 -0.2207  1.7426  1.8418
   76MOL   H19024340   0.300   3.017   1.433  0.6191  0.9385  3.0596
   76MOL   H19124341   0.477   2.984   1.614  0.3558  0.4874  0.1525
   76MOL   H19224342   0.680   2.861   1.559  1.4886  2.9948 -1.5614
   76MOL   H19324343   0.737   2.822   1.320 -0.7521 -1.5017  0.3487
   76MOL   C19424344   0.714   2.954   1.064 -0.6064 -0.2943 -0.4311
   76MOL   C19524345   0.737   2.993   0.918  0.0691 -0.1740 -0.0016
   76MOL   C19624346   0.612   3.071   0.864 -0.0503 -0.3573  0.2762
   76MOL   C19724347   0.521   2.998   0.784 -0.0147  0.5999  0.5075
   76MOL   C19824348   0.407   3.067   0.734 -0.7569  0.1205 -0.4672
   76MOL   C19924349   0.385   3.200   0.764 -0.2476 -0.2916  0.1400
   76MOL   C20024350   0.475   3.274   0.843 -0.6386  0.5029  0.6376
   76MOL   C20124351   0.593   3.214   0.891  0.7681  0.8334 -0.2652
   76MOL   H20224352   0.796   2.887   1.090 -1.3335  0.2571  3.6691
   76MOL   H20324353   0.710   3.047   1.120 -0.5483 -0.6855  0.2315
   76MOL   H20424354   0.742   2.901   0.860 -1.3203 -0.4163  0.2408
   76MOL   H20524355   0.550   2.897   0.760 -0.2019  0.5941  0.3055
   76MOL   H20624356   0.339   3.009   0.672  2.2240 -3.0348 -0.9464
   76MOL   H20724357   0.299   3.245   0.718 -1.3711 -0.1119  2.3829
   76MOL   H20824358   0.462   3.379   0.866  1.5786  0.9723 -0.1777
   76MOL   H20924359   0.650   3.279   0.957  0.4915 -1.4087  2.2773
   76MOL   C21024360   0.867   3.068   0.896  0.3035  0.5773  0.5435
   76MOL   C21124361   0.999   2.978   0.921 -0.8030 -0.0441 -0.6034
   76MOL   C21224362   1.001   2.845   0.835  0.4400 -0.1752 -0.0066
   76MOL   C21324363   0.995   2.727   0.914 -0.3054 -0.3539  0.1344
   76MOL   C21424364   1.008   2.599   0.850  0.4604  0.1309  0.6919
   76MOL   C21524365   1.022   2.602   0.708 -0.2905 -0.2818  0.3829
   76MOL   C21624366   1.046   2.718   0.637  0.7728 -0.7719 -0.0896
   76MOL   C21724367   1.019   2.840   0.697  0.0168  0.1566 -0.5530
   76MOL   H21824368   0.871   3.149   0.968  1.6694  0.2594  0.8432
   76MOL   H21924369   0.868   3.110   0.796  1.0557 -0.9237 -0.1039
   76MOL   H22024370   1.007   2.953   1.027  0.3009  3.7402  0.2569
   76MOL   H22124371   0.994   2.728   1.022  0.3289  2.1133  0.1414
   76MOL   H22224372   0.999   2.505   0.902 -0.6976 -0.7728 -1.1034
   76MOL   H22324373   1.043   2.505   0.665  0.6733 -0.3056  0.8912
   76MOL   H22424374   1.060   2.710   0.531  3.0418  0.4917  0.0955
   76MOL   H22524375   1.036   2.933   0.645 -0.9278 -0.5315 -2.1330
   76MOL   C22624376   1.126   3.058   0.903 -0.5343 -0.0508 -0.2632
   76MOL   C22724377   1.258   2.981   0.928 -0.5375 -0.3342  0.3537
   76MOL   C22824378   1.364   2.997   0.818 -0.5849 -0.0353 -0.6042
   76MOL   C22924379   1.433   3.121   0.808 -0.3421 -0.0979  0.4917
   76MOL   C23024380   1.530   3.142   0.703  0.8219 -0.6382 -0.0453
   76MOL   C23124381   1.540   3.043   0.604 -0.6238 -0.3188  0.2226
   76MOL   C23224382   1.477   2.916   0.612  0.3698  0.7970  0.6049
   76MOL   C23324383   1.388   2.892   0.716  0.4796 -0.2964 -0.2203
   76MOL   H23424384   1.119   3.150   0.961 -1.2782  0.3395 -0.9589
   76MOL   H23524385   1.135   3.096   0.801 -0.4059  1.1919  0.2007
   76MOL   H23624386   1.226   2.877   0.926 -1.8870  0.0549  1.0530
   76MOL   H23724387   1.415   3.202   0.878 -2.1194 -0.0828  0.0393
   76MOL   H23824388   1.588   3.233   0.699  0.0448 -0.2064 -2.0835
   76MOL   H23924389   1.616   3.054   0.529  0.8040  1.4430  1.8604
   76MOL   H24024390   1.498   2.848   0.531  1.2387  1.7775 -0.0091
   76MOL   H24124391   1.332   2.800   0.727  2.0096 -1.3029 -0.7879
   76MOL   C24224392   1.330   3.022   1.059 -0.3270 -0.0532  0.2033
   76MOL   C24324393   1.264   2.972   1.191 -0.1841  0.4852 -0.4722
   76MOL   C24424394   1.278   2.820   1.223 -0.2100 -1.0097 -0.1341
   76MOL   C24524395   1.188   2.763   1.316 -0.2185  0.9598  0.4797
   76MOL   C24624396   1.186   2.622   1.340  0.1854  0.5043 -0.0568
   76MOL   C24724397   1.266   2.537   1.264  0.1894  0.0079  0.1547
   76MOL   C24824398   1.369   2.596   1.184 -0.4989 -0.1361  0.0105
   76MOL   C24924399   1.378   2.735   1.165 -0.1445  0.0879 -0.0552
   76MOL   H25024400   1.346   3.129   1.059  1.3805 -0.1984  4.0124
   76MOL   H25124401   1.429   2.974   1.060  0.2728  1.1974  1.3063
   76MOL   H25224402   1.160   3.001   1.181 -0.3431  0.3269  0.7216
   76MOL   H25324403   1.113   2.825   1.363  1.2952  2.1867  1.3288
   76MOL   H25424404   1.124   2.581   1.418  0.3230  1.1480  0.3994
   76MOL   H25524405   1.255   2.431   1.275 -1.4023  0.1002 -0.3922
   76MOL   H25624406   1.431   2.531   1.125 -1.1178 -0.8894  0.1764
   76MOL   H25724407   1.442   2.780   1.090 -0.2812 -1.0970 -0.8879
   76MOL   C25824408   1.318   3.056   1.308  0.2262 -0.1127  0.3460
   76MOL   C25924409   1.269   3.196   1.323 -0.2522 -0.6352 -0.5141
   76MOL   C26024410   1.119   3.201   1.331 -0.4010 -0.1956 -0.0291
   76MOL   C26124411   1.051   3.269   1.222 -0.7418 -0.2822 -0.0216
   76MOL   C26224412   0.908   3.270   1.230 -0.0988 -0.3230 -0.3361
   76MOL   C26324413   0.839   3.207   1.334  0.6299  0.4083 -0.4248
   76MOL   C26424414   0.909   3.133   1.434 -0.3585  0.0677 -0.4334
   76MOL   C26524415   1.053   3.141   1.440  0.0761  0.3989 -0.2003
   76MOL   H26624416   1.424   3.031   1.304 -0.1668 -1.7500 -1.2567
   76MOL   H26724417   1.277   3.009   1.398  0.2145 -0.5348  0.1251
   76MOL   H26824418   1.297   3.255   1.235 -2.1947  0.1720 -0.6176
   76MOL   H26924419   1.109   3.326   1.151  0.3322 -0.1474  0.9523
   76MOL   H27024420   0.847   3.308   1.150  0.8601 -2.1242 -1.9527
   76MOL   H27124421   0.732   3.216   1.346  1.0073  3.2757  1.5610
   76MOL   H27224422   0.864   3.084   1.519  0.7215 -0.2913 -0.0631
   76MOL   H27324423   1.107   3.094   1.521 -1.5486 -2.8783 -0.9269
   76MOL   C27424424   1.339   3.274   1.440  0.1517  0.1786  0.3830
   76MOL   C27524425   1.463   3.344   1.395  0.3746  0.6227 -0.2142
   76MOL   C27624426   1.507   3.441   1.509  0.2623  0.1968 -0.0099
   76MOL   C27724427   1.524   3.584   1.486 -0.2258 -0.0717  0.3787
   76MOL   C27824428   1.563   3.671   1.587 -0.1527  0.3840  0.0244
   76MOL   C27924429   1.589   3.616   1.715  0.0972 -0.3101  0.8856
   76MOL   C28024430   1.555   3.485   1.745 -0.0056  0.6358 -0.0849
   76MOL   C28124431   1.514   3.399   1.642  0.2670 -0.3324  0.2699
   76MOL   H28224432   1.362   3.214   1.528  1.6117  0.9055  0.5122
   76MOL   H28324433   1.269   3.353   1.468 -0.7729  0.6033 -2.9482
   76MOL   H28424434   1.444   3.405   1.307  3.1856  3.0084  0.7124
   76MOL   H28524435   1.507   3.624   1.387 -1.8387 -0.1501  0.6225
   76MOL   H28624436   1.583   3.776   1.574 -1.4674  0.8370  1.5426
   76MOL   H28724437   1.613   3.683   1.797 -0.0435  1.2563 -0.3346
   76MOL   H28824438   1.560   3.447   1.846  2.3508  1.4393  0.1512
   76MOL   H28924439   1.498   3.294   1.658  0.5561 -0.2967  0.8308
   76MOL   C29024440   1.582   3.257   1.353  0.4285 -0.3277  0.0318
   76MOL   C29124441   1.713   3.332   1.305  0.3715 -1.0107 -0.5415
   76MOL   C29224442   1.847   3.273   1.359 -0.1235 -0.3085  0.0184
   76MOL   C29324443   1.889   3.151   1.323 -0.6794 -0.7735  0.5319
   76MOL   C29424444   2.000   3.093   1.381  0.4946  0.1973  0.3335
   76MOL   C29524445   2.067   3.163   1.482 -0.9453  0.3145 -0.0370
   76MOL   C29624446   2.047   3.297   1.504  0.1971 -0.7042 -0.0349
   76MOL   C29724447   1.928   3.352   1.446  0.2071  0.0045 -0.0950
   76MOL   H29824448   1.554   3.180   1.282  0.5670 -1.2777  1.0014
   76MOL   H29924449   1.609   3.198   1.441 -0.6253 -1.3478 -0.3271
   76MOL   H30024450   1.712   3.432   1.349 -2.6195 -0.0612 -2.5374
   76MOL   H30124451   1.826   3.094   1.256 -0.6036 -1.0371  0.6873
   76MOL   H30224452   2.028   2.991   1.360  0.8370  0.4040 -0.2382
   76MOL   H30324453   2.152   3.122   1.535 -1.2551 -0.0164  0.2069
   76MOL   H30424454   2.103   3.359   1.573 -0.5213  0.7259 -0.7216
   76MOL   H30524455   1.895   3.450   1.478  0.7433 -0.0573  0.6474
   76MOL   C30624456   1.719   3.362   1.152 -0.0755  0.0809  0.3217
   76MOL   C30724457   1.814   3.475   1.104  0.4160  0.3434 -0.6948
   76MOL   C30824458   1.863   3.475   0.968 -0.7269 -0.5175 -0.1489
   76MOL   C30924459   1.967   3.570   0.940 -0.0597  0.2307 -0.1157
   76MOL   C31024460   2.024   3.579   0.809 -0.3218 -0.3654  0.4022
   76MOL   C31124461   1.967   3.492   0.711  0.4123 -0.3286  0.1129
   76MOL   C31224462   1.859   3.407   0.740  0.0181 -0.2349 -0.1129
   76MOL   C31324463   1.809   3.394   0.869 -0.0274  0.1320 -0.1126
   76MOL   H31424464   1.621   3.383   1.110  0.0405  1.5161  0.7233
   76MOL   H31524465   1.743   3.268   1.103 -1.8643  0.1693 -0.7252
   76MOL   H31624466   1.896   3.482   1.176 -1.2167 -3.1648  1.6519
   76MOL   H31724467   2.001   3.641   1.013 -0.2080 -1.6753  1.8368
   76MOL   H31824468   2.099   3.650   0.777 -3.0747  1.9981 -1.1553
   76MOL   H31924469   2.002   3.483   0.609 -1.6947 -0.2316 -0.6409
   76MOL   H32024470   1.825   3.343   0.660  1.9888  1.2278 -2.1786
   76MOL   H32124471   1.729   3.324   0.892  0.0636 -0.0909 -0.4736
   76MOL   H32224472   1.759   3.568   1.116  0.8817  0.5802 -0.3789
   77MOL     C124473   3.935   2.712   6.779 -0.3500  0.1038  0.3048
   77MOL     C224474   3.898   2.819   6.673  0.7480  0.0597 -0.0752
   77MOL     C324475   3.767   2.890   6.707  0.5069 -0.1992  0.5292
   77MOL     C424476   3.763   2.980   6.811  0.1262 -0.8514  1.1650
   77MOL     C524477   3.649   3.056   6.841 -0.7755 -0.2423  0.2758
   77MOL     C624478   3.540   3.050   6.755  0.4575  0.6293 -0.0243
   77MOL     C724479   3.539   2.948   6.650 -0.0588  0.9013 -0.4080
   77MOL     C824480   3.655   2.867   6.628  0.4616 -0.0922  0.0573
   77MOL     H924481   3.953   2.767   6.872  0.4993  0.4111 -0.0417
   77MOL    H1024482   3.858   2.635   6.784  1.0007 -1.3054 -0.1970
   77MOL    H1124483   3.889   2.767   6.577 -0.3388  1.1037 -0.5508
   77MOL    H1224484   3.849   2.992   6.876  0.3504 -0.6925  0.8365
   77MOL    H1324485   3.644   3.112   6.933 -1.8887 -1.6585  1.0898
   77MOL    H1424486   3.457   3.115   6.776 -0.6048 -1.0430  1.0496
   77MOL    H1524487   3.455   2.941   6.582  0.9959  1.2875 -1.7719
   77MOL    H1624488   3.668   2.797   6.547  1.5963  1.6679 -1.3288
   77MOL    H1724489   4.030   2.663   6.761 -1.5970 -1.2628 -3.0182
   77MOL    C1824490   4.019   2.913   6.657  0.2305 -0.4988  0.0044
   77MOL    C1924491   3.999   3.007   6.532  0.1964 -0.0408 -1.1260
   77MOL    C2024492   4.085   3.135   6.536 -0.3051  0.3159  0.3793
   77MOL    C2124493   4.215   3.127   6.589 -0.1358  0.9372  0.6462
   77MOL    C2224494   4.287   3.249   6.609 -0.1686  0.2514 -0.5507
   77MOL    C2324495   4.228   3.377   6.574  0.0546 -0.1291  0.3060
   77MOL    C2424496   4.105   3.374   6.504  0.4081 -0.3452  0.1309
   77MOL    C2524497   4.035   3.257   6.495 -0.0387  0.0840  0.4167
   77MOL    H2624498   4.109   2.855   6.637  1.0509  0.7310  0.1298
   77MOL    H2724499   4.025   2.974   6.747 -0.9163 -0.0802 -0.1916
   77MOL    H2824500   3.897   3.047   6.526  0.1631  0.0585  0.0066
   77MOL    H2924501   4.262   3.032   6.610  1.5497  1.8958  1.2802
   77MOL    H3024502   4.383   3.244   6.659 -0.0919  0.5052 -0.6711
   77MOL    H3124503   4.272   3.473   6.595  0.5554 -0.2973  0.0317
   77MOL    H3224504   4.054   3.463   6.472 -1.1630 -2.2275 -2.8841
   77MOL    H3324505   3.941   3.253   6.442 -0.3052  0.2975  0.8732
   77MOL    C3424506   4.025   2.945   6.391  0.1464  0.3673 -0.0030
   77MOL    C3524507   3.891   2.928   6.320 -0.4112 -0.4599 -0.0434
   77MOL    C3624508   3.823   3.060   6.273 -0.0453  0.3657  0.8101
   77MOL    C3724509   3.888   3.135   6.170 -0.1600  0.2683  1.1400
   77MOL    C3824510   3.834   3.251   6.114  0.2603  0.1810 -0.5304
   77MOL    C3924511   3.713   3.293   6.174  0.3426  0.1432  0.5579
   77MOL    C4024512   3.647   3.224   6.280 -0.3082 -0.0301  0.3670
   77MOL    C4124513   3.697   3.101   6.324  0.3358  1.0068  0.2580
   77MOL    H4224514   4.077   2.850   6.400 -0.9079 -0.3247 -1.0470
   77MOL    H4324515   4.091   3.010   6.334 -1.0331  0.4886 -1.2740
   77MOL    H4424516   3.813   2.889   6.386 -0.3649  1.1348  0.9866
   77MOL    H4524517   3.969   3.091   6.114 -1.1638  1.1558 -1.0664
   77MOL    H4624518   3.890   3.309   6.042  0.8132  0.0257 -0.2277
   77MOL    H4724519   3.667   3.386   6.144  1.2181  0.6569  0.8056
   77MOL    H4824520   3.548   3.246   6.318 -0.7218 -0.6926 -0.2877
   77MOL    H4924521   3.649   3.039   6.398 -0.3867  1.1146 -0.1139
   77MOL    C5024522   3.907   2.818   6.211  0.3038 -0.0527 -0.2181
   77MOL    C5124523   3.878   2.674   6.251 -0.7972  0.1506  0.2112
   77MOL    C5224524   3.739   2.654   6.307  0.1584  0.5732 -0.4886
   77MOL    C5324525   3.625   2.729   6.275  0.4208  0.2980 -0.6545
   77MOL    C5424526   3.495   2.706   6.332 -0.0089  0.0189 -0.0196
   77MOL    C5524527   3.476   2.590   6.400 -0.0070 -0.4145 -0.8368
   77MOL    C5624528   3.583   2.508   6.438  0.1149 -0.1899 -0.1171
   77MOL    C5724529   3.714   2.545   6.394 -0.0771 -0.6629 -0.1882
   77MOL    H5824530   4.001   2.844   6.162  1.3992 -1.0301  1.3312
   77MOL    H5924531   3.840   2.842   6.128  0.8840  1.0776 -0.3757
   77MOL    H6024532   3.945   2.650   6.333 -0.3488 -0.6317 -0.3779
   77MOL    H6124533   3.624   2.813   6.207  2.5043 -0.2754 -1.4187
   77MOL    H6224534   3.415   2.777   6.314 -1.6323 -1.2878  1.8291
   77MOL    H6324535   3.377   2.562   6.433 -1.4409  2.5303 -2.4446
   77MOL    H6424536   3.559   2.419   6.494 -0.9386  0.4330  0.4269
   77MOL    H6524537   3.800   2.492   6.433 -0.7385 -1.4029  0.2924
   77MOL    C6624538   3.904   2.566   6.143  0.2115  0.3151  0.1257
   77MOL    C6724539   4.048   2.558   6.076  0.2166 -0.5188  0.2450
   77MOL    C6824540   4.162   2.546   6.180 -0.1589  0.4241  0.1967
   77MOL    C6924541   4.166   2.446   6.281  0.3489 -0.1141  0.4910
   77MOL    C7024542   4.277   2.443   6.365 -0.1661  0.4672  0.0755
   77MOL    C7124543   4.382   2.536   6.361  0.4893  0.6451 -0.7458
   77MOL    C7224544   4.383   2.635   6.263  0.1106  0.5144  0.0666
   77MOL    C7324545   4.272   2.639   6.170  0.0490  0.0255 -0.1028
   77MOL    H7424546   3.836   2.583   6.060  1.4183  0.1265 -0.9277
   77MOL    H7524547   3.881   2.465   6.176 -1.1213  0.1234 -1.3110
   77MOL    H7624548   4.058   2.655   6.027  1.5017 -1.6728 -1.8690
   77MOL    H7724549   4.084   2.376   6.285  0.4980 -0.4028 -1.0562
   77MOL    H7824550   4.277   2.365   6.440 -0.3854  0.1604 -0.2438
   77MOL    H7924551   4.465   2.518   6.428  0.3360  0.6921 -0.5482
   77MOL    H8024552   4.467   2.703   6.262  0.6570 -0.0980  1.7114
   77MOL    H8124553   4.267   2.722   6.102  2.0648 -0.0095 -0.3371
   77MOL    C8224554   4.057   2.445   5.970 -0.3920  0.1030 -0.7740
   77MOL    C8324555   3.923   2.412   5.885 -0.0274  0.3389  0.1161
   77MOL    C8424556   3.883   2.530   5.798 -0.6795 -0.3613  0.1999
   77MOL    C8524557   3.748   2.544   5.760 -0.0148 -0.4325  0.6601
   77MOL    C8624558   3.704   2.651   5.678 -0.1517  0.7207  1.1179
   77MOL    C8724559   3.791   2.750   5.641 -0.2630  1.0965  0.3471
   77MOL    C8824560   3.930   2.733   5.665 -0.5621 -0.1239  0.2830
   77MOL    C8924561   3.975   2.624   5.747 -0.0883 -0.9349  0.3477
   77MOL    H9024562   4.065   2.352   6.026  0.8890  1.3192  1.1291
   77MOL    H9124563   4.148   2.439   5.909 -0.3405 -1.2298 -0.5702
   77MOL    H9224564   3.843   2.400   5.959  0.8650  0.7055  1.1448
   77MOL    H9324565   3.683   2.468   5.801 -0.1044 -1.2303 -0.9307
   77MOL    H9424566   3.602   2.669   5.646  0.4418  1.3358 -0.5397
   77MOL    H9524567   3.757   2.829   5.576  2.3361  0.7066 -1.5984
   77MOL    H9624568   3.987   2.816   5.628 -2.0242  1.0373  0.5766
   77MOL    H9724569   4.081   2.610   5.761  0.1700  0.9265  0.5017
   77MOL    C9824570   3.925   2.279   5.800 -0.2139  0.4331  0.2161
   77MOL    C9924571   3.945   2.144   5.880 -0.7915  0.9116 -0.0677
   77MOL   C10024572   3.891   2.140   6.025 -0.1424  0.1237  0.4333
   77MOL   C10124573   3.756   2.168   6.051  0.1991 -0.2991 -0.4935
   77MOL   C10224574   3.712   2.176   6.186 -0.6043  0.2165 -0.1421
   77MOL   C10324575   3.802   2.161   6.292 -0.7688  0.4819 -0.2217
   77MOL   C10424576   3.940   2.138   6.268  0.3353 -0.1485  0.5363
   77MOL   C10524577   3.982   2.117   6.136 -0.0424 -0.2645  0.6609
   77MOL   H10624578   4.003   2.284   5.724 -0.5739  3.8167 -0.0174
   77MOL   H10724579   3.832   2.272   5.744  0.2504  1.7590 -0.7389
   77MOL   H10824580   4.053   2.139   5.897 -0.4363  2.0439 -1.8306
   77MOL   H10924581   3.687   2.184   5.969 -0.9479 -0.2616  0.4622
   77MOL   H11024582   3.608   2.190   6.211 -0.1345  0.0853  1.9445
   77MOL   H11124583   3.767   2.166   6.395 -2.2031 -0.3189 -0.6627
   77MOL   H11224584   4.007   2.143   6.353 -0.9649 -1.4221  1.6464
   77MOL   H11324585   4.086   2.097   6.118 -0.9337 -3.5833 -1.1606
   77MOL   C11424586   3.906   2.006   5.809 -0.0126 -0.2322  0.5150
   77MOL   C11524587   4.007   1.976   5.690  0.2075  0.4468 -0.1999
   77MOL   C11624588   4.038   1.825   5.681 -0.0704 -0.2199  1.5194
   77MOL   C11724589   3.937   1.723   5.690  0.3218  0.0228 -0.0513
   77MOL   C11824590   3.976   1.588   5.695 -0.0816 -0.3661  0.2790
   77MOL   C11924591   4.106   1.550   5.672  0.2195  0.4105  0.3542
   77MOL   C12024592   4.201   1.649   5.644 -0.3720 -0.2452  0.2455
   77MOL   C12124593   4.168   1.783   5.654 -0.7905  0.3170  0.2863
   77MOL   H12224594   3.800   1.997   5.786  0.3664 -0.4026 -1.1692
   77MOL   H12324595   3.931   1.930   5.883 -1.0024  0.5172  1.6285
   77MOL   H12424596   4.104   2.022   5.708  1.9049 -3.0672  0.2129
   77MOL   H12524597   3.838   1.755   5.720  1.2644  1.6204  1.3924
   77MOL   H12624598   3.913   1.505   5.722  1.8522 -2.3611 -1.1342
   77MOL   H12724599   4.124   1.443   5.675 -0.1471  0.3451  0.2996
   77MOL   H12824600   4.303   1.630   5.614 -0.5193  0.2127 -0.5567
   77MOL   H12924601   4.247   1.852   5.629 -1.2569  1.5884  2.2135
   77MOL   C13024602   3.927   2.021   5.563 -0.6325  0.3500 -0.1881
   77MOL   C13124603   4.009   2.080   5.441  0.3567 -0.3883  0.6471
   77MOL   C13224604   4.123   1.992   5.384  0.3243 -0.3091 -1.0383
   77MOL   C13324605   4.255   2.031   5.384 -0.1004  0.0889 -0.1889
   77MOL   C13424606   4.350   1.951   5.318 -0.6205  0.2737 -0.3560
   77MOL   C13524607   4.320   1.828   5.261  0.0668 -0.1051 -0.4156
   77MOL   C13624608   4.188   1.783   5.271  0.3892  0.1211  0.4302
   77MOL   C13724609   4.088   1.865   5.334 -0.0938  0.1136  0.3797
   77MOL   H13824610   3.861   2.101   5.598 -0.1869  1.6298 -2.1816
   77MOL   H13924611   3.861   1.939   5.534 -1.8369  0.0222  3.2286
   77MOL   H14024612   4.066   2.164   5.481  0.5831 -0.1386 -0.1694
   77MOL   H14124613   4.287   2.123   5.429  0.5881 -0.6774  0.9268
   77MOL   H14224614   4.455   1.978   5.320 -0.3517 -0.3311 -3.4875
   77MOL   H14324615   4.395   1.766   5.214  2.7617  0.3395  3.1092
   77MOL   H14424616   4.163   1.692   5.218 -1.6455  0.2178  1.1429
   77MOL   H14524617   3.989   1.824   5.345 -0.2505  0.0946 -1.0147
   77MOL   C14624618   3.926   2.138   5.319 -0.6640  0.4259  0.2193
   77MOL   C14724619   3.911   2.299   5.311 -0.2468 -0.1945  0.5129
   77MOL   C14824620   4.046   2.372   5.342  0.0241 -0.8324  0.1260
   77MOL   C14924621   4.041   2.480   5.434  0.1857  0.1901  0.1850
   77MOL   C15024622   4.161   2.545   5.475  0.3061  0.0459 -0.0780
   77MOL   C15124623   4.287   2.498   5.424  0.1249 -0.6562 -1.2114
   77MOL   C15224624   4.283   2.403   5.317  0.3302 -0.1324  0.3403
   77MOL   C15324625   4.168   2.335   5.276 -0.1493 -0.1219  0.3683
   77MOL   H15424626   3.833   2.082   5.322  0.0907 -0.8091  1.2253
   77MOL   H15524627   3.968   2.113   5.222 -0.2512 -1.1796  0.8005
   77MOL   H15624628   3.847   2.328   5.395  1.7231  1.0809  1.6254
   77MOL   H15724629   3.951   2.523   5.476  1.8512  1.5585  2.5143
   77MOL   H15824630   4.162   2.640   5.525 -1.1905  0.3967 -0.6969
   77MOL   H15924631   4.375   2.553   5.453 -0.8084 -0.5225  1.4529
   77MOL   H16024632   4.379   2.371   5.279  1.3894  3.1522  0.1329
   77MOL   H16124633   4.173   2.261   5.197 -1.9509 -0.0504  0.1629
   77MOL   C16224634   3.848   2.336   5.173  0.2287 -0.4006 -0.2483
   77MOL   C16324635   3.852   2.479   5.130  0.2999  0.0220  0.3939
   77MOL   C16424636   3.827   2.480   4.979 -0.1077 -0.2724 -0.2992
   77MOL   C16524637   3.938   2.513   4.889 -0.1278 -0.9138  0.7005
   77MOL   C16624638   3.927   2.490   4.756 -0.2549  0.3080  0.5434
   77MOL   C16724639   3.799   2.455   4.701 -0.1370  0.2290 -0.4060
   77MOL   C16824640   3.690   2.434   4.786 -0.4444 -0.2567  0.4612
   77MOL   C16924641   3.708   2.445   4.925  0.0030  0.5869 -0.6203
   77MOL   H17024642   3.747   2.297   5.159 -0.1451  0.3287  0.3849
   77MOL   H17124643   3.915   2.283   5.106  0.2338 -0.1778 -0.4212
   77MOL   H17224644   3.950   2.523   5.152  0.1351  1.1044 -0.9225
   77MOL   H17324645   4.032   2.548   4.929 -0.3868  2.1183 -1.1825
   77MOL   H17424646   4.016   2.500   4.696 -1.5713 -0.3792 -1.5826
   77MOL   H17524647   3.783   2.431   4.597 -1.0188  1.0745 -0.4697
   77MOL   H17624648   3.594   2.396   4.755 -0.3245 -2.3265  2.4433
   77MOL   H17724649   3.634   2.412   4.997 -2.1190  4.4587 -0.9434
   77MOL   C17824650   3.750   2.558   5.212 -0.3320 -0.1599  0.4155
   77MOL   C17924651   3.756   2.718   5.186  0.6094  0.3215 -0.8827
   77MOL   C18024652   3.619   2.783   5.217 -0.0771 -0.0077 -0.7551
   77MOL   C18124653   3.558   2.874   5.123  0.0033 -1.0432 -0.6383
   77MOL   C18224654   3.440   2.939   5.164  1.0649 -0.5072 -0.1445
   77MOL   C18324655   3.386   2.922   5.292 -0.0305 -0.0694  0.1984
   77MOL   C18424656   3.449   2.831   5.381 -0.0083 -0.1494  0.2512
   77MOL   C18524657   3.558   2.754   5.339  0.2033  0.1349  0.2120
   77MOL   H18624658   3.760   2.546   5.320  0.5664  0.4328  0.4024
   77MOL   H18724659   3.646   2.524   5.205  0.3842 -2.0284 -1.4383
   77MOL   H18824660   3.752   2.733   5.078 -0.7392  1.0951 -0.7346
   77MOL   H18924661   3.611   2.892   5.031  1.4797 -2.1211 -0.0262
   77MOL   H19024662   3.385   3.008   5.102  1.1933  0.4141  0.7432
   77MOL   H19124663   3.303   2.980   5.329 -1.4052 -1.9118  0.0582
   77MOL   H19224664   3.403   2.814   5.477 -0.7837  1.2382  0.1503
   77MOL   H19324665   3.613   2.694   5.411  0.9607  2.7940  1.9205
   77MOL   C19424666   3.878   2.794   5.251 -0.0429 -0.3857  0.5574
   77MOL   C19524667   3.890   2.946   5.237  0.2436 -0.0560  0.1471
   77MOL   C19624668   3.964   2.998   5.358  0.3096  0.3493  0.8827
   77MOL   C19724669   4.097   2.968   5.378 -0.3978 -0.2463 -0.4078
   77MOL   C19824670   4.162   3.008   5.499 -0.2498 -0.1810 -0.5297
   77MOL   C19924671   4.100   3.100   5.589  0.6371 -0.2528 -0.3332
   77MOL   C20024672   3.967   3.138   5.557  0.2321  0.0853  0.3793
   77MOL   C20124673   3.893   3.080   5.451 -0.5534  0.1295  0.3022
   77MOL   H20224674   3.972   2.743   5.228  0.4817 -0.2620  2.3371
   77MOL   H20324675   3.865   2.775   5.358 -1.3102  2.9171  1.0399
   77MOL   H20424676   3.792   2.991   5.248  0.8102  1.8182 -2.1432
   77MOL   H20524677   4.158   2.909   5.311 -1.0277  0.3955 -1.5592
   77MOL   H20624678   4.263   2.972   5.511 -0.1875  0.3161  0.4659
   77MOL   H20724679   4.157   3.138   5.672  0.9570 -1.2816 -0.0710
   77MOL   H20824680   3.904   3.207   5.612 -0.6048 -0.5467  0.2278
   77MOL   H20924681   3.787   3.094   5.433 -0.2408  1.5333 -0.5465
   77MOL   C21024682   3.951   2.995   5.099 -0.4197 -0.2679 -0.2836
   77MOL   C21124683   3.918   3.145   5.079 -0.7992  0.4169 -0.5894
   77MOL   C21224684   4.040   3.210   5.017 -0.5452  0.4379  0.0620
   77MOL   C21324685   4.145   3.260   5.097  0.2134 -0.2845 -0.0691
   77MOL   C21424686   4.261   3.323   5.042 -0.2025  0.0695  0.3546
   77MOL   C21524687   4.280   3.326   4.898  0.6707 -0.6137  0.1228
   77MOL   C21624688   4.179   3.263   4.815  0.3647 -0.7102  0.4256
   77MOL   C21724689   4.059   3.214   4.874 -0.0332 -0.0751 -0.2272
   77MOL   H21824690   3.908   2.939   5.016 -0.7234  0.3737 -0.5583
   77MOL   H21924691   4.059   2.976   5.099 -0.0053  1.9838 -0.0942
   77MOL   H22024692   3.919   3.180   5.183  0.9402 -2.3347  0.3832
   77MOL   H22124693   4.133   3.254   5.204  1.5132  0.6607  0.1325
   77MOL   H22224694   4.333   3.366   5.109  1.1755  0.5951 -1.4115
   77MOL   H22324695   4.361   3.385   4.858  1.1808 -1.6622 -0.4145
   77MOL   H22424696   4.190   3.250   4.708  2.6347 -1.2406  0.6928
   77MOL   H22524697   3.978   3.176   4.814  0.3569  0.9141 -1.3973
   77MOL   C22624698   3.779   3.173   5.022 -0.0040  0.3823 -0.5380
   77MOL   C22724699   3.737   3.321   5.018  0.5033 -0.5306 -0.1764
   77MOL   C22824700   3.625   3.347   4.917  0.3787 -1.1111  0.0254
   77MOL   C22924701   3.647   3.433   4.806 -0.2753  0.8751 -0.2466
   77MOL   C23024702   3.549   3.450   4.705  0.0546 -0.2960 -0.6676
   77MOL   C23124703   3.432   3.373   4.711  0.3786  0.5537 -0.3002
   77MOL   C23224704   3.404   3.288   4.822  0.3193  0.4168  0.0809
   77MOL   C23324705   3.500   3.283   4.926  0.3338  0.3866 -0.5644
   77MOL   H23424706   3.707   3.114   5.079  1.4058 -0.6103  0.2456
   77MOL   H23524707   3.779   3.131   4.921  0.7847 -0.1494 -0.3224
   77MOL   H23624708   3.815   3.388   4.981 -0.6884  1.7474  1.2880
   77MOL   H23724709   3.730   3.502   4.812 -0.3403  0.9583 -0.3019
   77MOL   H23824710   3.560   3.514   4.619  1.8697  1.9985  1.1994
   77MOL   H23924711   3.357   3.375   4.633  0.4057 -1.3830 -0.4085
   77MOL   H24024712   3.321   3.220   4.822  0.4545  0.2507 -0.1619
   77MOL   H24124713   3.473   3.227   5.014 -1.8191  1.4462 -0.5178
   77MOL   C24224714   3.687   3.359   5.160  0.1376 -1.3842  0.1212
   77MOL   C24324715   3.686   3.512   5.200  0.7890  0.0285 -0.2436
   77MOL   C24424716   3.627   3.518   5.344  0.3416  0.4548 -0.0566
   77MOL   C24524717   3.486   3.540   5.363 -0.8595 -0.7733 -0.0989
   77MOL   C24624718   3.430   3.544   5.493  0.4630  0.3261 -0.4714
   77MOL   C24724719   3.515   3.521   5.606  0.1180 -0.4311  0.5849
   77MOL   C24824720   3.647   3.491   5.584 -0.4747 -0.2851 -0.1111
   77MOL   C24924721   3.703   3.489   5.455  0.5495 -0.7570 -0.6057
   77MOL   H25024722   3.756   3.318   5.234 -1.6105  0.7774  3.0608
   77MOL   H25124723   3.588   3.322   5.185  0.2306 -1.1078  0.9228
   77MOL   H25224724   3.604   3.551   5.139  0.0363  0.0872  0.8006
   77MOL   H25324725   3.432   3.560   5.272  0.8997 -1.8841 -1.4192
   77MOL   H25424726   3.327   3.561   5.519  0.4794 -1.6839  1.0166
   77MOL   H25524727   3.477   3.526   5.707  0.3153  0.3932  0.6247
   77MOL   H25624728   3.716   3.465   5.663 -1.8582  3.1083  2.3425
   77MOL   H25724729   3.808   3.464   5.453 -0.0371 -3.2490 -2.5510
   77MOL   C25824730   3.817   3.588   5.165  0.3494 -0.3457 -0.2876
   77MOL   C25924731   3.811   3.735   5.219 -0.3534 -0.0033 -0.3964
   77MOL   C26024732   3.949   3.796   5.195  0.7124  0.3200  0.2954
   77MOL   C26124733   3.982   3.852   5.070 -0.4465  0.5211 -0.6542
   77MOL   C26224734   4.113   3.898   5.041 -0.0240 -0.0455  0.2532
   77MOL   C26324735   4.211   3.884   5.137  0.0246 -0.4209 -0.1753
   77MOL   C26424736   4.178   3.842   5.266  0.1987 -0.3538 -0.8782
   77MOL   C26524737   4.052   3.796   5.299  0.1640  0.7240  0.2661
   77MOL   H26624738   3.829   3.599   5.057  2.2668  0.8775  0.0353
   77MOL   H26724739   3.905   3.538   5.206  2.2225  1.9247 -1.4217
   77MOL   H26824740   3.802   3.732   5.327  2.1519 -1.9413 -0.1908
   77MOL   H26924741   3.905   3.870   4.997 -1.5910  0.3870  0.5035
   77MOL   H27024742   4.125   3.935   4.940  1.8767 -0.4496  0.3094
   77MOL   H27124743   4.306   3.933   5.123 -0.7561  1.8415  2.0770
   77MOL   H27224744   4.251   3.844   5.346  0.5712 -0.2857 -1.2208
   77MOL   H27324745   4.023   3.771   5.400 -0.3210  0.4147  0.0508
   77MOL   C27424746   3.687   3.813   5.165 -0.7289 -0.0652 -0.1496
   77MOL   C27524747   3.679   3.964   5.185 -0.0901 -0.2554 -0.5952
   77MOL   C27624748   3.554   4.016   5.124  0.1795 -0.3546 -0.2583
   77MOL   C27724749   3.564   4.065   4.995  0.1717 -0.0273 -0.6565
   77MOL   C27824750   3.443   4.103   4.926 -0.0174 -0.0905 -0.4665
   77MOL   C27924751   3.318   4.103   4.992  0.3626  0.8423 -0.4817
   77MOL   C28024752   3.303   4.043   5.119 -0.8764 -0.3954  0.0527
   77MOL   C28124753   3.422   4.010   5.188 -0.0335 -0.3104  0.5000
   77MOL   H28224754   3.597   3.773   5.213  0.4871 -3.0504 -0.2589
   77MOL   H28324755   3.677   3.792   5.059 -1.1064 -2.7420  0.3764
   77MOL   H28424756   3.765   4.015   5.143  2.0258 -2.5037  0.8837
   77MOL   H28524757   3.660   4.074   4.948  0.2384  0.4019 -0.4394
   77MOL   H28624758   3.451   4.146   4.827 -0.9129 -0.0681 -0.5302
   77MOL   H28724759   3.226   4.140   4.949  0.8091 -1.1697 -3.3059
   77MOL   H28824760   3.206   4.035   5.165 -2.1526  2.2189 -2.1049
   77MOL   H28924761   3.409   3.977   5.290  0.4170 -2.3626 -0.0871
   77MOL   C29024762   3.681   3.982   5.343  0.6995 -0.3294  0.2984
   77MOL   C29124763   3.667   4.120   5.405 -0.1026  0.4159  0.7039
   77MOL   C29224764   3.618   4.122   5.551 -0.6038 -0.6932  0.0978
   77MOL   C29324765   3.551   4.240   5.603 -0.4233 -0.2350  0.6228
   77MOL   C29424766   3.521   4.252   5.739  0.4920 -0.2405  0.2735
   77MOL   C29524767   3.546   4.144   5.831 -0.0617  0.1726  0.0051
   77MOL   C29624768   3.604   4.029   5.775 -0.5105  0.1170 -0.2949
   77MOL   C29724769   3.642   4.016   5.642 -0.5782 -0.0330  0.3248
   77MOL   H29824770   3.779   3.951   5.380 -0.7777 -1.3148  3.5113
   77MOL   H29924771   3.611   3.910   5.385  1.1568 -1.0553 -0.1681
   77MOL   H30024772   3.587   4.168   5.350  0.6641 -0.4182 -1.1841
   77MOL   H30124773   3.518   4.329   5.552  0.4310  1.1447  2.4536
   77MOL   H30224774   3.463   4.339   5.765 -1.4161 -1.2568 -0.5004
   77MOL   H30324775   3.516   4.152   5.934 -1.2434 -0.7883 -0.2455
   77MOL   H30424776   3.628   3.954   5.848 -0.8410  1.2024  0.9517
   77MOL   H30524777   3.693   3.933   5.596 -2.8226 -1.1397 -0.2653
   77MOL   C30624778   3.796   4.204   5.384  0.1527  0.5886 -0.6886
   77MOL   C30724779   3.903   4.186   5.506 -0.2671  0.0109  0.1303
   77MOL   C30824780   4.036   4.223   5.463  0.0668 -0.8778  0.3466
   77MOL   C30924781   4.109   4.169   5.353  0.0808  0.9625 -0.0217
   77MOL   C31024782   4.233   4.214   5.317  0.5692 -0.5067  0.2553
   77MOL   C31124783   4.295   4.313   5.394 -0.0598 -0.5747  0.8589
   77MOL   C31224784   4.225   4.382   5.495  0.0232 -0.0644 -0.0742
   77MOL   C31324785   4.099   4.330   5.533 -0.2973 -0.1115  0.2190
   77MOL   H31424786   3.780   4.312   5.374  0.3905  0.8495  1.5297
   77MOL   H31524787   3.846   4.170   5.294 -0.6254  0.0921 -0.9351
   77MOL   H31624788   3.908   4.078   5.521  0.5104  0.0076 -0.1361
   77MOL   H31724789   4.060   4.089   5.299 -1.3301  2.3110 -0.7885
   77MOL   H31824790   4.273   4.164   5.230 -2.1171 -2.0457 -0.1507
   77MOL   H31924791   4.391   4.348   5.360  0.0230 -2.8503 -1.4205
   77MOL   H32024792   4.269   4.469   5.543  1.1069  0.7581 -2.4597
   77MOL   H32124793   4.048   4.377   5.615  1.9054 -2.5290  3.0852
   77MOL   H32224794   3.866   4.240   5.593 -4.2479  0.1238 -1.5340
   78MOL     C124795   4.590   1.218   4.234 -0.1500 -0.0283 -0.2071
   78MOL     C224796   4.539   1.362   4.226  0.1847 -0.2133 -0.5695
   78MOL     C324797   4.511   1.409   4.086 -0.6902  0.1418 -0.2412
   78MOL     C424798   4.588   1.502   4.012 -0.1842 -0.0677 -0.0010
   78MOL     C524799   4.547   1.539   3.880  0.1552  0.0236 -1.1023
   78MOL     C624800   4.447   1.477   3.806  0.0158 -0.7484  0.5062
   78MOL     C724801   4.376   1.373   3.875 -0.1103 -0.0239  0.4066
   78MOL     C824802   4.406   1.351   4.012 -0.3555  0.2699 -0.1485
   78MOL     H924803   4.516   1.146   4.197  0.1593 -0.1453 -0.6040
   78MOL    H1024804   4.683   1.206   4.179  1.9584  2.7666  2.6059
   78MOL    H1124805   4.620   1.428   4.256 -1.4232  2.0544 -1.0643
   78MOL    H1224806   4.678   1.543   4.055  0.2516 -2.8491  1.8966
   78MOL    H1324807   4.580   1.632   3.837  0.0555 -0.1851 -1.6320
   78MOL    H1424808   4.415   1.516   3.711 -2.6115 -1.2506  1.1604
   78MOL    H1524809   4.300   1.324   3.816  0.8472  0.2084 -1.0354
   78MOL    H1624810   4.353   1.272   4.064  0.1133  0.2697  0.3357
   78MOL    H1724811   4.606   1.178   4.334  0.7043 -3.5309 -1.6348
   78MOL    C1824812   4.419   1.398   4.313 -0.0833  0.1689 -0.0324
   78MOL    C1924813   4.450   1.418   4.466  0.3718 -0.0572 -0.3036
   78MOL    C2024814   4.562   1.511   4.503  0.4026 -0.8169 -0.3573
   78MOL    C2124815   4.586   1.625   4.422 -0.5953 -0.4499 -0.2733
   78MOL    C2224816   4.701   1.697   4.446 -0.4294 -0.2438 -0.1323
   78MOL    C2324817   4.800   1.653   4.543 -0.0920 -0.2455 -0.4386
   78MOL    C2424818   4.771   1.547   4.626  0.3066  0.2892 -0.0293
   78MOL    C2524819   4.648   1.481   4.614 -0.2088  0.0710 -0.0325
   78MOL    H2624820   4.353   1.315   4.293 -0.7080  0.1949  1.8170
   78MOL    H2724821   4.368   1.484   4.270  1.2898  0.2266 -1.5989
   78MOL    H2824822   4.483   1.323   4.509 -1.6860  0.2362  2.0420
   78MOL    H2924823   4.522   1.653   4.339 -2.8384 -1.3180  1.1034
   78MOL    H3024824   4.715   1.783   4.383 -2.5886 -1.5513 -2.5087
   78MOL    H3124825   4.892   1.704   4.566  0.4787 -1.0716 -0.8788
   78MOL    H3224826   4.835   1.510   4.705  1.7796  0.1860 -1.2548
   78MOL    H3324827   4.641   1.398   4.683  0.6101  0.5608  0.6470
   78MOL    C3424828   4.318   1.470   4.535  0.5436 -0.0737  0.6042
   78MOL    C3524829   4.238   1.360   4.607  0.4380  0.8453 -0.0569
   78MOL    C3624830   4.317   1.303   4.723 -0.3293  0.6471 -1.1530
   78MOL    C3724831   4.379   1.176   4.715  0.4014  0.0415 -0.7376
   78MOL    C3824832   4.456   1.119   4.822  0.0746  0.5503  0.2163
   78MOL    C3924833   4.446   1.174   4.947 -0.3182 -0.4652 -0.1979
   78MOL    C4024834   4.384   1.301   4.958  0.7858 -0.0758  0.6035
   78MOL    C4124835   4.325   1.370   4.849  0.1303  0.2688 -0.6029
   78MOL    H4224836   4.255   1.524   4.465  0.7797 -0.6000 -0.0149
   78MOL    H4324837   4.359   1.530   4.616  1.1372 -0.3772  0.5280
   78MOL    H4424838   4.217   1.287   4.530  1.7153 -2.6482  2.7680
   78MOL    H4524839   4.379   1.137   4.614  0.6835  0.1598 -0.7832
   78MOL    H4624840   4.497   1.019   4.812 -2.0463 -0.5033  1.7704
   78MOL    H4724841   4.490   1.123   5.031 -0.3078  0.2944  0.2658
   78MOL    H4824842   4.377   1.337   5.059  0.2426  1.7473 -0.0772
   78MOL    H4924843   4.270   1.462   4.868  0.4385  0.3690 -0.1939
   78MOL    C5024844   4.100   1.409   4.655  0.0439  0.7285 -0.4645
   78MOL    C5124845   3.997   1.434   4.541 -0.1922  0.4444  0.3038
   78MOL    C5224846   4.000   1.336   4.420  0.1946  0.0271 -0.5149
   78MOL    C5324847   3.958   1.201   4.436 -0.5302 -0.1802  0.2355
   78MOL    C5424848   3.955   1.104   4.331 -0.1040 -0.0795  0.4162
   78MOL    C5524849   3.998   1.149   4.212 -0.7448 -0.6002  0.6229
   78MOL    C5624850   4.039   1.282   4.187  0.0465 -0.0286 -0.3475
   78MOL    C5724851   4.038   1.379   4.292 -0.8551 -0.2305  0.5437
   78MOL    H5824852   4.118   1.490   4.727  1.7338 -0.5241  0.5425
   78MOL    H5924853   4.063   1.326   4.715  1.7500  1.5724  1.8118
   78MOL    H6024854   4.013   1.533   4.497  0.0299  0.5451  0.6100
   78MOL    H6124855   3.918   1.168   4.530 -0.5656  0.1362  0.3307
   78MOL    H6224856   3.919   1.003   4.344 -0.8939 -0.1598 -2.0983
   78MOL    H6324857   4.003   1.089   4.123  2.1726 -1.4084  1.2760
   78MOL    H6424858   4.065   1.310   4.086  1.8867  0.7531  0.3301
   78MOL    H6524859   4.068   1.482   4.277 -0.2153 -0.6059 -0.8189
   78MOL    C6624860   3.858   1.449   4.600  0.2018  0.3523  0.9596
   78MOL    C6724861   3.738   1.477   4.496 -0.0954  0.6759 -0.6475
   78MOL    C6824862   3.611   1.457   4.573 -0.5594 -0.5012  0.8050
   78MOL    C6924863   3.508   1.402   4.490 -0.2413 -0.4272 -0.5809
   78MOL    C7024864   3.380   1.386   4.537 -0.0229  0.0654 -0.1058
   78MOL    C7124865   3.348   1.447   4.653  0.6213  0.2234  0.6518
   78MOL    C7224866   3.445   1.511   4.735  0.0764  0.1538  0.0505
   78MOL    C7324867   3.581   1.508   4.701  0.1885  0.3131 -0.1655
   78MOL    H7424868   3.864   1.528   4.675 -1.6158  2.5859 -1.1499
   78MOL    H7524869   3.823   1.356   4.645  0.1601  0.6677  1.5880
   78MOL    H7624870   3.745   1.400   4.419 -1.5241  1.2282 -1.3556
   78MOL    H7724871   3.534   1.359   4.394 -1.2194 -1.1635 -0.5267
   78MOL    H7824872   3.311   1.331   4.475 -1.1381  0.3191  0.8955
   78MOL    H7924873   3.245   1.445   4.684  0.1088 -2.8605 -1.0711
   78MOL    H8024874   3.414   1.555   4.829  0.6359  0.4732  0.0873
   78MOL    H8124875   3.659   1.541   4.769  1.8454 -0.2533 -1.7476
   78MOL    C8224876   3.740   1.615   4.437  0.6345 -0.1514  0.2130
   78MOL    C8324877   3.770   1.637   4.286 -0.1075 -0.1194  0.7441
   78MOL    C8424878   3.673   1.562   4.201 -0.1093  0.1577  0.2491
   78MOL    C8524879   3.719   1.455   4.122  0.3197  0.3736  0.5291
   78MOL    C8624880   3.630   1.379   4.045  0.2200  0.1433  0.4447
   78MOL    C8724881   3.494   1.413   4.033  0.1894 -0.8988 -0.1080
   78MOL    C8824882   3.452   1.515   4.114  0.1067  0.0879  0.3971
   78MOL    C8924883   3.540   1.590   4.197  0.5615 -0.7552 -1.3216
   78MOL    H9024884   3.807   1.673   4.501  0.0004  1.8234 -0.8616
   78MOL    H9124885   3.644   1.659   4.461  0.8431  0.8386 -0.7376
   78MOL    H9224886   3.861   1.579   4.270 -2.3603 -3.6926  0.3294
   78MOL    H9324887   3.823   1.425   4.123  0.2000 -0.0684  2.2493
   78MOL    H9424888   3.674   1.293   3.997  2.3105  1.0590  0.6958
   78MOL    H9524889   3.426   1.361   3.968  0.1778 -0.0974 -0.7427
   78MOL    H9624890   3.348   1.545   4.112  0.8485  2.7938  1.3324
   78MOL    H9724891   3.498   1.670   4.257  1.6095 -0.0764 -1.4794
   78MOL    C9824892   3.763   1.791   4.249 -0.0317 -1.2182  0.0382
   78MOL    C9924893   3.896   1.863   4.283  0.6570 -0.1669  0.6548
   78MOL   C10024894   4.022   1.818   4.217 -0.3504  0.6705  0.1264
   78MOL   C10124895   4.034   1.811   4.073  0.0426  0.4823 -0.4787
   78MOL   C10224896   4.149   1.761   4.013  0.5774 -0.0484 -0.2241
   78MOL   C10324897   4.254   1.722   4.093  0.1506 -0.7371 -0.3883
   78MOL   C10424898   4.251   1.733   4.232 -0.4919 -0.3018  1.1958
   78MOL   C10524899   4.137   1.785   4.295  0.1182 -0.5270  0.4010
   78MOL   H10624900   3.672   1.831   4.295  0.8904 -0.1247  0.9694
   78MOL   H10724901   3.758   1.795   4.140  1.1794 -0.9773 -0.0147
   78MOL   H10824902   3.903   1.839   4.390  1.3118  0.6507  0.8027
   78MOL   H10924903   3.948   1.842   4.015  0.7685  1.0212 -1.2672
   78MOL   H11024904   4.156   1.741   3.907  1.0183 -1.6299  0.0923
   78MOL   H11124905   4.342   1.680   4.045  1.6102  1.8538 -0.0925
   78MOL   H11224906   4.325   1.692   4.299 -0.9598 -1.2470  1.1400
   78MOL   H11324907   4.116   1.788   4.400  1.0329 -2.7590  0.6809
   78MOL   C11424908   3.888   2.016   4.284 -0.6849 -0.6176  0.3575
   78MOL   C11524909   4.025   2.096   4.319 -0.0857  0.0841  0.3218
   78MOL   C11624910   4.035   2.234   4.262  1.2867 -0.3855  0.3140
   78MOL   C11724911   4.039   2.362   4.331 -0.0889  0.4966  0.0424
   78MOL   C11824912   4.043   2.481   4.267 -0.5806  0.5978  0.3183
   78MOL   C11924913   4.057   2.480   4.126  0.2099 -0.4347 -0.6320
   78MOL   C12024914   4.055   2.361   4.055  0.3857 -0.0922 -0.3429
   78MOL   C12124915   4.036   2.239   4.122 -0.0642 -0.3716  0.1973
   78MOL   H12224916   3.813   2.050   4.355 -0.1693 -0.0051  0.6165
   78MOL   H12324917   3.849   2.058   4.191 -2.7718  0.8747  1.8801
   78MOL   H12424918   4.109   2.051   4.265  1.0049  0.7249  1.4449
   78MOL   H12524919   4.025   2.375   4.438 -0.5688  1.6190 -0.1440
   78MOL   H12624920   4.047   2.570   4.328 -1.5945  0.2597  0.8961
   78MOL   H12724921   4.083   2.572   4.077  0.5140 -0.9754 -1.5027
   78MOL   H12824922   4.058   2.365   3.947 -2.6824 -1.2395 -0.5104
   78MOL   H12924923   4.033   2.149   4.062  0.7235 -0.5338  0.3891
   78MOL   C13024924   4.050   2.088   4.470 -0.1658 -0.3483 -0.2574
   78MOL   C13124925   4.185   2.131   4.537 -0.2689 -0.3108 -0.6095
   78MOL   C13224926   4.179   2.122   4.694  0.5567 -0.8792  0.5061
   78MOL   C13324927   4.159   2.230   4.774  0.3723 -0.0917  0.3176
   78MOL   C13424928   4.143   2.210   4.918 -0.1416  0.5227  0.3343
   78MOL   C13524929   4.125   2.085   4.974 -0.0349  0.1833  0.2175
   78MOL   C13624930   4.143   1.977   4.892 -0.4085 -0.3909 -0.1348
   78MOL   C13724931   4.175   1.994   4.756 -0.3269 -1.1670  0.8049
   78MOL   H13824932   4.019   1.988   4.501  1.2566  0.1143  2.9030
   78MOL   H13924933   3.971   2.152   4.510 -1.3300 -1.9099 -0.0111
   78MOL   H14024934   4.200   2.239   4.534  1.2976 -0.5318 -1.1222
   78MOL   H14124935   4.164   2.335   4.747  1.7581  0.2566  1.8193
   78MOL   H14224936   4.136   2.301   4.976  1.6788  1.1856 -0.4463
   78MOL   H14324937   4.100   2.071   5.078 -1.5019  1.6241  0.0791
   78MOL   H14424938   4.135   1.873   4.922 -1.5416 -0.2533  0.0464
   78MOL   H14524939   4.184   1.905   4.695 -0.7621 -1.9876  1.9169
   78MOL   C14624940   4.307   2.063   4.467 -0.7117 -0.1289  0.1363
   78MOL   C14724941   4.454   2.083   4.515 -0.4854 -0.3050  0.3713
   78MOL   C14824942   4.490   2.029   4.650  0.6884  0.2573  0.0969
   78MOL   C14924943   4.505   2.119   4.754 -0.2119  0.0043 -0.1014
   78MOL   C15024944   4.543   2.079   4.878 -0.0844  0.4900 -0.2416
   78MOL   C15124945   4.550   1.947   4.911  0.6975  0.3242 -0.8993
   78MOL   C15224946   4.512   1.846   4.819  0.5226  0.3258 -0.3104
   78MOL   C15324947   4.486   1.888   4.687 -0.4180 -0.0384  0.1659
   78MOL   H15424948   4.301   2.113   4.370 -0.6403 -0.1692  0.1111
   78MOL   H15524949   4.295   1.955   4.459 -3.3598  0.2505 -1.2777
   78MOL   H15624950   4.467   2.191   4.525 -0.6034 -0.4395  2.0765
   78MOL   H15724951   4.494   2.225   4.734  3.6080  0.7605  1.3892
   78MOL   H15824952   4.569   2.157   4.949 -3.0962  1.9016 -0.6159
   78MOL   H15924953   4.575   1.914   5.011 -2.0404  3.8802  1.0548
   78MOL   H16024954   4.521   1.742   4.848  0.1957  0.1200 -0.9304
   78MOL   H16124955   4.462   1.817   4.609  1.0006 -0.8086  0.3990
   78MOL   C16224956   4.563   2.038   4.402  1.1160  0.0310 -0.7136
   78MOL   C16324957   4.536   2.095   4.264 -0.0595  0.0961 -0.0478
   78MOL   C16424958   4.525   2.249   4.262  1.3147 -0.5790  0.1034
   78MOL   C16524959   4.419   2.313   4.187 -0.1764 -0.4153  0.4815
   78MOL   C16624960   4.408   2.450   4.174 -0.2769 -0.4907  0.1957
   78MOL   C16724961   4.503   2.535   4.238 -0.4010  0.9304 -0.7411
   78MOL   C16824962   4.603   2.472   4.316  0.3634 -0.1505 -0.9271
   78MOL   C16924963   4.620   2.329   4.322 -0.4576  0.2995 -0.3658
   78MOL   H17024964   4.553   1.930   4.399  1.8111 -0.0632  0.0423
   78MOL   H17124965   4.659   2.060   4.449  0.3831  1.1586  0.3047
   78MOL   H17224966   4.444   2.050   4.227 -1.5158  0.9172  2.5110
   78MOL   H17324967   4.342   2.261   4.132  0.0600 -2.4491  2.0340
   78MOL   H17424968   4.323   2.483   4.116  0.0676 -2.8349 -1.7042
   78MOL   H17524969   4.502   2.643   4.227  0.9623  0.9645 -0.5816
   78MOL   H17624970   4.678   2.535   4.361 -2.2689  2.7229 -0.3759
   78MOL   H17724971   4.702   2.287   4.378  1.8046 -0.2070 -3.8664
   78MOL   C17824972   4.645   2.034   4.164 -0.1051 -0.2472  0.4981
   78MOL   C17924973   4.642   2.076   4.017 -0.2617  0.0004  0.1871
   78MOL   C18024974   4.770   2.016   3.963 -0.1538  0.1877  0.0437
   78MOL   C18124975   4.775   1.881   3.924  0.2632  0.4370  0.3105
   78MOL   C18224976   4.889   1.829   3.869  0.6766 -1.4120  0.1113
   78MOL   C18324977   5.002   1.902   3.852  0.2959  0.2868 -0.2725
   78MOL   C18424978   5.001   2.040   3.888  0.1691  0.0492  0.3376
   78MOL   C18524979   4.888   2.099   3.944 -0.0966 -0.7174 -0.5848
   78MOL   H18624980   4.650   1.925   4.162  0.5333 -0.2145 -0.1068
   78MOL   H18724981   4.746   2.069   4.188  1.0300 -2.5511 -0.7179
   78MOL   H18824982   4.653   2.184   4.006 -0.7601  0.0932  0.5570
   78MOL   H18924983   4.687   1.819   3.935 -0.1195  1.1026  1.0545
   78MOL   H19024984   4.887   1.725   3.839  0.0922 -1.4389  0.2244
   78MOL   H19124985   5.091   1.852   3.814  0.1757  0.3862 -0.6816
   78MOL   H19224986   5.085   2.104   3.869 -1.4630  2.2566  0.3927
   78MOL   H19324987   4.894   2.203   3.973 -1.3120 -1.1983  1.4428
   78MOL   C19424988   4.515   2.022   3.952 -0.1288 -0.5036 -0.0547
   78MOL   C19524989   4.486   2.080   3.809  0.3480  0.1273 -0.1170
   78MOL   C19624990   4.345   2.031   3.772  0.3736 -0.1194 -0.4943
   78MOL   C19724991   4.221   2.051   3.840  0.4855  0.5564 -0.2684
   78MOL   C19824992   4.105   1.993   3.794 -0.4784 -0.3508 -0.6826
   78MOL   C19924993   4.108   1.916   3.680 -0.0591 -0.7611  0.0110
   78MOL   C20024994   4.231   1.887   3.610 -0.8944  0.2595 -0.0149
   78MOL   C20124995   4.344   1.951   3.657  0.5182  0.0155 -0.0664
   78MOL   H20224996   4.435   2.075   4.005 -1.2130 -0.6901 -1.4678
   78MOL   H20324997   4.489   1.917   3.965  2.1996 -0.9029  1.6022
   78MOL   H20424998   4.561   2.041   3.742 -0.5102 -1.9163  0.0778
   78MOL   H20524999   4.219   2.113   3.928 -0.7266  0.8661 -0.5055
   78MOL   H20625000   4.013   2.004   3.850 -0.6698 -1.0749 -0.8542
   78MOL   H20725001   4.020   1.866   3.642  0.6450 -0.8011 -1.6030
   78MOL   H20825002   4.238   1.827   3.521 -1.1687 -0.1420  0.2347
   78MOL   H20925003   4.435   1.948   3.599  1.7009  2.0603  1.5879
   78MOL   C21025004   4.489   2.236   3.808 -0.1033 -1.0945  0.4313
   78MOL   C21125005   4.417   2.315   3.693 -0.6293  0.1104  0.2409
   78MOL   C21225006   4.395   2.462   3.739  0.4777 -0.2801  0.0949
   78MOL   C21325007   4.263   2.491   3.784 -0.5516  0.7824 -0.6521
   78MOL   C21425008   4.234   2.623   3.825  0.6740 -0.2765 -0.0279
   78MOL   C21525009   4.326   2.725   3.820 -0.3315  0.1344 -0.7919
   78MOL   C21625010   4.455   2.691   3.771  0.2452  0.1752  0.1017
   78MOL   C21725011   4.492   2.562   3.726 -0.0932 -0.1354 -0.9045
   78MOL   H21825012   4.592   2.271   3.811  0.1828 -2.0330  2.4794
   78MOL   H21925013   4.441   2.273   3.899 -1.4388  2.1592 -1.5065
   78MOL   H22025014   4.316   2.281   3.672 -0.2491 -1.7732  1.3126
   78MOL   H22125015   4.188   2.414   3.780 -0.6671  0.8665 -0.0578
   78MOL   H22225016   4.139   2.644   3.871  1.0713  1.1234  0.1578
   78MOL   H22325017   4.308   2.824   3.859 -1.4236 -0.7657  1.0460
   78MOL   H22425018   4.532   2.767   3.769 -0.3701  0.7985 -0.1210
   78MOL   H22525019   4.588   2.528   3.690 -0.6597  0.0217 -2.5959
   78MOL   C22625020   4.497   2.298   3.564 -0.3742  0.5323 -0.4655
   78MOL   C22725021   4.441   2.390   3.451  0.1661 -0.2161  0.3401
   78MOL   C22825022   4.550   2.483   3.396 -0.0668  0.3787  0.2361
   78MOL   C22925023   4.541   2.619   3.408  0.1686 -0.3135 -0.7428
   78MOL   C23025024   4.642   2.706   3.361 -0.4181 -0.7069  0.3304
   78MOL   C23125025   4.758   2.649   3.300 -0.6268  0.2685  0.6664
   78MOL   C23225026   4.776   2.507   3.292  0.4516  0.2739  0.1062
   78MOL   C23325027   4.665   2.431   3.333 -1.2626  0.5107  0.1259
   78MOL   H23425028   4.497   2.191   3.546  0.1568  0.6524 -1.2078
   78MOL   H23525029   4.600   2.314   3.598 -0.3731 -0.1417 -0.1463
   78MOL   H23625030   4.354   2.448   3.484 -0.6639 -1.2602  0.0110
   78MOL   H23725031   4.454   2.659   3.458  0.2780 -0.5486 -0.3612
   78MOL   H23825032   4.633   2.811   3.383 -0.5630 -0.7414  0.4417
   78MOL   H23925033   4.840   2.700   3.253 -1.3218 -0.5011 -1.4177
   78MOL   H24025034   4.858   2.458   3.241 -0.5391 -3.3734  1.8652
   78MOL   H24125035   4.673   2.326   3.309 -3.4990  0.7324 -1.8001
   78MOL   C24225036   4.380   2.312   3.334 -0.1545  0.2387  0.0006
   78MOL   C24325037   4.253   2.219   3.361 -0.5501  0.0746  0.3759
   78MOL   C24425038   4.138   2.297   3.426  0.3847 -0.3963  0.5609
   78MOL   C24525039   4.087   2.420   3.373 -0.1724  0.2460  0.0967
   78MOL   C24625040   3.975   2.484   3.429 -0.1140 -0.3760  0.1222
   78MOL   C24725041   3.926   2.433   3.554 -0.1599 -0.1208 -0.0622
   78MOL   C24825042   3.971   2.313   3.611 -0.5110  0.6018  0.3838
   78MOL   C24925043   4.076   2.247   3.541 -0.1219  0.5301  0.2689
   78MOL   H25025044   4.467   2.252   3.307  0.3130  0.7110  0.4495
   78MOL   H25125045   4.355   2.375   3.249 -0.6958 -0.8651 -0.6675
   78MOL   H25225046   4.281   2.132   3.421  1.6552 -0.2936 -1.1028
   78MOL   H25325047   4.133   2.457   3.282  1.4578 -0.3428  0.6672
   78MOL   H25425048   3.944   2.572   3.376  1.7749  0.8638  1.0342
   78MOL   H25525049   3.851   2.486   3.611  0.2973 -1.7098  2.0793
   78MOL   H25625050   3.936   2.270   3.704 -1.9775 -0.5587 -0.6862
   78MOL   H25725051   4.105   2.148   3.573  1.5758  0.6220 -0.9357
   78MOL   C25825052   4.200   2.153   3.227 -0.3737 -0.3191  0.0016
   78MOL   C25925053   4.299   2.068   3.147 -0.4191 -0.0615 -0.8945
   78MOL   C26025054   4.313   1.928   3.210  0.9739  0.2391  0.1083
   78MOL   C26125055   4.195   1.854   3.220  0.4169 -0.0756  0.4017
   78MOL   C26225056   4.205   1.718   3.253  0.1508 -0.2284 -0.2252
   78MOL   C26325057   4.328   1.662   3.289 -0.0525  0.5579 -0.4052
   78MOL   C26425058   4.444   1.741   3.303 -0.2294 -0.5717 -0.4069
   78MOL   C26525059   4.430   1.875   3.258  0.3440 -0.2027  0.2639
   78MOL   H26625060   4.181   2.236   3.160 -1.8641  0.8018  1.7654
   78MOL   H26725061   4.101   2.112   3.246  1.0128 -3.1261  1.6472
   78MOL   H26825062   4.400   2.108   3.157 -0.1115 -0.9235 -0.5193
   78MOL   H26925063   4.107   1.903   3.182  1.1173  1.3408  0.5786
   78MOL   H27025064   4.115   1.658   3.255  0.4107 -0.5888  1.1832
   78MOL   H27125065   4.327   1.558   3.319 -3.3979  1.0517  1.3130
   78MOL   H27225066   4.529   1.698   3.354 -0.2383  1.4994  1.4311
   78MOL   H27325067   4.519   1.936   3.258 -0.1142  0.4794 -0.7318
   78MOL   C27425068   4.269   2.050   2.998  0.5160  0.0077 -0.0779
   78MOL   C27525069   4.284   2.167   2.900  0.2495  0.2517  0.0761
   78MOL   C27625070   4.410   2.251   2.929  0.2845  0.1310 -0.2356
   78MOL   C27725071   4.398   2.394   2.945 -0.2513 -0.3782  0.0278
   78MOL   C27825072   4.510   2.472   2.975  0.2819 -0.5117 -0.3536
   78MOL   C27925073   4.638   2.413   2.990 -0.4401 -0.3835  0.3426
   78MOL   C28025074   4.643   2.273   2.984  0.1140  0.6251 -0.3892
   78MOL   C28125075   4.533   2.195   2.953  0.5429 -0.0682  0.5400
   78MOL   H28225076   4.169   2.009   2.984 -1.3674  4.4832 -0.6577
   78MOL   H28325077   4.334   1.972   2.959  0.8967  1.0666 -1.6163
   78MOL   H28425078   4.205   2.240   2.911  0.9881  1.7396 -3.7687
   78MOL   H28525079   4.303   2.446   2.942 -0.7806 -1.2933  0.3907
   78MOL   H28625080   4.495   2.579   2.975  1.5663 -0.3115  1.2637
   78MOL   H28725081   4.726   2.468   3.018  0.1560 -1.5131  0.7252
   78MOL   H28825082   4.733   2.220   3.012 -2.2452 -2.9730  0.7863
   78MOL   H28925083   4.549   2.089   2.935 -1.8885 -0.4002  0.0283
   78MOL   C29025084   4.272   2.122   2.753  0.1568  0.0062 -0.4529
   78MOL   C29125085   4.324   2.214   2.642 -0.5709  0.4882 -0.8653
   78MOL   C29225086   4.362   2.132   2.520 -0.2276  0.4333 -0.6971
   78MOL   C29325087   4.265   2.053   2.459 -0.0490 -0.3535 -0.0547
   78MOL   C29425088   4.298   1.986   2.341 -0.3637  0.4763  0.0720
   78MOL   C29525089   4.427   1.996   2.280 -0.1793  0.0451 -0.1787
   78MOL   C29625090   4.521   2.079   2.342  0.5409 -1.2345 -0.0441
   78MOL   C29725091   4.482   2.152   2.455 -0.6084  0.2345  0.1879
   78MOL   H29825092   4.173   2.086   2.725  1.1188 -1.7123 -1.7295
   78MOL   H29925093   4.338   2.035   2.751  1.4176  0.9112  0.4847
   78MOL   H30025094   4.422   2.255   2.669 -1.5014 -0.5714  4.6816
   78MOL   H30125095   4.166   2.037   2.497 -0.3098 -1.2789 -1.0968
   78MOL   H30225096   4.220   1.927   2.295  1.1882 -0.1779 -1.7567
   78MOL   H30325097   4.446   1.942   2.188 -2.2266 -0.1912 -0.5024
   78MOL   H30425098   4.624   2.089   2.309  0.9094  1.1411  1.6395
   78MOL   H30525099   4.557   2.214   2.502 -1.8145  0.3540  2.0002
   78MOL   C30625100   4.234   2.337   2.618  0.0179 -0.0725 -0.7021
   78MOL   C30725101   4.278   2.435   2.511  0.4247  0.1388  0.0746
   78MOL   C30825102   4.244   2.585   2.527  0.0516 -0.3368  0.2192
   78MOL   C30925103   4.147   2.641   2.446 -0.3149  0.4996 -0.1497
   78MOL   C31025104   4.126   2.780   2.443 -0.0373 -0.9723  0.0283
   78MOL   C31125105   4.206   2.856   2.529 -0.0868 -0.3655  0.2332
   78MOL   C31225106   4.301   2.801   2.617 -0.3514  0.7313  0.0063
   78MOL   C31325107   4.316   2.662   2.620 -0.2731 -0.0325  0.7853
   78MOL   H31425108   4.210   2.396   2.707  3.3569 -0.9421  0.8358
   78MOL   H31525109   4.142   2.287   2.587  0.6857 -1.6322 -0.1993
   78MOL   H31625110   4.245   2.402   2.412 -0.2905  0.4490  0.2044
   78MOL   H31725111   4.086   2.577   2.384 -0.9232  0.5212  0.4177
   78MOL   H31825112   4.054   2.823   2.375  0.9858  1.1830  0.2822
   78MOL   H31925113   4.211   2.963   2.520 -2.9191 -0.2907 -0.6608
   78MOL   H32025114   4.374   2.854   2.676 -0.7634  0.5941  0.6431
   78MOL   H32125115   4.403   2.630   2.674 -0.0187 -0.9435 -0.1622
   78MOL   H32225116   4.386   2.427   2.495 -0.1234 -2.5526 -2.8232
   79MOL     C125117   2.240   7.796   5.428 -0.1549  0.3308 -0.0674
   79MOL     C225118   2.153   7.686   5.360 -0.3536 -0.0034  0.4293
   79MOL     C325119   2.151   7.696   5.212 -1.0825 -0.3363 -0.0144
   79MOL     C425120   2.268   7.682   5.138  0.1080 -0.1049 -0.1717
   79MOL     C525121   2.274   7.691   4.992 -0.6021 -0.3727 -0.1900
   79MOL     C625122   2.153   7.705   4.924  0.8270 -0.6448  0.2671
   79MOL     C725123   2.038   7.724   4.997  0.3602 -1.1008  0.2498
   79MOL     C825124   2.031   7.719   5.137 -1.1982  0.1635 -0.0445
   79MOL     H925125   2.340   7.776   5.389 -0.1153 -0.5984  0.5239
   79MOL    H1025126   2.220   7.899   5.396  2.5894  1.7117  2.3656
   79MOL    H1125127   2.048   7.699   5.388 -0.3654  0.5619  0.1301
   79MOL    H1225128   2.356   7.667   5.199 -0.0770 -0.6462 -0.0392
   79MOL    H1325129   2.365   7.675   4.937 -1.3363 -0.7800 -1.3176
   79MOL    H1425130   2.146   7.701   4.816 -0.0761  0.0899  0.2948
   79MOL    H1525131   1.946   7.742   4.943  0.4467 -1.7961 -0.1393
   79MOL    H1625132   1.940   7.728   5.195 -1.3746 -0.4554 -0.2263
   79MOL    H1725133   2.253   7.788   5.536 -0.9546 -2.5093 -0.1426
   79MOL    C1825134   2.199   7.549   5.409 -0.5239  0.9218 -0.2425
   79MOL    C1925135   2.131   7.423   5.353 -0.6674  0.4424  0.0352
   79MOL    C2025136   2.216   7.295   5.377 -0.0353  0.0861  0.0816
   79MOL    C2125137   2.217   7.217   5.497 -0.1078  0.0548  0.5330
   79MOL    C2225138   2.289   7.098   5.505 -0.0439  0.0057 -0.1925
   79MOL    C2325139   2.375   7.063   5.400  0.3673  0.3367  0.6557
   79MOL    C2425140   2.387   7.143   5.291 -0.3201  0.2629 -0.5461
   79MOL    C2525141   2.301   7.253   5.275  0.7831 -0.2389  0.1116
   79MOL    H2625142   2.191   7.546   5.518  2.4780 -0.1100 -0.0050
   79MOL    H2725143   2.306   7.542   5.385 -0.7202 -0.0409 -0.8433
   79MOL    H2825144   2.123   7.433   5.245 -0.7635  1.9154  0.1705
   79MOL    H2925145   2.146   7.238   5.576 -0.9554 -0.2762 -0.1365
   79MOL    H3025146   2.300   7.035   5.592  5.3289  0.4081 -0.3998
   79MOL    H3125147   2.444   6.980   5.402  1.5211  1.2166 -1.7985
   79MOL    H3225148   2.450   7.119   5.207 -1.0603 -1.0388 -0.7418
   79MOL    H3325149   2.317   7.309   5.185  1.2201  3.2227  2.2546
   79MOL    C3425150   1.981   7.411   5.398  0.0358  0.4676  0.1043
   79MOL    C3525151   1.913   7.274   5.343 -1.0036 -0.0736 -0.1780
   79MOL    C3625152   1.792   7.240   5.426  0.3359  0.0559 -0.0823
   79MOL    C3725153   1.766   7.116   5.487  0.6806  0.7955 -0.3416
   79MOL    C3825154   1.650   7.096   5.566  0.6384  0.3461  0.5632
   79MOL    C3925155   1.552   7.199   5.581 -0.1629  0.2072 -0.0515
   79MOL    C4025156   1.571   7.321   5.521  0.7229  0.5620  0.1840
   79MOL    C4125157   1.691   7.341   5.448  0.3069 -0.3282 -0.9601
   79MOL    H4225158   1.919   7.491   5.359 -1.4317 -1.0446 -0.7550
   79MOL    H4325159   1.976   7.424   5.506  2.4959  1.6371  0.1054
   79MOL    H4425160   1.984   7.192   5.358 -2.1836 -0.9343  0.8605
   79MOL    H4525161   1.834   7.033   5.471 -0.2643 -0.1271  0.3716
   79MOL    H4625162   1.640   7.000   5.615 -0.5448 -0.4490 -1.1889
   79MOL    H4725163   1.458   7.183   5.632 -0.0279 -0.2050  0.0678
   79MOL    H4825164   1.497   7.398   5.537  1.2042  1.0005  0.3313
   79MOL    H4925165   1.695   7.437   5.399 -0.0893  0.4010  0.3948
   79MOL    C5025166   1.881   7.289   5.197 -1.0168 -0.4849  0.2543
   79MOL    C5125167   1.884   7.147   5.131  0.2227  0.0762  0.4984
   79MOL    C5225168   1.812   7.161   4.992 -0.3863  0.5979 -0.1891
   79MOL    C5325169   1.888   7.205   4.877 -0.0660  0.2595  0.2893
   79MOL    C5425170   1.829   7.214   4.749  0.5396 -0.3002  0.4032
   79MOL    C5525171   1.695   7.188   4.737  0.2275  0.7478  0.4704
   79MOL    C5625172   1.614   7.152   4.846  0.3508  0.1165 -0.2961
   79MOL    C5725173   1.672   7.140   4.976 -0.0625  0.3150  0.1901
   79MOL    H5825174   1.962   7.342   5.146 -0.6691 -1.2455  0.0022
   79MOL    H5925175   1.794   7.346   5.166 -2.0045 -2.6557 -1.0634
   79MOL    H6025176   1.822   7.078   5.188  2.2072 -0.7303  1.7117
   79MOL    H6125177   1.993   7.229   4.885 -0.0468  0.2146  0.1827
   79MOL    H6225178   1.890   7.240   4.663  0.1091 -2.4842 -0.5794
   79MOL    H6325179   1.655   7.209   4.639  1.6797 -1.0926 -0.5341
   79MOL    H6425180   1.507   7.156   4.834  0.5165  0.8153 -1.5931
   79MOL    H6525181   1.611   7.126   5.063 -0.8856  1.9427 -0.1091
   79MOL    C6625182   2.030   7.083   5.114  0.5003 -0.6250 -0.5818
   79MOL    C6725183   2.039   6.959   5.026  0.6618  0.0723  0.4831
   79MOL    C6825184   2.182   6.935   4.985 -0.0514 -0.3285  0.1790
   79MOL    C6925185   2.274   6.905   5.085  0.0372 -1.0884  0.2863
   79MOL    C7025186   2.406   6.875   5.060 -0.6436 -0.7952 -0.3662
   79MOL    C7125187   2.445   6.878   4.923 -0.2042 -0.3040 -0.5129
   79MOL    C7225188   2.363   6.938   4.823  0.0120  0.6101  0.5514
   79MOL    C7325189   2.225   6.958   4.853 -0.4530 -0.6230 -0.4358
   79MOL    H7425190   2.064   7.060   5.214  2.3915  0.8012 -0.8741
   79MOL    H7525191   2.098   7.161   5.079 -0.5860  1.8661  2.5842
   79MOL    H7625192   1.998   6.981   4.927  0.0071 -0.3485  0.6615
   79MOL    H7725193   2.249   6.889   5.189 -0.5816 -0.9827  0.1524
   79MOL    H7825194   2.464   6.844   5.145 -1.0548 -0.5284  0.0185
   79MOL    H7925195   2.544   6.847   4.894  0.6566  0.9753  0.9540
   79MOL    H8025196   2.399   6.951   4.722 -1.0351 -2.3501 -0.2411
   79MOL    H8125197   2.155   6.983   4.775  0.0302 -2.6053 -1.5446
   79MOL    C8225198   1.971   6.829   5.075 -0.0394 -0.1469 -0.4551
   79MOL    C8325199   1.826   6.792   5.030  0.0252 -0.2990 -0.4027
   79MOL    C8425200   1.808   6.762   4.883 -0.4042  0.0996  0.1615
   79MOL    C8525201   1.896   6.668   4.821 -0.1117  0.8098  0.6025
   79MOL    C8625202   1.894   6.651   4.682  0.4842  0.4724 -0.4919
   79MOL    C8725203   1.798   6.724   4.610  0.2479  0.3077  0.1659
   79MOL    C8825204   1.701   6.808   4.664  0.4000 -0.0052 -0.0203
   79MOL    C8925205   1.706   6.823   4.804 -0.1743  0.2092 -0.4682
   79MOL    H9025206   1.976   6.829   5.184 -0.8881  0.7030 -0.4109
   79MOL    H9125207   2.037   6.746   5.047 -0.4639 -1.3992  2.0992
   79MOL    H9225208   1.767   6.882   5.046 -1.8950 -1.4841 -0.6954
   79MOL    H9325209   1.975   6.613   4.870  0.4369  1.7015  0.7236
   79MOL    H9425210   1.955   6.576   4.632  0.2422 -0.2308  0.2604
   79MOL    H9525211   1.804   6.729   4.502 -0.4120  2.2673  0.2082
   79MOL    H9625212   1.635   6.870   4.606  0.2734 -0.1218  0.0003
   79MOL    H9725213   1.647   6.898   4.854 -1.1003 -0.6763 -0.2032
   79MOL    C9825214   1.768   6.679   5.121 -0.5716 -0.2200  0.5981
   79MOL    C9925215   1.689   6.729   5.249 -0.6100 -0.2543 -0.2854
   79MOL   C10025216   1.561   6.803   5.208 -0.4106  0.1479  0.4377
   79MOL   C10125217   1.467   6.752   5.114  0.5902 -0.3185  0.5300
   79MOL   C10225218   1.355   6.825   5.086 -0.8591 -0.1133 -0.8266
   79MOL   C10325219   1.327   6.947   5.150  0.4072 -0.6764  0.1272
   79MOL   C10425220   1.426   7.004   5.240  0.2931 -0.5347  0.0514
   79MOL   C10525221   1.536   6.928   5.267 -0.3364  0.1013  0.0377
   79MOL   H10625222   1.854   6.616   5.142  0.9751  1.2927 -1.0697
   79MOL   H10725223   1.693   6.623   5.066 -0.1573  1.1517 -1.4042
   79MOL   H10825224   1.758   6.785   5.312  0.1983 -0.2294 -1.1739
   79MOL   H10925225   1.483   6.654   5.072  0.6680 -0.7008  1.4373
   79MOL   H11025226   1.278   6.788   5.019 -0.5934 -0.5298 -0.9011
   79MOL   H11125227   1.238   6.998   5.117  1.2492 -0.5045 -2.0074
   79MOL   H11225228   1.408   7.095   5.295  0.8155 -0.5530  0.2571
   79MOL   H11325229   1.604   6.954   5.347 -0.0272  0.3842 -0.3159
   79MOL   C11425230   1.660   6.602   5.338 -0.0132  0.0965  0.1780
   79MOL   C11525231   1.773   6.530   5.413 -0.2007  0.1281 -0.2554
   79MOL   C11625232   1.878   6.631   5.466 -0.1006 -1.2058 -0.1024
   79MOL   C11725233   1.842   6.730   5.563  0.0620  1.5358  0.1215
   79MOL   C11825234   1.938   6.821   5.612  0.3411 -0.1727 -0.4997
   79MOL   C11925235   2.069   6.823   5.546  0.0423 -0.5396  0.0652
   79MOL   C12025236   2.105   6.728   5.449 -0.6569 -0.3317  0.2384
   79MOL   C12125237   2.011   6.633   5.410  0.3068  0.0202  0.0942
   79MOL   H12225238   1.622   6.528   5.268  0.8143  0.9532 -1.2099
   79MOL   H12325239   1.593   6.645   5.412 -0.6449 -1.3426  0.4659
   79MOL   H12425240   1.816   6.461   5.342 -0.7458 -0.4099 -0.0665
   79MOL   H12525241   1.744   6.729   5.609 -0.5335 -0.0293 -1.1404
   79MOL   H12625242   1.930   6.886   5.697  0.9310 -1.4396  0.5351
   79MOL   H12725243   2.146   6.892   5.578 -0.2989 -0.9547  1.8321
   79MOL   H12825244   2.203   6.733   5.404 -0.3950 -1.5518  0.6574
   79MOL   H12925245   2.040   6.557   5.339  1.2364  1.2843 -0.8974
   79MOL   C13025246   1.714   6.443   5.526 -0.1097 -0.1471  0.3684
   79MOL   C13125247   1.821   6.386   5.621  0.7215  0.1795 -0.8135
   79MOL   C13225248   1.756   6.325   5.751  0.6673 -0.7245 -0.0321
   79MOL   C13325249   1.644   6.236   5.741 -0.3737 -0.1942 -0.0496
   79MOL   C13425250   1.581   6.192   5.856  0.5632  0.0651 -0.3351
   79MOL   C13525251   1.640   6.224   5.982  0.0600  0.5346  0.1519
   79MOL   C13625252   1.754   6.307   5.994  0.0158  0.0611  0.6507
   79MOL   C13725253   1.817   6.351   5.874  0.7533  0.8886  0.6899
   79MOL   H13825254   1.655   6.367   5.475 -1.3415  0.6014  0.6691
   79MOL   H13925255   1.637   6.495   5.583  0.2240 -0.6164  1.2494
   79MOL   H14025256   1.873   6.476   5.656 -0.8847  0.9070 -0.2504
   79MOL   H14125257   1.606   6.202   5.646 -1.8238 -1.3962  0.9401
   79MOL   H14225258   1.491   6.133   5.847 -1.3636  2.8533 -0.1498
   79MOL   H14325259   1.596   6.199   6.077  0.9787 -0.0213  0.4412
   79MOL   H14425260   1.794   6.323   6.093  0.3426 -0.9001  0.6873
   79MOL   H14525261   1.916   6.394   5.874  1.0647  0.2435  2.4532
   79MOL   C14625262   1.918   6.282   5.559  0.4808  0.0908  0.1974
   79MOL   C14725263   2.058   6.248   5.624  0.7945 -0.4280  0.1443
   79MOL   C14825264   2.134   6.135   5.551  0.3383 -0.3317  0.9750
   79MOL   C14925265   2.202   6.159   5.428  0.5200  0.2084  0.3717
   79MOL   C15025266   2.274   6.056   5.369  0.4264 -0.2122 -0.4364
   79MOL   C15125267   2.291   5.930   5.433  0.2345  0.1978  0.5858
   79MOL   C15225268   2.232   5.906   5.560 -0.2464  0.0546 -0.0505
   79MOL   C15325269   2.148   6.009   5.614 -0.2960 -0.6967 -0.1400
   79MOL   H15425270   1.945   6.309   5.457 -1.0102 -2.0677 -0.8061
   79MOL   H15525271   1.861   6.190   5.545  0.3264  0.1816  0.2246
   79MOL   H15625272   2.033   6.201   5.719 -0.1560  1.0739  0.6414
   79MOL   H15725273   2.201   6.251   5.371 -2.7786 -0.0397 -0.0253
   79MOL   H15825274   2.315   6.078   5.271 -2.3941  0.8480 -1.4329
   79MOL   H15925275   2.356   5.857   5.388  0.5486  0.0419  1.2758
   79MOL   H16025276   2.242   5.805   5.597  1.5471 -0.0763 -0.8217
   79MOL   H16125277   2.091   5.987   5.704  1.7791 -3.2007  0.6503
   79MOL   C16225278   2.136   6.380   5.653 -0.2536 -0.7840 -0.7155
   79MOL   C16325279   2.294   6.379   5.665 -0.1842 -0.2540 -0.2882
   79MOL   C16425280   2.346   6.521   5.645 -0.2185 -0.6405 -0.4433
   79MOL   C16525281   2.317   6.617   5.738 -0.1225  0.0197  0.1146
   79MOL   C16625282   2.365   6.751   5.730 -0.1316  0.0551  0.4354
   79MOL   C16725283   2.459   6.783   5.630  0.6729  0.1131 -0.3086
   79MOL   C16825284   2.477   6.692   5.527  0.4216  0.2170 -0.4886
   79MOL   C16925285   2.425   6.561   5.536  0.2970  0.1247 -0.3197
   79MOL   H17025286   2.100   6.433   5.741  4.0534  1.8355 -0.4196
   79MOL   H17125287   2.116   6.445   5.568  1.2261  1.1246  0.3709
   79MOL   H17225288   2.343   6.326   5.583 -0.3664  0.5621 -0.9270
   79MOL   H17325289   2.243   6.583   5.809  0.0210  1.3509  0.9275
   79MOL   H17425290   2.341   6.821   5.808 -0.8056  0.0291  0.2470
   79MOL   H17525291   2.502   6.882   5.637 -2.7886  1.5409  2.1516
   79MOL   H17625292   2.545   6.722   5.449  0.5099  3.6693  0.8150
   79MOL   H17725293   2.441   6.490   5.456 -2.0901 -3.3922  2.1679
   79MOL   C17825294   2.343   6.317   5.798  0.9738 -0.4239  0.3777
   79MOL   C17925295   2.490   6.272   5.807 -0.1335 -0.7494 -0.1832
   79MOL   C18025296   2.586   6.380   5.856 -1.0683  0.1664 -0.9781
   79MOL   C18125297   2.553   6.486   5.940  0.1906  0.3265 -0.1236
   79MOL   C18225298   2.652   6.587   5.971 -0.0043 -0.3155 -0.5713
   79MOL   C18325299   2.790   6.569   5.938 -0.3857  0.1734  0.2793
   79MOL   C18425300   2.817   6.456   5.857 -0.6017  0.1299 -0.6634
   79MOL   C18525301   2.719   6.367   5.812 -0.8054  0.1576 -0.4142
   79MOL   H18625302   2.286   6.227   5.819  0.5713 -0.1489  0.4630
   79MOL   H18725303   2.314   6.382   5.880 -2.8004 -0.5533 -0.7450
   79MOL   H18825304   2.518   6.265   5.702 -0.2561 -1.6546 -0.1581
   79MOL   H18925305   2.455   6.505   5.982  0.1238  0.4508 -0.3351
   79MOL   H19025306   2.625   6.672   6.031  0.7472  0.5622 -1.4559
   79MOL   H19125307   2.867   6.632   5.982 -0.1353  0.1778 -0.1609
   79MOL   H19225308   2.919   6.441   5.825 -0.5632 -0.6768 -0.1895
   79MOL   H19325309   2.741   6.276   5.759 -2.2444  0.1902 -1.0957
   79MOL   C19425310   2.522   6.132   5.864 -0.0501  0.6151  0.7173
   79MOL   C19525311   2.526   6.128   6.019  0.0282  0.3186  0.1470
   79MOL   C19625312   2.387   6.151   6.081  0.7977  0.1584  0.0553
   79MOL   C19725313   2.361   6.262   6.163 -0.0464  0.8753  0.0036
   79MOL   C19825314   2.225   6.295   6.199 -0.4486  0.1942 -0.8338
   79MOL   C19925315   2.122   6.217   6.161 -0.1492  0.1939 -0.4216
   79MOL   C20025316   2.152   6.103   6.084 -0.3880 -0.4310 -0.2515
   79MOL   C20125317   2.279   6.069   6.043  0.3963 -0.7594  0.0352
   79MOL   H20225318   2.621   6.108   5.824 -0.4005  0.9270 -0.3560
   79MOL   H20325319   2.462   6.053   5.819  0.2350  0.6015  0.3478
   79MOL   H20425320   2.606   6.196   6.048 -1.5195  1.7077  1.1783
   79MOL   H20525321   2.435   6.337   6.183  0.7313 -0.0918  0.8182
   79MOL   H20625322   2.196   6.379   6.261  0.4332  0.9186 -1.3963
   79MOL   H20725323   2.015   6.231   6.168 -0.2269 -0.0028 -1.1552
   79MOL   H20825324   2.065   6.049   6.049 -0.7060  0.1336 -0.3313
   79MOL   H20925325   2.287   5.994   5.966 -0.3062  0.8130 -1.6073
   79MOL   C21025326   2.568   5.992   6.078  0.1560  0.9149 -0.2394
   79MOL   C21125327   2.699   5.937   6.039  0.4307  0.2132  0.2326
   79MOL   C21225328   2.813   6.036   6.068  0.1942 -0.4332  0.2692
   79MOL   C21325329   2.862   6.044   6.197  0.0898 -0.2658  0.0636
   79MOL   C21425330   2.971   6.126   6.225  0.8572 -0.7473 -0.4462
   79MOL   C21525331   3.026   6.212   6.121  0.2786  0.6947 -0.3470
   79MOL   C21625332   2.967   6.203   5.987 -0.9025  0.0884  0.5717
   79MOL   C21725333   2.869   6.109   5.962 -0.4793 -0.0986  0.5311
   79MOL   H21825334   2.491   5.916   6.064  1.3676 -1.0121  3.0723
   79MOL   H21925335   2.563   6.000   6.186 -0.5350 -0.2623 -0.1782
   79MOL   H22025336   2.698   5.933   5.930  1.7786  0.5417  0.1949
   79MOL   H22125337   2.816   5.993   6.280  0.1200 -0.4518 -0.0328
   79MOL   H22225338   3.010   6.141   6.325 -0.4450  0.0059 -0.0368
   79MOL   H22325339   3.103   6.283   6.147  0.3758  0.6824 -0.6017
   79MOL   H22425340   3.008   6.254   5.901 -3.0026  0.8657 -0.0047
   79MOL   H22525341   2.834   6.110   5.860  2.5324 -0.4308 -0.5424
   79MOL   C22625342   2.743   5.795   6.073  0.0316 -0.9726  0.4384
   79MOL   C22725343   2.628   5.685   6.087 -0.0735  0.9977 -0.3397
   79MOL   C22825344   2.542   5.662   5.963 -0.1536 -0.6755  1.2026
   79MOL   C22925345   2.590   5.685   5.831  0.3036 -0.1013  0.3353
   79MOL   C23025346   2.503   5.671   5.718 -0.1512  0.2354  0.6449
   79MOL   C23125347   2.371   5.633   5.739  0.0768 -0.6625  0.7640
   79MOL   C23225348   2.327   5.603   5.867 -0.7375 -0.2717 -1.0206
   79MOL   C23325349   2.410   5.625   5.981  0.8600 -0.9427 -0.5077
   79MOL   H23425350   2.788   5.798   6.172 -1.5917  1.9289  1.1382
   79MOL   H23525351   2.824   5.755   6.012 -0.1866 -1.3854  0.4161
   79MOL   H23625352   2.561   5.726   6.163 -0.7436 -1.5010  0.4581
   79MOL   H23725353   2.693   5.713   5.813  1.0798 -2.3216  1.2345
   79MOL   H23825354   2.529   5.686   5.614  1.3298 -0.7450  0.8599
   79MOL   H23925355   2.308   5.604   5.656 -4.1079  5.6173  1.4370
   79MOL   H24025356   2.227   5.562   5.872 -1.4549  1.4199 -1.2597
   79MOL   H24125357   2.367   5.616   6.080 -1.3071  3.4612 -0.9136
   79MOL   C24225358   2.690   5.546   6.132  0.3189 -0.3993 -0.1388
   79MOL   C24325359   2.774   5.546   6.261 -0.2762  0.5054 -0.6300
   79MOL   C24425360   2.707   5.616   6.376 -0.4311  0.2596 -0.1278
   79MOL   C24525361   2.580   5.572   6.419  0.5296  0.0658  0.4249
   79MOL   C24625362   2.512   5.626   6.529  0.6276 -0.3915  0.1496
   79MOL   C24725363   2.581   5.726   6.607  0.3078  0.3398  0.5905
   79MOL   C24825364   2.710   5.762   6.571  0.0815 -0.7262 -0.3311
   79MOL   C24925365   2.766   5.715   6.451 -0.1821 -0.3556 -0.0041
   79MOL   H25025366   2.756   5.515   6.052  2.2629  2.9478  0.0892
   79MOL   H25125367   2.603   5.482   6.145  1.5280 -2.3247 -1.3772
   79MOL   H25225368   2.864   5.604   6.240  0.7071  0.2461  2.6391
   79MOL   H25325369   2.523   5.499   6.364  0.6047  0.1207  0.2748
   79MOL   H25425370   2.412   5.602   6.562  1.0103 -0.3928  1.3603
   79MOL   H25525371   2.533   5.765   6.695  0.6115  1.2034  0.3819
   79MOL   H25625372   2.762   5.837   6.629 -0.6232  0.4817 -1.2179
   79MOL   H25725373   2.863   5.754   6.423 -1.5903  1.4624 -2.6546
   79MOL   C25825374   2.810   5.395   6.288  0.4189  0.2429 -0.0697
   79MOL   C25925375   2.929   5.344   6.201 -0.2752 -0.5331 -0.0725
   79MOL   C26025376   3.059   5.421   6.235  0.0572 -0.8356  0.0919
   79MOL   C26125377   3.120   5.420   6.364  0.1848 -0.2342  0.6377
   79MOL   C26225378   3.244   5.488   6.387 -0.2371 -0.5575 -0.3308
   79MOL   C26325379   3.302   5.565   6.291  1.2241  0.2344  0.6991
   79MOL   C26425380   3.239   5.576   6.163  0.4222 -0.5352  0.5173
   79MOL   C26525381   3.118   5.504   6.138 -0.2931  0.3889  0.3216
   79MOL   H26625382   2.732   5.320   6.295 -0.3591  1.1361  0.8543
   79MOL   H26725383   2.852   5.392   6.389 -1.7490 -3.7398  0.8275
   79MOL   H26825384   2.915   5.353   6.093  2.4561 -0.4036 -0.4557
   79MOL   H26925385   3.068   5.380   6.450  1.1195 -1.7956  0.4939
   79MOL   H27025386   3.284   5.491   6.487 -0.0736  0.7009 -0.4342
   79MOL   H27125387   3.394   5.616   6.315  0.8184  0.8903  0.8855
   79MOL   H27225388   3.277   5.622   6.073  2.6014 -0.4064  1.4623
   79MOL   H27325389   3.071   5.505   6.041 -0.8126 -0.5929  0.5553
   79MOL   C27425390   2.965   5.199   6.235 -0.0776  0.8338  0.1032
   79MOL   C27525391   2.859   5.100   6.197  0.0337  0.4127 -0.6596
   79MOL   C27625392   2.810   5.121   6.060 -0.7059 -0.0598  0.3553
   79MOL   C27725393   2.684   5.184   6.042  0.0770 -0.9976  0.3792
   79MOL   C27825394   2.649   5.239   5.918 -0.1336 -0.0685  0.2548
   79MOL   C27925395   2.727   5.209   5.805  0.0610 -0.5215 -0.0117
   79MOL   C28025396   2.855   5.143   5.818  0.9768  0.9617  0.6346
   79MOL   C28125397   2.898   5.103   5.944 -0.4022 -0.1148 -0.8161
   79MOL   H28225398   2.989   5.186   6.340  0.0008  0.7709  0.0773
   79MOL   H28325399   3.049   5.174   6.170 -0.8517 -2.0243  0.1521
   79MOL   H28425400   2.769   5.124   6.254  0.6490  0.3637  0.3275
   79MOL   H28525401   2.614   5.191   6.124 -0.8051 -1.4641 -0.3229
   79MOL   H28625402   2.558   5.296   5.907  0.1893  0.7508  1.6347
   79MOL   H28725403   2.696   5.257   5.713 -2.4720  0.7809  1.4885
   79MOL   H28825404   2.927   5.135   5.738  0.5609 -0.3977  0.3921
   79MOL   H28925405   2.989   5.046   5.953  0.4287  1.1989 -0.7583
   79MOL   C29025406   2.898   4.951   6.229 -0.5728  0.9153  1.2449
   79MOL   C29125407   2.782   4.859   6.277  0.3287  0.5061 -0.2529
   79MOL   C29225408   2.678   4.837   6.167  0.4187 -0.1116 -0.3233
   79MOL   C29325409   2.721   4.798   6.037 -0.2052 -0.6080 -0.0455
   79MOL   C29425410   2.628   4.817   5.929 -0.2851 -0.5545  0.2155
   79MOL   C29525411   2.494   4.852   5.952 -0.3181  0.0449  0.4154
   79MOL   C29625412   2.444   4.869   6.087  0.0288  0.2576  0.5906
   79MOL   C29725413   2.540   4.871   6.191 -0.0651  0.1871 -0.1414
   79MOL   H29825414   2.972   4.954   6.309  1.0792 -0.2776 -0.1954
   79MOL   H29925415   2.958   4.907   6.149 -0.8907  0.6146  1.1712
   79MOL   H30025416   2.732   4.917   6.355  0.1945 -0.8573  0.6904
   79MOL   H30125417   2.824   4.775   6.011  0.1449  0.4275  0.3816
   79MOL   H30225418   2.662   4.806   5.827  0.3641  3.1659 -0.0450
   79MOL   H30325419   2.418   4.858   5.876  0.0600  1.1271  0.1015
   79MOL   H30425420   2.338   4.889   6.096  0.2422  1.4738  0.5397
   79MOL   H30525421   2.507   4.904   6.289 -1.7529 -0.2413 -0.5563
   79MOL   C30625422   2.843   4.731   6.334  0.2631  0.2853 -0.1532
   79MOL   C30725423   2.761   4.664   6.444  0.8819 -0.1740  0.5341
   79MOL   C30825424   2.806   4.527   6.469 -0.2757  0.6444  0.0425
   79MOL   C30925425   2.943   4.504   6.500 -1.0940  0.3991  0.3849
   79MOL   C31025426   2.997   4.376   6.526  0.1849  0.6988 -0.1654
   79MOL   C31125427   2.903   4.268   6.523  0.4727  0.0686  0.4292
   79MOL   C31225428   2.768   4.291   6.493  0.0553  0.2291 -0.7722
   79MOL   C31325429   2.716   4.422   6.476  0.1645 -0.0390  0.5867
   79MOL   H31425430   2.944   4.743   6.376  0.3094 -0.8775  0.0861
   79MOL   H31525431   2.859   4.660   6.253  0.3908 -0.0653  0.1741
   79MOL   H31625432   2.655   4.655   6.420  0.6912  0.5227  1.0603
   79MOL   H31725433   3.017   4.583   6.497  0.5664 -1.1598 -2.7425
   79MOL   H31825434   3.101   4.355   6.546 -0.3887 -2.2495 -0.0152
   79MOL   H31925435   2.937   4.168   6.547 -0.2228 -0.3196 -0.1869
   79MOL   H32025436   2.701   4.206   6.482 -0.0328  0.2810 -0.6267
   79MOL   H32125437   2.611   4.445   6.464 -0.1185 -0.9603  1.2951
   79MOL   H32225438   2.774   4.718   6.538 -0.1306  0.3050  0.4113
   80MOL     C125439   2.621   0.869   5.816  0.1693  0.4751  0.2442
   80MOL     C225440   2.478   0.878   5.843  0.2629  0.0620  0.1476
   80MOL     C325441   2.433   1.021   5.827 -0.1789 -0.9002 -0.0201
   80MOL     C425442   2.441   1.112   5.942  0.2276  0.1455 -0.6357
   80MOL     C525443   2.411   1.246   5.918  0.9533 -0.8762 -0.2731
   80MOL     C625444   2.359   1.290   5.796 -0.2911 -0.2404  0.0456
   80MOL     C725445   2.351   1.202   5.690 -0.5285  0.3765  0.1936
   80MOL     C825446   2.389   1.071   5.703 -0.0514  0.2440  0.1730
   80MOL     H925447   2.656   0.917   5.726 -0.7545 -0.5299 -0.6767
   80MOL    H1025448   2.675   0.914   5.899 -1.8419  0.6628  1.5022
   80MOL    H1125449   2.476   0.861   5.951 -0.9231 -4.0532 -0.4141
   80MOL    H1225450   2.475   1.085   6.041  0.5988 -0.8361 -1.0219
   80MOL    H1325451   2.425   1.315   6.000 -0.6651 -1.0898  0.2103
   80MOL    H1425452   2.332   1.394   5.788  2.6700  0.7260  1.6543
   80MOL    H1525453   2.318   1.242   5.595 -2.6355  2.5006  1.7512
   80MOL    H1625454   2.377   1.012   5.614 -0.4552 -0.9513  1.0167
   80MOL    H1725455   2.655   0.765   5.815 -2.0527 -0.2677 -1.6010
   80MOL    C1825456   2.385   0.775   5.778  0.1788  0.2521 -0.3359
   80MOL    C1925457   2.242   0.780   5.829 -0.5916 -0.1772  0.3140
   80MOL    C2025458   2.140   0.787   5.712  0.1862  0.4565  0.4064
   80MOL    C2125459   2.145   0.695   5.604  1.2949 -0.5804 -0.1738
   80MOL    C2225460   2.050   0.705   5.502 -0.8878  0.3748 -0.4629
   80MOL    C2325461   1.950   0.804   5.506 -0.4254 -0.0956  0.2485
   80MOL    C2425462   1.937   0.890   5.620  0.9612  0.6152  0.2985
   80MOL    C2525463   2.027   0.872   5.729 -0.2347 -0.4539 -0.4212
   80MOL    H2625464   2.430   0.677   5.791 -1.0404 -0.1270  1.2121
   80MOL    H2725465   2.392   0.788   5.670  0.6374  0.1633 -0.3197
   80MOL    H2825466   2.228   0.874   5.881 -0.6419  0.0957 -0.1888
   80MOL    H2925467   2.218   0.615   5.603 -0.0743 -1.8687  0.5746
   80MOL    H3025468   2.042   0.634   5.421 -0.7904  0.4848 -0.5693
   80MOL    H3125469   1.876   0.808   5.427 -0.5283  0.5667  0.3756
   80MOL    H3225470   1.861   0.967   5.617 -1.7523 -1.9756 -0.7246
   80MOL    H3325471   2.022   0.936   5.816  0.2976 -2.1349  0.8729
   80MOL    C3425472   2.199   0.659   5.925  0.1197 -0.7196  0.3478
   80MOL    C3525473   2.252   0.669   6.068  0.4217  0.4114 -0.0594
   80MOL    C3625474   2.213   0.799   6.144  0.3694  0.5395 -0.2261
   80MOL    C3725475   2.303   0.871   6.229  0.0127 -0.3707  0.0520
   80MOL    C3825476   2.268   0.992   6.286 -0.5081 -0.5001  0.8676
   80MOL    C3925477   2.139   1.043   6.269  0.1043  0.5312  0.0886
   80MOL    C4025478   2.047   0.967   6.193 -0.1053 -0.3094  0.4930
   80MOL    C4125479   2.081   0.844   6.135  0.4481 -0.0925 -0.1115
   80MOL    H4225480   2.241   0.565   5.889 -1.2272 -1.1958 -0.0053
   80MOL    H4325481   2.091   0.643   5.926  0.5177 -3.5728  0.6281
   80MOL    H4425482   2.359   0.659   6.051  0.8939  2.5116  1.4531
   80MOL    H4525483   2.401   0.830   6.249  0.3505  0.1154 -0.5636
   80MOL    H4625484   2.347   1.038   6.344  2.1539  0.4827 -3.2655
   80MOL    H4725485   2.108   1.136   6.313  0.1461  0.8078 -0.4601
   80MOL    H4825486   1.949   1.012   6.184 -0.6327 -1.7349 -1.1189
   80MOL    H4925487   2.005   0.787   6.082  2.2061 -2.2180 -0.4463
   80MOL    C5025488   2.217   0.546   6.159  0.6731  0.4612 -1.1821
   80MOL    C5125489   2.311   0.525   6.282 -0.0899 -0.0638  0.6119
   80MOL    C5225490   2.231   0.501   6.407  0.3137  0.1583 -0.8369
   80MOL    C5325491   2.182   0.614   6.476 -0.6224  0.0245 -0.2779
   80MOL    C5425492   2.104   0.591   6.586 -0.0458 -0.1191  0.9285
   80MOL    C5525493   2.064   0.466   6.628  0.5373  0.7243  0.3999
   80MOL    C5625494   2.114   0.353   6.563 -0.4236  0.3433  0.4081
   80MOL    C5725495   2.195   0.372   6.454 -0.5341 -0.0986  0.4071
   80MOL    H5825496   2.202   0.453   6.104 -0.6906 -0.3112  0.4780
   80MOL    H5925497   2.114   0.562   6.191  0.7245  0.1838 -0.8738
   80MOL    H6025498   2.371   0.615   6.298 -0.6198  0.7227 -1.7282
   80MOL    H6125499   2.209   0.712   6.439  0.0567  0.1879  0.6397
   80MOL    H6225500   2.065   0.678   6.637 -1.4937 -0.3826  0.3045
   80MOL    H6325501   1.997   0.441   6.709  0.3492 -2.0554 -0.5786
   80MOL    H6425502   2.098   0.252   6.597 -2.1225 -0.2512 -2.0418
   80MOL    H6525503   2.246   0.292   6.403  2.3993  1.9484 -0.0071
   80MOL    C6625504   2.416   0.414   6.264 -0.3299  0.0072  0.0806
   80MOL    C6725505   2.531   0.448   6.167 -0.3825  1.2058 -0.3025
   80MOL    C6825506   2.615   0.569   6.212 -0.1496 -0.0686 -0.3726
   80MOL    C6925507   2.676   0.653   6.120 -0.1265 -0.1739 -0.6338
   80MOL    C7025508   2.763   0.756   6.160  0.4971  0.7399  0.1867
   80MOL    C7125509   2.781   0.777   6.296 -0.4714  0.3959 -0.2905
   80MOL    C7225510   2.727   0.695   6.391 -0.5500 -0.6942 -0.0914
   80MOL    C7325511   2.641   0.588   6.351  0.0332  0.2533 -0.1667
   80MOL    H7425512   2.365   0.326   6.223  2.1268 -1.4496  0.0731
   80MOL    H7525513   2.459   0.379   6.358  1.9265  1.5141 -0.3751
   80MOL    H7625514   2.501   0.484   6.068 -0.2528  2.9144  0.2604
   80MOL    H7725515   2.664   0.644   6.013  2.1078 -0.1148 -0.9186
   80MOL    H7825516   2.815   0.814   6.085 -0.2797  2.2263  0.7818
   80MOL    H7925517   2.839   0.863   6.328  0.3237  0.3062 -1.4529
   80MOL    H8025518   2.749   0.726   6.493  0.0517  0.4367 -0.5619
   80MOL    H8125519   2.610   0.520   6.429 -0.1801  1.2999  0.6673
   80MOL    C8225520   2.620   0.322   6.140 -0.6377  0.1841 -0.5653
   80MOL    C8325521   2.556   0.214   6.063  0.6429 -0.2900 -0.3259
   80MOL    C8425522   2.525   0.270   5.923  0.0225 -0.2336 -0.4623
   80MOL    C8525523   2.632   0.307   5.834  0.3980 -0.9226  0.6493
   80MOL    C8625524   2.596   0.362   5.711  0.7846 -0.1015 -0.0438
   80MOL    C8725525   2.462   0.389   5.678 -0.1395  0.1853  0.0219
   80MOL    C8825526   2.362   0.352   5.773  0.4396  0.2843  1.3330
   80MOL    C8925527   2.391   0.293   5.891  0.6294 -0.4431 -0.9124
   80MOL    H9025528   2.663   0.275   6.228 -0.5792  1.5032  0.1266
   80MOL    H9125529   2.713   0.353   6.093 -1.4670 -0.9892 -3.0481
   80MOL    H9225530   2.461   0.180   6.107  0.9181 -1.0498 -0.3042
   80MOL    H9325531   2.729   0.278   5.870  2.0417 -0.0447 -2.8971
   80MOL    H9425532   2.675   0.379   5.640  0.4197 -1.7699 -0.8615
   80MOL    H9525533   2.445   0.428   5.579  2.3756  0.4075 -0.3419
   80MOL    H9625534   2.259   0.374   5.747  1.0072  1.9953  0.4837
   80MOL    H9725535   2.312   0.262   5.958 -0.1004  1.8785 -0.6639
   80MOL    C9825536   2.644   0.085   6.059  0.5031  0.3654 -0.3232
   80MOL    C9925537   2.650   0.001   6.193 -0.3073 -0.3265 -0.0694
   80MOL   C10025538   2.528   0.014   6.280 -0.2804 -0.5759 -0.0679
   80MOL   C10125539   2.402   8.078   6.235  0.7686 -0.1894 -0.2957
   80MOL   C10225540   2.286   8.089   6.318  0.1623  0.6574  0.1954
   80MOL   C10325541   2.295   0.033   6.443  0.3077 -0.4464 -0.3596
   80MOL   C10425542   2.417   0.088   6.487  0.7040  0.1086  0.4311
   80MOL   C10525543   2.534   0.075   6.408  0.1575 -0.1976  0.3850
   80MOL   H10625544   2.744   0.111   6.023  0.8023 -2.5152 -1.7277
   80MOL   H10725545   2.614   0.008   5.988 -0.2551  2.3469 -2.2189
   80MOL   H10825546   2.732   0.042   6.252  2.1216 -4.4630 -0.3782
   80MOL   H10925547   2.388   8.029   6.140 -1.2369 -0.8902  0.3405
   80MOL   H11025548   2.196   8.036   6.289  1.8054 -0.0091 -4.0976
   80MOL   H11125549   2.205   0.043   6.502 -0.5266  2.7539 -2.0814
   80MOL   H11225550   2.418   0.131   6.586 -1.7722  2.3128 -0.4485
   80MOL   H11325551   2.627   0.115   6.444  0.1484  1.5800 -1.4884
   80MOL   C11425552   2.690   7.971   6.172  0.4331  0.4387  0.9463
   80MOL   C11525553   2.831   7.943   6.110  0.5975  0.0691 -0.0862
   80MOL   C11625554   2.938   7.945   6.217  0.3646 -0.3382  0.4758
   80MOL   C11725555   3.052   8.029   6.206  0.4272 -0.1812 -0.1584
   80MOL   C11825556   3.154   8.027   6.309 -0.0188 -0.0965  0.4162
   80MOL   C11925557   3.136   7.947   6.420  0.2194 -0.2899 -0.4048
   80MOL   C12025558   3.021   7.866   6.429 -0.0539 -0.1894  0.0038
   80MOL   C12125559   2.922   7.864   6.327  0.0367  0.0293  0.5121
   80MOL   H12225560   2.618   7.921   6.107  0.6790  1.8813 -0.4606
   80MOL   H12325561   2.660   7.916   6.262 -0.1769  0.8422  0.9929
   80MOL   H12425562   2.855   8.023   6.040  2.4116 -0.2198  0.1810
   80MOL   H12525563   3.068   8.090   6.117 -1.6889  1.3941  0.4900
   80MOL   H12625564   3.239   8.092   6.295 -1.3602  1.6357  0.0964
   80MOL   H12725565   3.211   7.958   6.497  1.1886  1.0221 -1.4989
   80MOL   H12825566   3.021   7.801   6.515  1.0733 -0.8956 -0.5247
   80MOL   H12925567   2.838   7.798   6.344 -0.1992  0.0403 -0.6037
   80MOL   C13025568   2.821   7.812   6.035  0.2822  0.7637  0.2152
   80MOL   C13125569   2.954   7.770   5.960 -0.7425  0.0136  0.7223
   80MOL   C13225570   2.991   7.623   5.972  0.1490 -0.3300 -0.4965
   80MOL   C13325571   2.992   7.531   5.872  0.0245  0.1460  0.1380
   80MOL   C13425572   3.023   7.395   5.892  0.6577  0.0167  0.2514
   80MOL   C13525573   3.065   7.356   6.022  1.2064  0.0935 -0.2395
   80MOL   C13625574   3.071   7.451   6.127  0.2449  0.0855  1.1330
   80MOL   C13725575   3.027   7.584   6.104 -0.1476 -0.0612  0.4676
   80MOL   H13825576   2.737   7.801   5.966  2.5493 -0.0225 -2.5011
   80MOL   H13925577   2.793   7.745   6.117  2.1746 -1.1790 -0.6834
   80MOL   H14025578   3.046   7.819   5.993 -0.9924  1.5443 -0.7401
   80MOL   H14125579   2.982   7.559   5.768 -0.0993  1.4626  0.4979
   80MOL   H14225580   3.043   7.322   5.814 -2.1975  0.3619 -0.8521
   80MOL   H14325581   3.101   7.256   6.040  0.7514 -0.5950 -2.9474
   80MOL   H14425582   3.119   7.423   6.220 -1.1329 -0.8456  1.5852
   80MOL   H14525583   3.032   7.654   6.187 -1.0213 -0.1760  0.6211
   80MOL   C14625584   2.955   7.802   5.807  0.1486 -0.2400  0.8479
   80MOL   C14725585   2.940   7.958   5.760 -0.5654  0.3013 -0.0960
   80MOL   C14825586   3.051   8.050   5.806  0.3043 -0.8350 -0.2053
   80MOL   C14925587   3.016   0.074   5.816  0.5523  0.0070 -0.3448
   80MOL   C15025588   3.113   0.165   5.861  0.0565  0.5050  0.2926
   80MOL   C15125589   3.243   0.112   5.882  0.2564 -0.9285 -0.3795
   80MOL   C15225590   3.280   8.094   5.870  0.0633  0.0756  0.0198
   80MOL   C15325591   3.186   8.005   5.835 -0.2642  0.2084  0.5448
   80MOL   H15425592   2.868   7.747   5.773  1.3301 -0.8414 -1.3169
   80MOL   H15525593   3.051   7.769   5.767 -0.2659  0.2187 -0.5170
   80MOL   H15625594   2.852   7.990   5.815 -1.1902  0.6375 -1.2668
   80MOL   H15725595   2.915   0.103   5.791 -0.1772 -2.0198  0.1230
   80MOL   H15825596   3.085   0.268   5.877 -0.9122  0.1172  1.0914
   80MOL   H15925597   3.326   0.179   5.903 -0.4810 -0.5201  1.3282
   80MOL   H16025598   3.382   8.066   5.892 -0.5793 -1.4014  1.2021
   80MOL   H16125599   3.215   7.901   5.823 -0.6027  0.2021 -0.2478
   80MOL   C16225600   2.914   7.981   5.603  0.3774 -0.6207 -0.1265
   80MOL   C16325601   2.798   7.913   5.540 -0.5259  0.3369  0.2630
   80MOL   C16425602   2.675   7.922   5.623 -0.5848 -1.0969  0.5070
   80MOL   C16525603   2.620   7.804   5.688  0.4616  0.0454 -0.4198
   80MOL   C16625604   2.522   7.824   5.790 -0.1456 -0.2275 -0.5787
   80MOL   C16725605   2.473   7.952   5.818  0.0445 -1.0158 -0.1187
   80MOL   C16825606   2.528   8.065   5.751  0.3174  0.7251  0.2105
   80MOL   C16925607   2.629   8.050   5.651 -0.5361  0.3732 -0.9406
   80MOL   H17025608   3.014   7.961   5.566  1.4582  1.0989  1.7502
   80MOL   H17125609   2.900   8.087   5.584 -0.6569 -0.6782  0.2958
   80MOL   H17225610   2.816   7.805   5.543  1.1975  0.6281  1.0958
   80MOL   H17325611   2.658   7.703   5.688 -3.6705 -1.5859  0.0096
   80MOL   H17425612   2.488   7.736   5.843  1.8345 -1.6924 -1.6804
   80MOL   H17525613   2.402   7.975   5.897 -0.3525 -0.9019 -0.5056
   80MOL   H17625614   2.496   0.051   5.772  3.1324  1.9999 -1.3198
   80MOL   H17725615   2.657   0.019   5.589  1.3892  0.3981 -0.0612
   80MOL   C17825616   2.780   7.957   5.385 -0.6315  0.2034 -0.5891
   80MOL   C17925617   2.758   7.834   5.297 -0.0044  0.1227 -0.6474
   80MOL   C18025618   2.720   7.894   5.158  0.4416  0.1093  0.2119
   80MOL   C18125619   2.812   7.967   5.085 -0.2537 -0.2362  0.0579
   80MOL   C18225620   2.776   8.024   4.959 -0.7748  0.2910 -0.0864
   80MOL   C18325621   2.651   8.001   4.907  0.5809 -0.2638  0.4062
   80MOL   C18425622   2.551   7.928   4.974  0.4193  0.5551 -0.1390
   80MOL   C18525623   2.586   7.876   5.104 -0.4929  0.9310  0.3742
   80MOL   H18625624   2.870   8.006   5.349 -0.4455  1.1071  1.0658
   80MOL   H18725625   2.696   8.025   5.378 -2.2428 -1.8938 -2.4380
   80MOL   H18825626   2.683   7.774   5.350  0.2702 -0.2112 -0.6372
   80MOL   H18925627   2.910   7.995   5.121 -0.6754  0.4434  0.6624
   80MOL   H19025628   2.839   8.094   4.906 -1.6702  1.1431 -0.0244
   80MOL   H19125629   2.628   8.042   4.810  0.1902  1.9140  1.4012
   80MOL   H19225630   2.459   7.901   4.924 -0.0349 -0.5204  1.2498
   80MOL   H19325631   2.510   7.822   5.157  1.2626 -1.0151  0.9628
   80MOL   C19425632   2.874   7.737   5.286 -0.0098 -0.0941  0.1430
   80MOL   C19525633   2.837   7.591   5.248  0.6386 -0.0951 -0.0798
   80MOL   C19625634   2.770   7.511   5.356  0.3536 -0.0752 -0.8165
   80MOL   C19725635   2.631   7.525   5.379  0.2299 -0.2054 -0.6497
   80MOL   C19825636   2.566   7.453   5.483  0.0413  0.4719  0.1398
   80MOL   C19925637   2.645   7.386   5.575 -0.4051  0.5726  0.4026
   80MOL   C20025638   2.782   7.376   5.565  0.4178 -0.2334 -0.0894
   80MOL   C20125639   2.844   7.436   5.450  0.6000 -0.8935 -0.0367
   80MOL   H20225640   2.923   7.726   5.382  1.9757 -0.1507 -0.8541
   80MOL   H20325641   2.954   7.788   5.233 -2.1495  2.0185 -1.1782
   80MOL   H20425642   2.937   7.549   5.231  0.9395 -0.1208  1.5947
   80MOL   H20525643   2.570   7.575   5.306 -1.2356 -2.1005 -0.7762
   80MOL   H20625644   2.458   7.451   5.486  0.1104 -2.3045  2.1626
   80MOL   H20725645   2.601   7.335   5.659 -1.0076  0.6803  0.1573
   80MOL   H20825646   2.831   7.320   5.644  0.3423 -1.4820 -0.9069
   80MOL   H20925647   2.952   7.429   5.445  0.5536 -1.7509  0.1177
   80MOL   C21025648   2.771   7.578   5.104 -0.1605  0.1305  0.4346
   80MOL   C21125649   2.760   7.439   5.050  0.6313 -0.0312  0.0382
   80MOL   C21225650   2.635   7.431   4.954  1.0157  0.0102 -0.0236
   80MOL   C21325651   2.612   7.524   4.850  0.3068  0.3198 -0.0872
   80MOL   C21425652   2.494   7.524   4.772 -0.3162 -0.1396  0.1102
   80MOL   C21525653   2.400   7.421   4.795 -0.3594 -0.3254  0.0909
   80MOL   C21625654   2.421   7.328   4.901 -0.4153  0.4014  0.6671
   80MOL   C21725655   2.536   7.336   4.984 -0.0697 -0.4913  0.0666
   80MOL   H21825656   2.826   7.652   5.045  0.2391  0.9558  1.8086
   80MOL   H21925657   2.670   7.619   5.112  0.1007  1.0122 -0.6601
   80MOL   H22025658   2.737   7.381   5.139  2.2581  0.8905  1.0854
   80MOL   H22125659   2.689   7.597   4.831 -0.3777  0.9982 -0.2825
   80MOL   H22225660   2.478   7.584   4.684 -2.1244 -0.2363  0.3465
   80MOL   H22325661   2.309   7.418   4.737 -0.6957  3.2948  0.2892
   80MOL   H22425662   2.350   7.249   4.919 -1.7572  1.4527  0.1799
   80MOL   H22525663   2.547   7.267   5.066 -0.6085 -1.3579 -0.5887
   80MOL   C22625664   2.881   7.379   4.982  0.2893  0.0122  0.1779
   80MOL   C22725665   2.971   7.295   5.077  0.0297  1.3081  0.1203
   80MOL   C22825666   2.924   7.150   5.088  0.4558  0.5349 -0.5144
   80MOL   C22925667   2.971   7.045   5.001  0.5111  0.0300  0.2114
   80MOL   C23025668   2.916   6.919   5.013 -0.6997 -0.1131 -0.3476
   80MOL   C23125669   2.813   6.890   5.106  0.7203 -0.2601 -0.0212
   80MOL   C23225670   2.772   6.985   5.195 -0.4029 -0.4313 -0.0517
   80MOL   C23325671   2.830   7.120   5.188  0.2922 -0.1205  0.1620
   80MOL   H23425672   2.935   7.466   4.946  0.2305 -0.2449 -0.5351
   80MOL   H23525673   2.854   7.327   4.890 -0.0913  0.6002 -0.0453
   80MOL   H23625674   2.968   7.319   5.183 -1.2908  2.2852 -0.1225
   80MOL   H23725675   3.042   7.075   4.925 -0.4446 -0.2849 -0.8190
   80MOL   H23825676   2.948   6.844   4.942 -2.1405  0.0665 -1.2072
   80MOL   H23925677   2.762   6.795   5.108  0.8293 -0.3346 -0.7889
   80MOL   H24025678   2.703   6.963   5.275  0.5360 -0.2517  0.8069
   80MOL   H24125679   2.790   7.194   5.255  0.5252 -0.4826  0.6972
   80MOL   C24225680   3.118   7.298   5.027 -0.0731 -0.4632 -0.4152
   80MOL   C24325681   3.187   7.421   5.086 -0.3041 -0.6330 -0.1957
   80MOL   C24425682   3.194   7.440   5.239  0.2190  0.7109 -0.1360
   80MOL   C24525683   3.224   7.328   5.320 -0.1018  0.4365 -0.3443
   80MOL   C24625684   3.240   7.341   5.457 -0.0226  0.1087  0.3940
   80MOL   C24725685   3.211   7.466   5.514  0.2302  0.2218 -0.4816
   80MOL   C24825686   3.176   7.577   5.440 -0.0569  0.3534  0.6541
   80MOL   C24925687   3.179   7.571   5.297  0.1873  0.5306  0.2463
   80MOL   H25025688   3.121   7.296   4.918 -2.9057  0.8169 -0.5432
   80MOL   H25125689   3.172   7.209   5.060  1.6041  0.4022 -0.7271
   80MOL   H25225690   3.124   7.500   5.046 -0.2796 -0.9429 -0.8575
   80MOL   H25325691   3.238   7.229   5.278 -1.0733  0.2908 -0.3302
   80MOL   H25425692   3.265   7.252   5.513  1.8122  0.6310  0.4248
   80MOL   H25525693   3.197   7.460   5.621  0.7943  1.0746 -0.3532
   80MOL   H25625694   3.148   7.669   5.487  1.4161  0.1173  2.0130
   80MOL   H25725695   3.161   7.657   5.235  0.5795  1.3394  1.2380
   80MOL   C25825696   3.319   7.443   5.004  0.5829  0.0984  0.1980
   80MOL   C25925697   3.382   7.587   5.021 -0.5216  0.5488  0.2934
   80MOL   C26025698   3.523   7.594   4.953 -0.1371 -0.0261  0.4349
   80MOL   C26125699   3.579   7.491   4.870 -0.3360  0.1834  0.6686
   80MOL   C26225700   3.712   7.493   4.824  0.3958  0.5671 -0.0640
   80MOL   C26325701   3.787   7.606   4.860  0.3255  0.1412  0.3074
   80MOL   C26425702   3.733   7.718   4.930  0.1537  0.7617  0.1928
   80MOL   C26525703   3.599   7.708   4.978 -0.3410 -0.2695 -0.7294
   80MOL   H26625704   3.299   7.426   4.898  0.4159  2.0100 -0.0996
   80MOL   H26725705   3.396   7.371   5.031  0.8718  0.7012  1.0093
   80MOL   H26825706   3.397   7.603   5.128 -1.1089  0.8658  0.3273
   80MOL   H26925707   3.513   7.412   4.838 -0.2810  1.1996 -2.1192
   80MOL   H27025708   3.754   7.418   4.759 -2.1612 -0.7648 -0.2720
   80MOL   H27125709   3.888   7.615   4.825  0.0630  1.6944 -0.0608
   80MOL   H27225710   3.793   7.805   4.952  3.8877 -1.2408 -1.4928
   80MOL   H27325711   3.563   7.791   5.037  1.5282 -1.3218  2.0227
   80MOL   C27425712   3.294   7.707   4.965 -0.6263 -0.0905  1.1058
   80MOL   C27525713   3.297   7.738   4.812  0.5534 -0.0087  0.1243
   80MOL   C27625714   3.257   7.617   4.729  0.4820 -0.0661  0.2757
   80MOL   C27725715   3.347   7.565   4.634 -0.5063 -0.4442  0.4706
   80MOL   C27825716   3.308   7.455   4.556 -0.0340 -0.2038  0.1507
   80MOL   C27925717   3.180   7.396   4.570 -0.2282 -1.0621  0.0570
   80MOL   C28025718   3.089   7.443   4.673 -0.2810  0.0436 -0.1645
   80MOL   C28125719   3.129   7.551   4.755 -0.7634  0.2205  0.2547
   80MOL   H28225720   3.317   7.797   5.023 -0.6660  0.2775  0.5603
   80MOL   H28325721   3.190   7.688   4.993 -1.4886  0.0907 -1.7662
   80MOL   H28425722   3.402   7.755   4.788 -0.2045  1.1557 -2.4481
   80MOL   H28525723   3.442   7.612   4.613 -0.8294 -0.3106 -0.7507
   80MOL   H28625724   3.369   7.407   4.482  1.0649  1.7223 -0.2307
   80MOL   H28725725   3.156   7.317   4.501 -2.8673  1.3173 -1.8743
   80MOL   H28825726   2.993   7.395   4.681 -0.8388  1.1618 -0.1491
   80MOL   H28925727   3.044   7.591   4.808 -1.5312 -0.7398 -0.2189
   80MOL   C29025728   3.227   7.864   4.766 -0.0596 -0.5386 -0.5651
   80MOL   C29125729   3.266   7.994   4.841  0.2762  0.3717  0.9083
   80MOL   C29225730   3.422   8.009   4.850 -0.1543  0.2862  0.4346
   80MOL   C29325731   3.485   8.013   4.978 -0.0887  0.3399 -0.0365
   80MOL   C29425732   3.621   8.049   4.983  0.4790  0.1892  0.1980
   80MOL   C29525733   3.694   8.082   4.862  0.8267 -0.8427 -0.1368
   80MOL   C29625734   3.629   8.073   4.732 -0.1668 -0.1930 -0.0302
   80MOL   C29725735   3.493   8.046   4.729 -0.6944  0.6506  1.0486
   80MOL   H29825736   3.119   7.849   4.778  0.0934  0.5233  2.4118
   80MOL   H29925737   3.232   7.871   4.657 -2.8497 -1.6130 -0.8290
   80MOL   H30025738   3.244   7.974   4.946 -1.4840 -1.4784  0.2195
   80MOL   H30125739   3.432   8.009   5.072 -1.1716  0.6334 -0.6238
   80MOL   H30225740   3.665   8.068   5.080  0.5041 -0.1449  0.2519
   80MOL   H30325741   3.793   0.005   4.881  0.9746 -1.2060 -0.1842
   80MOL   H30425742   3.682   8.096   4.641 -0.1231  0.6141  0.1931
   80MOL   H30525743   3.444   8.032   4.634 -0.0502  0.3603  0.7555
   80MOL   C30625744   3.189   0.008   4.802 -0.1651  1.0497 -0.2942
   80MOL   C30725745   3.220   0.144   4.883  0.7207  0.1548 -0.9283
   80MOL   C30825746   3.153   0.149   5.017 -0.3677 -0.4747  0.1648
   80MOL   C30925747   3.225   0.133   5.136  0.1647 -0.0631 -0.1454
   80MOL   C31025748   3.163   0.142   5.264 -0.3063 -0.7139 -0.1724
   80MOL   C31125749   3.029   0.183   5.273  0.7793  0.2552  0.3256
   80MOL   C31225750   2.952   0.188   5.154 -0.4267  0.2674  0.0352
   80MOL   C31325751   3.014   0.171   5.033  0.2318  0.0685 -0.3796
   80MOL   H31425752   3.083   8.101   4.813 -0.0477  1.5046  1.8296
   80MOL   H31525753   3.214   0.023   4.697 -0.6894  2.8639 -0.1788
   80MOL   H31625754   3.183   0.231   4.830  1.4396  0.7943 -0.3861
   80MOL   H31725755   3.332   0.116   5.137 -0.0989 -1.8135  0.1237
   80MOL   H31825756   3.219   0.139   5.357 -1.6352 -2.2134  0.5964
   80MOL   H31925757   2.981   0.183   5.369  0.5851  0.4804  0.2306
   80MOL   H32025758   2.845   0.208   5.155 -0.1028  2.2434  3.0184
   80MOL   H32125759   2.953   0.177   4.944 -0.1536 -1.5134 -0.2358
   80MOL   H32225760   3.327   0.161   4.899  1.2778 -2.6703 -1.3701
   81MOL     C125761   6.820   6.205   5.743  0.0901 -0.2879  0.5942
   81MOL     C225762   6.852   6.293   5.629  0.5442  0.1020  0.6923
   81MOL     C325763   6.967   6.243   5.546  0.4867 -0.0536  0.5070
   81MOL     C425764   7.072   6.329   5.510 -0.2080  0.3259 -0.5773
   81MOL     C525765   7.171   6.281   5.423 -0.4508 -0.4250 -0.6578
   81MOL     C625766   7.154   6.154   5.357  0.1409 -0.1125 -0.2566
   81MOL     C725767   7.054   6.070   5.406 -0.2436  0.1965 -0.1838
   81MOL     C825768   6.962   6.111   5.504  0.5832  0.7573  0.0074
   81MOL     H925769   6.912   6.197   5.802 -0.2240  0.1492  1.1364
   81MOL    H1025770   6.736   6.249   5.795  0.2004  0.4451  0.1604
   81MOL    H1125771   6.888   6.385   5.675 -2.1196  0.5880  1.9079
   81MOL    H1225772   7.079   6.429   5.550  0.3364  0.8082 -1.8340
   81MOL    H1325773   7.264   6.332   5.403  0.1600 -2.4514 -3.1370
   81MOL    H1425774   7.221   6.126   5.277 -1.1177 -0.5787 -1.1644
   81MOL    H1525775   7.052   5.970   5.366 -2.5662  0.3902 -0.5989
   81MOL    H1625776   6.890   6.035   5.530  2.0004 -1.2071 -1.6029
   81MOL    H1725777   6.788   6.107   5.707 -0.8051  0.3029 -0.2056
   81MOL    C1825778   6.726   6.332   5.539  0.0732 -0.4109 -0.0935
   81MOL    C1925779   6.645   6.444   5.598  0.1151  0.6663  0.1132
   81MOL    C2025780   6.720   6.572   5.629 -0.2061  0.0660 -0.4068
   81MOL    C2125781   6.670   6.655   5.728  0.7638  0.1006 -0.7109
   81MOL    C2225782   6.731   6.782   5.757  0.0806 -0.5390  0.2581
   81MOL    C2325783   6.840   6.825   5.678  0.0449 -0.7704 -0.2175
   81MOL    C2425784   6.882   6.743   5.572 -0.0906  0.1965  0.1852
   81MOL    C2525785   6.828   6.620   5.550  0.6264  0.4254 -0.3625
   81MOL    H2625786   6.659   6.247   5.525 -0.0659 -0.0343 -1.7782
   81MOL    H2725787   6.767   6.351   5.440 -1.6949  0.5360 -0.6643
   81MOL    H2825788   6.620   6.405   5.697 -1.9997 -0.4554 -0.8325
   81MOL    H2925789   6.583   6.623   5.782  0.5720  0.3273 -0.8810
   81MOL    H3025790   6.701   6.844   5.839 -0.6270 -0.4774 -0.0472
   81MOL    H3125791   6.874   6.927   5.687 -1.3983 -0.3007 -0.0578
   81MOL    H3225792   6.959   6.776   5.504  0.6034 -1.1463  0.3006
   81MOL    H3325793   6.866   6.578   5.458 -0.4323 -1.7270  0.1484
   81MOL    C3425794   6.516   6.480   5.510 -0.1571  0.1925 -0.0665
   81MOL    C3525795   6.410   6.369   5.501  0.3437  0.1092 -0.7202
   81MOL    C3625796   6.368   6.320   5.635 -0.0359  1.0235  0.6592
   81MOL    C3725797   6.368   6.179   5.662 -0.4494  0.6250 -0.8216
   81MOL    C3825798   6.328   6.130   5.787 -0.5287  0.5075 -0.3629
   81MOL    C3925799   6.274   6.222   5.881  0.9903 -0.8011  0.2446
   81MOL    C4025800   6.268   6.360   5.853  0.1019  0.3359  0.0704
   81MOL    C4125801   6.314   6.412   5.729  0.2527 -0.3612 -0.0728
   81MOL    H4225802   6.560   6.506   5.414 -0.6407 -1.4807 -0.7473
   81MOL    H4325803   6.472   6.571   5.551 -0.2835  1.5007 -2.9976
   81MOL    H4425804   6.445   6.280   5.447 -0.3699 -2.1770  2.4433
   81MOL    H4525805   6.412   6.112   5.590  1.3564  0.5684  0.3002
   81MOL    H4625806   6.319   6.026   5.816  0.5254  0.6538  0.5342
   81MOL    H4725807   6.221   6.189   5.969 -1.3289  1.1459 -0.3750
   81MOL    H4825808   6.247   6.432   5.931  1.8485  2.8231 -1.6592
   81MOL    H4925809   6.300   6.517   5.708  0.7610 -0.6895 -2.1647
   81MOL    C5025810   6.287   6.415   5.424  0.7448  0.5356  0.3489
   81MOL    C5125811   6.309   6.455   5.276  0.2112 -0.2540 -0.3368
   81MOL    C5225812   6.386   6.345   5.188 -0.1556 -0.2970  0.1014
   81MOL    C5325813   6.515   6.389   5.146 -0.2271 -0.3447 -0.5826
   81MOL    C5425814   6.601   6.296   5.083  0.6126 -0.3264  0.2729
   81MOL    C5525815   6.553   6.163   5.058 -0.4776 -0.7475  0.5004
   81MOL    C5625816   6.424   6.131   5.100 -0.3811 -0.2458 -0.4584
   81MOL    C5725817   6.337   6.219   5.166 -0.4280 -0.0723 -0.2171
   81MOL    H5825818   6.230   6.495   5.472  1.5175 -0.6829  3.4482
   81MOL    H5925819   6.219   6.329   5.421  1.1652  0.2472 -1.1537
   81MOL    H6025820   6.372   6.543   5.292 -0.6265  0.6441 -1.8548
   81MOL    H6125821   6.548   6.490   5.166  2.0925 -0.9714 -1.1438
   81MOL    H6225822   6.701   6.330   5.061  0.8198 -0.5093  0.9168
   81MOL    H6325823   6.617   6.095   5.005  0.6169 -1.2432  2.3979
   81MOL    H6425824   6.382   6.034   5.075 -2.1808  0.3038  0.3695
   81MOL    H6525825   6.234   6.194   5.185  0.0934 -2.9101 -0.9655
   81MOL    C6625826   6.173   6.505   5.212 -0.0753  0.0320  0.2439
   81MOL    C6725827   6.184   6.579   5.076  0.4151  0.8432  0.0783
   81MOL    C6825828   6.045   6.554   5.004 -0.2657  0.4738 -0.9342
   81MOL    C6925829   6.051   6.469   4.888 -0.0646  0.1310  0.3887
   81MOL    C7025830   5.933   6.449   4.819 -0.1499  0.5127 -0.3629
   81MOL    C7125831   5.810   6.506   4.867  0.2106  0.3613 -0.2223
   81MOL    C7225832   5.801   6.578   4.986 -0.5663 -0.1630 -0.2463
   81MOL    C7325833   5.924   6.611   5.054  0.3658 -0.0632  0.4151
   81MOL    H7425834   6.118   6.562   5.286  0.6557 -1.3173  1.8744
   81MOL    H7525835   6.113   6.414   5.204 -0.5009  0.1564  1.9535
   81MOL    H7625836   6.258   6.534   5.010  0.5041  2.1989 -0.7555
   81MOL    H7725837   6.144   6.424   4.857 -0.5951 -0.2724 -0.6511
   81MOL    H7825838   5.935   6.387   4.731 -0.1537 -2.6733  1.8195
   81MOL    H7925839   5.716   6.495   4.813 -0.8547 -2.1420  2.0014
   81MOL    H8025840   5.706   6.606   5.029  0.1764  0.9548  0.7014
   81MOL    H8125841   5.922   6.666   5.147 -2.8002  1.0299 -0.2306
   81MOL    C8225842   6.226   6.724   5.087 -0.4304  0.0701  0.4054
   81MOL    C8325843   6.248   6.795   4.946  0.5422  0.2280 -0.6943
   81MOL    C8425844   6.252   6.947   4.969 -0.4088 -0.1413 -0.1805
   81MOL    C8525845   6.368   7.019   5.009 -0.2546  0.0765 -0.1863
   81MOL    C8625846   6.373   7.158   5.010  0.2296  0.6112 -0.8449
   81MOL    C8725847   6.262   7.228   4.962 -0.1463  0.0111 -0.1743
   81MOL    C8825848   6.143   7.166   4.933 -0.1622  0.5945  0.2958
   81MOL    C8925849   6.139   7.025   4.935 -0.0334 -0.3999 -0.2603
   81MOL    H9025850   6.320   6.738   5.139 -0.6666 -1.7216  1.3769
   81MOL    H9125851   6.148   6.782   5.137  1.3835  2.3245  0.7008
   81MOL    H9225852   6.172   6.778   4.870 -0.5994 -1.3508  0.7615
   81MOL    H9325853   6.445   6.960   5.056  1.6276  1.5649 -1.3331
   81MOL    H9425854   6.459   7.215   5.042  0.2438 -0.1770  0.5393
   81MOL    H9525855   6.262   7.336   4.958  0.5171 -0.0073 -0.8112
   81MOL    H9625856   6.056   7.220   4.898  0.5895  0.6054 -1.5878
   81MOL    H9725857   6.050   6.975   4.901  0.0090 -0.6308 -0.0405
   81MOL    C9825858   6.379   6.744   4.872 -0.7015  0.6084 -0.5051
   81MOL    C9925859   6.390   6.794   4.722  0.2334  0.1558  0.2370
   81MOL   C10025860   6.527   6.818   4.667  0.6718 -0.1821  0.3822
   81MOL   C10125861   6.627   6.712   4.663 -0.9438 -0.1842 -0.3609
   81MOL   C10225862   6.762   6.735   4.631  0.3972  0.1539 -0.0435
   81MOL   C10325863   6.812   6.866   4.618 -0.1490 -0.1233  0.0116
   81MOL   C10425864   6.712   6.970   4.618 -0.1197  0.5423 -0.6591
   81MOL   C10525865   6.578   6.948   4.635  0.0035 -1.0485 -0.7296
   81MOL   H10625866   6.377   6.635   4.869 -0.6449  0.6120 -0.7050
   81MOL   H10725867   6.463   6.778   4.931 -1.3110 -0.9470  1.2807
   81MOL   H10825868   6.342   6.891   4.730 -0.6611  0.0498 -3.2088
   81MOL   H10925869   6.582   6.620   4.697 -0.3546 -0.1363  0.5672
   81MOL   H11025870   6.835   6.656   4.624  1.2068  0.8769  0.2511
   81MOL   H11125871   6.917   6.886   4.604  0.0968 -0.7370  0.9397
   81MOL   H11225872   6.741   7.073   4.602  0.8743  0.4500  0.4842
   81MOL   H11325873   6.507   7.029   4.629 -0.4878 -1.3671  0.7523
   81MOL   C11425874   6.300   6.704   4.629 -0.2549  0.2514 -0.3606
   81MOL   C11525875   6.239   6.783   4.513  0.5507 -0.4461 -0.1835
   81MOL   C11625876   6.187   6.690   4.410 -0.2590  0.2591  0.1394
   81MOL   C11725877   6.239   6.685   4.282  0.2184  0.2523 -0.2268
   81MOL   C11825878   6.202   6.593   4.183  0.6461 -0.5485 -0.3871
   81MOL   C11925879   6.086   6.517   4.207  0.0561 -0.2617 -0.4262
   81MOL   C12025880   6.027   6.521   4.331 -0.4087 -0.4144 -0.3379
   81MOL   C12125881   6.079   6.605   4.432  0.6049 -0.0825 -0.2127
   81MOL   H12225882   6.230   6.646   4.690  0.8285 -1.7237 -0.9635
   81MOL   H12325883   6.364   6.624   4.591  1.0311  0.7373  0.7474
   81MOL   H12425884   6.309   6.843   4.455 -0.0029  0.8825  0.4966
   81MOL   H12525885   6.328   6.746   4.269  1.1461 -1.0199  0.0294
   81MOL   H12625886   6.251   6.599   4.087  1.9290 -0.2794  0.2835
   81MOL   H12725887   6.055   6.444   4.134 -2.0817  0.7387 -0.5740
   81MOL   H12825888   5.935   6.465   4.342  0.8084 -2.3187  0.4627
   81MOL   H12925889   6.034   6.609   4.530 -1.6252 -1.2479 -1.1644
   81MOL   C13025890   6.135   6.881   4.577 -0.5839 -0.6824  0.0461
   81MOL   C13125891   6.001   6.913   4.516  1.3035 -0.2423  0.0681
   81MOL   C13225892   5.899   6.958   4.626  0.0670 -0.6423 -0.2477
   81MOL   C13325893   5.901   7.087   4.681  0.3329  0.0992  0.0074
   81MOL   C13425894   5.812   7.130   4.784 -0.0499 -0.9008  0.1532
   81MOL   C13525895   5.738   7.035   4.852  0.2375  0.3275  1.1802
   81MOL   C13625896   5.731   6.904   4.796  0.8427 -0.1192 -0.5693
   81MOL   C13725897   5.810   6.867   4.688  0.0004  0.0110 -0.0790
   81MOL   H13825898   6.183   6.973   4.613  0.3906 -1.1703  0.0085
   81MOL   H13925899   6.097   6.826   4.662 -0.1356 -0.4569  0.3960
   81MOL   H14025900   5.954   6.819   4.485  0.8751  0.6346 -2.0413
   81MOL   H14125901   5.975   7.158   4.648  0.7328  1.2405  3.1817
   81MOL   H14225902   5.821   7.227   4.830  3.0446 -0.3045 -1.6023
   81MOL   H14325903   5.680   7.061   4.940 -1.1296  0.8392  0.1305
   81MOL   H14425904   5.677   6.836   4.860  0.4488  1.3605  0.7027
   81MOL   H14525905   5.815   6.761   4.668 -2.8925 -0.4861  1.5931
   81MOL   C14625906   6.017   7.006   4.394 -0.0381  1.3295  0.6367
   81MOL   C14725907   5.896   7.065   4.318  0.3471 -0.0245 -0.0854
   81MOL   C14825908   5.931   7.104   4.177 -0.1484 -0.1285  0.4212
   81MOL   C14925909   5.904   7.236   4.134  0.2107 -0.1459 -0.0490
   81MOL   C15025910   5.930   7.275   4.002 -0.2320  0.0845 -1.4823
   81MOL   C15125911   5.994   7.188   3.912 -0.3293  0.2029 -0.0235
   81MOL   C15225912   6.023   7.058   3.950  0.6305  0.0816  0.3231
   81MOL   C15325913   5.984   7.018   4.079  0.1191 -0.3783 -0.4084
   81MOL   H15425914   6.069   6.939   4.326  1.5215  1.4857  1.6601
   81MOL   H15525915   6.090   7.085   4.411 -1.0713  2.1623  1.2927
   81MOL   H15625916   5.861   7.148   4.380  1.0372 -0.1371  0.4559
   81MOL   H15725917   5.853   7.310   4.195  1.8775  0.5210  0.5750
   81MOL   H15825918   5.916   7.378   3.971  2.5546  0.6668 -0.9404
   81MOL   H15925919   6.015   7.214   3.809  1.8308  1.4624  0.7032
   81MOL   H16025920   6.060   6.982   3.883  2.4548  1.4999 -0.3091
   81MOL   H16125921   6.004   6.913   4.094  2.2337  0.0157 -0.2659
   81MOL   C16225922   5.772   6.964   4.311 -0.1160 -0.3255 -0.0295
   81MOL   C16325923   5.663   6.994   4.196 -1.0956 -0.0665 -0.2933
   81MOL   C16425924   5.564   6.882   4.198 -0.3057 -0.2469 -0.3817
   81MOL   C16525925   5.486   6.850   4.307  0.5045 -0.2013  0.0841
   81MOL   C16625926   5.384   6.753   4.303 -0.3882  0.1909  0.1537
   81MOL   C16725927   5.366   6.685   4.184  0.0878 -0.0715  0.2618
   81MOL   C16825928   5.448   6.714   4.071 -0.3012 -0.5717  0.3851
   81MOL   C16925929   5.547   6.810   4.077  0.0955  0.2448  0.5677
   81MOL   H17025930   5.728   6.957   4.411  2.4862 -2.3614  1.0174
   81MOL   H17125931   5.809   6.866   4.282 -0.7721 -0.3078 -0.9525
   81MOL   H17225932   5.715   6.996   4.100  0.9254 -0.9579  0.7605
   81MOL   H17325933   5.505   6.898   4.402 -0.0760  0.8676 -0.3384
   81MOL   H17425934   5.324   6.725   4.389  1.0847  1.2192  1.5414
   81MOL   H17525935   5.287   6.612   4.174  0.2348 -0.2836  0.6279
   81MOL   H17625936   5.424   6.665   3.978 -0.5450  0.6591 -0.2188
   81MOL   H17725937   5.604   6.823   3.986 -1.3240 -0.3916 -0.4315
   81MOL   C17825938   5.586   7.128   4.219  0.3587 -0.2357  0.7359
   81MOL   C17925939   5.472   7.173   4.121  0.1358 -0.1503  1.1349
   81MOL   C18025940   5.362   7.244   4.194 -0.5953 -0.8916 -0.0252
   81MOL   C18125941   5.232   7.189   4.210 -0.0978 -0.2430  0.3041
   81MOL   C18225942   5.132   7.262   4.277  0.6778  0.7249 -0.4776
   81MOL   C18325943   5.160   7.387   4.328  0.3810 -0.1926  0.3186
   81MOL   C18425944   5.291   7.442   4.319 -0.5659  0.3099  0.6545
   81MOL   C18525945   5.394   7.369   4.256  0.4340 -0.6921  0.5765
   81MOL   H18625946   5.656   7.211   4.224  0.1652 -0.0419  0.2060
   81MOL   H18725947   5.547   7.108   4.319 -3.2251 -0.6192 -0.6605
   81MOL   H18825948   5.419   7.083   4.090 -1.4831  1.1787 -0.0102
   81MOL   H18925949   5.208   7.092   4.169 -1.1329  0.5213 -0.9474
   81MOL   H19025950   5.041   7.216   4.314  0.8253  0.8978  0.1083
   81MOL   H19125951   5.087   7.447   4.381  1.8430  1.2983  0.7010
   81MOL   H19225952   5.312   7.538   4.365  1.2644  1.1040 -1.7243
   81MOL   H19325953   5.493   7.410   4.248  0.0311  0.3476  0.7354
   81MOL   C19425954   5.538   7.233   3.991  0.4356 -0.7077 -0.0558
   81MOL   C19525955   5.451   7.251   3.869 -0.7135 -0.5434 -0.3350
   81MOL   C19625956   5.505   7.356   3.765 -0.2104 -0.2771 -1.1138
   81MOL   C19725957   5.632   7.341   3.711  0.3481  0.6516 -0.0123
   81MOL   C19825958   5.679   7.425   3.609  0.0542 -0.1374  0.3648
   81MOL   C19925959   5.592   7.520   3.554  0.3105 -0.3665  1.0546
   81MOL   C20025960   5.472   7.547   3.617 -0.7406 -0.1286  0.7061
   81MOL   C20125961   5.430   7.464   3.721  0.6237 -0.8092 -0.7350
   81MOL   H20225962   5.628   7.177   3.965  1.1551  0.5306 -0.2879
   81MOL   H20325963   5.572   7.334   4.014  0.4723 -0.4657 -1.1324
   81MOL   H20425964   5.353   7.295   3.887  0.0071  0.6168  0.8893
   81MOL   H20525965   5.697   7.260   3.744  0.4324  0.7141 -0.0238
   81MOL   H20625966   5.775   7.412   3.559  0.3100  2.4471  0.1247
   81MOL   H20725967   5.606   7.573   3.461  1.7643 -0.0638  1.4250
   81MOL   H20825968   5.396   7.617   3.584  0.3281  1.4964  1.6030
   81MOL   H20925969   5.324   7.473   3.740  0.9812  1.6655  0.2990
   81MOL   C21025970   5.428   7.118   3.798  0.0223 -0.1910  0.7836
   81MOL   C21125971   5.289   7.081   3.742  0.4170  0.3167  0.3602
   81MOL   C21225972   5.303   6.956   3.651 -0.5136  0.0255  0.1731
   81MOL   C21325973   5.357   6.834   3.699  0.3099  1.0582  0.5466
   81MOL   C21425974   5.374   6.721   3.613 -0.6905 -1.0686  0.6807
   81MOL   C21525975   5.338   6.731   3.474 -0.4090  0.1486 -0.5684
   81MOL   C21625976   5.286   6.852   3.428  0.3003 -0.0391 -0.0414
   81MOL   C21725977   5.264   6.962   3.515  0.4479  0.3076  0.1799
   81MOL   H21825978   5.470   7.036   3.857 -2.0391 -2.3125 -0.5714
   81MOL   H21925979   5.500   7.112   3.717  1.6302  0.6573  2.1332
   81MOL   H22025980   5.255   7.172   3.693 -3.0840  0.5055  2.8842
   81MOL   H22125981   5.380   6.825   3.805  0.7592  1.6937  0.5045
   81MOL   H22225982   5.437   6.638   3.643  0.6704 -0.5856 -0.7827
   81MOL   H22325983   5.353   6.645   3.411 -0.9117 -0.9806  0.8471
   81MOL   H22425984   5.262   6.865   3.323  0.8113  0.4012 -0.1036
   81MOL   H22525985   5.202   7.046   3.486  1.2414  1.0644  0.6546
   81MOL   C22625986   5.187   7.051   3.859  0.2167  0.2528 -0.2935
   81MOL   C22725987   5.042   7.106   3.846 -0.5776  0.0212 -0.2581
   81MOL   C22825988   4.989   7.067   3.711  0.8898  0.4922  0.2402
   81MOL   C22925989   4.966   6.934   3.687  0.0707 -0.0956 -0.7355
   81MOL   C23025990   4.918   6.890   3.566 -0.2368  0.4434  0.6905
   81MOL   C23125991   4.897   6.982   3.466  0.1490  1.1071  0.5358
   81MOL   C23225992   4.926   7.117   3.481 -1.0197 -0.0505 -0.0741
   81MOL   C23325993   4.980   7.159   3.605  0.5262  0.2415 -0.0260
   81MOL   H23425994   5.226   7.100   3.948  2.9699 -1.4586 -0.4848
   81MOL   H23525995   5.201   6.945   3.882  0.8885  0.4556  0.2536
   81MOL   H23625996   5.049   7.215   3.848 -0.7355  0.0338 -0.4316
   81MOL   H23725997   4.976   6.858   3.763 -1.1273  1.0818  0.6277
   81MOL   H23825998   4.893   6.789   3.539 -1.2249  0.8155  0.1791
   81MOL   H23925999   4.868   6.935   3.373  2.3772 -0.9739  0.8512
   81MOL   H24026000   4.901   7.190   3.405 -0.1769  0.3698  0.0425
   81MOL   H24126001   5.008   7.260   3.629  0.6232  0.1460  0.2760
   81MOL   C24226002   4.947   7.060   3.955 -0.0212  0.2817  0.8459
   81MOL   C24326003   4.802   7.109   3.925  0.6881  0.3409 -0.1492
   81MOL   C24426004   4.730   7.065   4.051  0.3601 -0.7461 -0.8710
   81MOL   C24526005   4.751   7.139   4.167 -0.3351 -0.7572 -0.1965
   81MOL   C24626006   4.683   7.103   4.286 -0.8633 -1.0882  0.0841
   81MOL   C24726007   4.591   7.004   4.276 -0.4344 -0.1568 -0.2799
   81MOL   C24826008   4.569   6.927   4.163 -0.2956 -0.5734  0.3965
   81MOL   C24926009   4.635   6.962   4.042 -0.0648  0.4651 -0.4942
   81MOL   H25026010   4.991   7.101   4.045  0.7500  1.3561 -0.0021
   81MOL   H25126011   4.953   6.954   3.977  0.2520  0.1917  0.3661
   81MOL   H25226012   4.761   7.046   3.846 -2.3214 -0.8926  2.2901
   81MOL   H25326013   4.823   7.220   4.166  0.4711 -1.4417  0.8133
   81MOL   H25426014   4.701   7.139   4.387 -0.9577 -2.2394  0.5250
   81MOL   H25526015   4.534   6.981   4.365  2.0330 -1.3640  1.0600
   81MOL   H25626016   4.509   6.837   4.165  0.1604 -0.8865  0.1733
   81MOL   H25726017   4.620   6.906   3.951 -1.1310 -2.5495  1.4711
   81MOL   C25826018   4.778   7.259   3.889  0.8631 -0.4591 -0.6592
   81MOL   C25926019   4.632   7.272   3.830 -0.0979 -0.3878 -0.6373
   81MOL   C26026020   4.587   7.418   3.830 -0.0960 -0.2456  0.3464
   81MOL   C26126021   4.489   7.456   3.923 -0.4131 -0.9742 -0.0476
   81MOL   C26226022   4.446   7.589   3.937 -0.1533 -0.6254 -0.0756
   81MOL   C26326023   4.497   7.687   3.848 -0.2597  0.7151 -1.0474
   81MOL   C26426024   4.598   7.650   3.756 -0.0316  1.0091 -0.1872
   81MOL   C26526025   4.635   7.517   3.739 -0.2737 -1.2109 -0.9731
   81MOL   H26626026   4.845   7.308   3.818 -1.3583 -1.2480 -3.3957
   81MOL   H26726027   4.789   7.324   3.976 -2.4873  0.7039 -1.0173
   81MOL   H26826028   4.563   7.220   3.896 -0.8523  0.1448 -0.9980
   81MOL   H26926029   4.446   7.377   3.984 -0.1533  0.1141  1.5828
   81MOL   H27026030   4.371   7.619   4.009  0.8016  0.0171  0.6486
   81MOL   H27126031   4.467   7.790   3.852 -0.8520  0.4821  1.4509
   81MOL   H27226032   4.633   7.723   3.685  0.8274  0.2367 -0.5493
   81MOL   H27326033   4.711   7.485   3.668 -2.6003 -2.1059 -3.1258
   81MOL   C27426034   4.595   7.201   3.696  0.1628 -0.1961 -0.2414
   81MOL   C27526035   4.460   7.124   3.697  0.4343  0.2083 -0.7304
   81MOL   C27626036   4.346   7.207   3.759 -0.2445  0.0387 -0.5753
   81MOL   C27726037   4.288   7.177   3.886 -0.9762  0.4264 -0.0321
   81MOL   C27826038   4.197   7.261   3.945  1.0665 -1.2335  0.4879
   81MOL   C27926039   4.149   7.373   3.875  0.1366  0.6526 -0.0243
   81MOL   C28026040   4.193   7.399   3.743 -0.4999  0.2538  0.2105
   81MOL   C28126041   4.290   7.314   3.683  0.0857 -0.3744  0.8397
   81MOL   H28226042   4.676   7.141   3.654 -0.1999 -1.0988  0.3411
   81MOL   H28326043   4.601   7.274   3.615  0.7876  1.4157  1.2039
   81MOL   H28426044   4.472   7.044   3.770 -0.3279 -0.2601 -1.1092
   81MOL   H28526045   4.332   7.093   3.938  0.3722  2.7986  2.7573
   81MOL   H28626046   4.162   7.237   4.044  0.8857  0.5760  0.8700
   81MOL   H28726047   4.076   7.435   3.925 -3.1682 -2.0696 -1.2691
   81MOL   H28826048   4.156   7.478   3.678  1.1862 -0.2178 -1.3561
   81MOL   H28926049   4.340   7.332   3.588  0.7973 -1.2135  1.0468
   81MOL   C29026050   4.428   7.064   3.559 -0.0337  1.1710 -0.2711
   81MOL   C29126051   4.490   6.927   3.514  0.2132  0.3549 -0.2091
   81MOL   C29226052   4.468   6.818   3.621  0.0014  0.7877  0.2188
   81MOL   C29326053   4.332   6.776   3.660 -0.0766  0.0738  0.1289
   81MOL   C29426054   4.321   6.683   3.771  0.6829  0.2765 -0.3075
   81MOL   C29526055   4.439   6.637   3.835  0.0540 -1.3748  0.4711
   81MOL   C29626056   4.566   6.674   3.790 -0.1621 -0.1012 -0.1399
   81MOL   C29726057   4.580   6.762   3.684 -0.5500  0.1085  0.5321
   81MOL   H29826058   4.453   7.139   3.484  0.5493  2.2627  1.0069
   81MOL   H29926059   4.319   7.057   3.550  0.1153 -4.6817  0.0913
   81MOL   H30026060   4.597   6.925   3.494  0.2806 -1.4399  0.2549
   81MOL   H30126061   4.247   6.823   3.612  0.1754 -0.7764 -1.1724
   81MOL   H30226062   4.222   6.661   3.806  0.4503  1.1823 -0.3875
   81MOL   H30326063   4.426   6.573   3.920  1.9429 -0.0545  1.7892
   81MOL   H30426064   4.658   6.632   3.829 -0.2259  0.3615  0.5124
   81MOL   H30526065   4.676   6.796   3.648 -0.4011  0.7361  1.5177
   81MOL   C30626066   4.413   6.886   3.386 -0.4119 -0.3196  0.3818
   81MOL   C30726067   4.437   6.755   3.323  0.8648 -0.6023  0.2955
   81MOL   C30826068   4.393   6.736   3.179  0.3751  1.1280  0.5387
   81MOL   C30926069   4.481   6.705   3.078 -0.3415  1.4316 -0.4207
   81MOL   C31026070   4.433   6.665   2.950  0.1942 -0.9086  0.0570
   81MOL   C31126071   4.294   6.655   2.932 -0.5613 -0.3261  0.2061
   81MOL   C31226072   4.208   6.711   3.027  0.1746 -0.4807 -0.4760
   81MOL   C31326073   4.253   6.741   3.156 -0.6677  0.6584  0.0489
   81MOL   H31426074   4.461   6.951   3.312 -0.0053  0.2836  1.1611
   81MOL   H31526075   4.305   6.897   3.394 -0.3940  0.4648 -0.2779
   81MOL   H31626076   4.404   6.677   3.392  1.1838 -4.0568 -3.2748
   81MOL   H31726077   4.588   6.693   3.087 -0.2990  1.4053 -0.9752
   81MOL   H31826078   4.506   6.636   2.876 -1.2792 -0.6501 -1.5617
   81MOL   H31926079   4.250   6.633   2.836 -0.8138  0.6657  0.0869
   81MOL   H32026080   4.102   6.723   3.007 -0.4255 -0.9921  2.2120
   81MOL   H32126081   4.183   6.771   3.231  0.5798  2.2622  0.6059
   81MOL   H32226082   4.545   6.743   3.319  1.0592  1.3740 -1.4033
   82MOL     C126083   7.644   5.378   4.066  0.3925  0.1445  0.6888
   82MOL     C226084   7.655   5.415   3.920 -0.0597  0.0621  0.1914
   82MOL     C326085   7.649   5.295   3.825  0.4233  0.3473 -0.0901
   82MOL     C426086   7.545   5.202   3.831 -0.1726  0.1716  0.0081
   82MOL     C526087   7.528   5.100   3.738 -0.6401  0.5753 -0.0183
   82MOL     C626088   7.628   5.080   3.636 -0.1387  0.4417 -0.4810
   82MOL     C726089   7.731   5.175   3.628  0.8096  0.0777  0.4817
   82MOL     C826090   7.738   5.279   3.716  0.3560  0.2217  0.0463
   82MOL     H926091   7.551   5.329   4.093  0.4953 -0.0976  0.5974
   82MOL    H1026092   7.727   5.315   4.096  0.2817  0.5295  1.8181
   82MOL    H1126093   7.754   5.461   3.931 -0.6869  1.7137 -0.8858
   82MOL    H1226094   7.465   5.232   3.898 -1.6748 -1.0773 -1.2162
   82MOL    H1326095   7.441   5.036   3.738 -0.1349 -0.1561  2.1411
   82MOL    H1426096   7.617   5.008   3.556  0.5574 -0.2324  0.0189
   82MOL    H1526097   7.801   5.185   3.546 -0.8351 -1.0236 -1.1062
   82MOL    H1626098   7.812   5.358   3.707  1.2105 -0.7669 -1.7445
   82MOL    H1726099   7.652   5.462   4.135 -1.2510 -0.9964  2.3131
   82MOL    C1826100   7.547   5.518   3.891 -0.2696  1.0421 -0.4548
   82MOL    C1926101   7.583   5.610   3.775  0.2486  0.3686 -0.1751
   82MOL    C2026102   7.455   5.677   3.734 -0.3007  0.0085 -1.1000
   82MOL    C2126103   7.397   5.776   3.816  0.0337  0.2020 -0.2274
   82MOL    C2226104   7.282   5.845   3.774  0.6706  0.3354  0.1252
   82MOL    C2326105   7.222   5.808   3.653  1.1287 -0.0664  1.0481
   82MOL    C2426106   7.268   5.699   3.573  0.0223  1.0301 -0.0999
   82MOL    C2526107   7.389   5.635   3.617  0.0842 -0.2923 -0.0505
   82MOL    H2626108   7.525   5.578   3.979  0.1081 -0.3748  0.6347
   82MOL    H2726109   7.465   5.447   3.883 -1.4155  2.3502 -0.5179
   82MOL    H2826110   7.620   5.546   3.695  1.9229  0.1723  0.7326
   82MOL    H2926111   7.436   5.795   3.915  0.8810  0.8529 -0.6830
   82MOL    H3026112   7.238   5.932   3.820  2.5822  0.7304  1.3033
   82MOL    H3126113   7.136   5.862   3.616 -0.1077 -2.5526  0.2320
   82MOL    H3226114   7.217   5.676   3.481  1.7241 -0.0393 -0.7975
   82MOL    H3326115   7.424   5.552   3.558 -0.9213 -0.0168 -1.0425
   82MOL    C3426116   7.680   5.722   3.804  0.5662  0.1109 -0.1367
   82MOL    C3526117   7.735   5.816   3.689  0.8475 -0.3091 -0.2578
   82MOL    C3626118   7.672   5.958   3.691  0.4540 -0.3022  0.4482
   82MOL    C3726119   7.720   6.061   3.778  0.0704 -0.2769  0.0347
   82MOL    C3826120   7.657   6.188   3.784  0.5603  0.5064 -0.2714
   82MOL    C3926121   7.536   6.201   3.711 -0.1071  0.3944 -0.9553
   82MOL    C4026122   7.490   6.109   3.622 -0.0169 -0.0094  0.3244
   82MOL    C4126123   7.556   5.982   3.614 -0.3149  0.7825 -0.2483
   82MOL    H4226124   7.755   5.667   3.862 -0.0402 -2.0033 -1.3131
   82MOL    H4326125   7.647   5.795   3.878 -0.1605  0.4587 -0.8036
   82MOL    H4426126   7.721   5.763   3.595 -1.8432  1.4587 -0.9167
   82MOL    H4526127   7.804   6.041   3.843  1.7306  1.6722 -1.4658
   82MOL    H4626128   7.690   6.274   3.840  1.4520 -1.8484  2.9513
   82MOL    H4726129   7.480   6.293   3.714 -1.0843 -0.1918 -1.0328
   82MOL    H4826130   7.398   6.136   3.572  1.6350  0.1407 -2.7715
   82MOL    H4926131   7.516   5.908   3.546  2.0262 -1.0146  0.2558
   82MOL    C5026132   7.891   5.834   3.707 -0.8180 -0.1898  0.6665
   82MOL    C5126133   7.986   5.726   3.651 -0.1920 -0.3133 -0.2802
   82MOL    C5226134   7.988   5.720   3.502 -0.5035 -0.0120  0.6332
   82MOL    C5326135   8.046   5.827   3.429 -0.1764  0.5722 -0.6225
   82MOL    C5426136   8.062   5.812   3.292 -0.1872 -0.1825  0.4903
   82MOL    C5526137   8.028   5.694   3.231 -0.3012 -0.0687  0.8127
   82MOL    C5626138   7.966   5.590   3.295 -0.3751 -0.9689  0.2360
   82MOL    C5726139   7.948   5.598   3.436  0.9381  1.0004 -0.1026
   82MOL    H5826140   7.904   5.834   3.815  1.8235 -1.9556  0.4016
   82MOL    H5926141   7.918   5.924   3.652  0.9090 -1.2013 -0.2044
   82MOL    H6026142   7.944   5.634   3.692 -2.3382  0.6239 -0.3443
   82MOL    H6126143   8.082   5.921   3.469  1.3685  0.1915 -1.1000
   82MOL    H6226144   8.099   5.891   3.229 -2.9387  0.6958 -0.0857
   82MOL    H6326145   8.045   5.686   3.124  2.0987 -2.0748  1.3013
   82MOL    H6426146   7.931   5.500   3.245 -0.4361  0.3109 -2.0724
   82MOL    H6526147   7.901   5.513   3.481 -0.2070  0.6672 -1.8731
   82MOL    C6626148   0.019   5.728   3.700 -0.4688 -0.4286  0.4330
   82MOL    C6726149   0.031   5.681   3.845 -0.2597 -0.2936  0.6374
   82MOL    C6826150   8.113   5.529   3.857  0.1950  0.3927 -0.1118
   82MOL    C6926151   0.018   5.444   3.752 -0.7971 -0.0993  0.6937
   82MOL    C7026152   8.087   5.313   3.751 -0.8792  0.4944 -0.5892
   82MOL    C7126153   8.022   5.269   3.869  0.4213 -0.2728 -0.5948
   82MOL    C7226154   8.012   5.345   3.987  0.6292 -0.2085  0.2730
   82MOL    C7326155   8.057   5.480   3.975 -0.0994  0.4468 -0.2486
   82MOL    H7426156   0.058   5.829   3.684 -1.6161 -0.1315 -0.6054
   82MOL    H7526157   0.091   5.679   3.635  0.1189  2.0143 -0.8247
   82MOL    H7626158   8.074   5.727   3.913 -0.3839 -0.5860  0.7081
   82MOL    H7726159   0.077   5.470   3.666  0.3146  1.0017  1.7701
   82MOL    H7826160   8.097   5.256   3.660 -3.6668  0.3666 -0.8373
   82MOL    H7926161   7.991   5.166   3.873  0.2242 -0.2151 -0.6471
   82MOL    H8026162   7.970   5.310   4.080 -0.7497  3.4870  1.1422
   82MOL    H8126163   8.062   5.545   4.061  1.0793 -1.3412  1.0761
   82MOL    C8226164   0.173   5.720   3.899  0.2717  0.5589  0.1740
   82MOL    C8326165   0.164   5.869   3.937  0.2513 -0.8210  0.1445
   82MOL    C8426166   0.116   5.898   4.076  0.3708  0.1616  0.0276
   82MOL    C8526167   0.195   5.879   4.190 -0.0888 -0.3333  0.3879
   82MOL    C8626168   0.153   5.911   4.320 -0.0117 -0.4147 -0.2258
   82MOL    C8726169   0.033   5.988   4.332  0.0698  1.1884 -0.0440
   82MOL    C8826170   8.063   6.011   4.221  0.1891  0.3025  0.4746
   82MOL    C8926171   8.103   5.960   4.101 -0.4486 -0.8778  0.0837
   82MOL    H9026172   0.261   5.715   3.836  0.7476 -0.1355  0.8778
   82MOL    H9126173   0.203   5.661   3.986 -0.4173  0.0791  0.0899
   82MOL    H9226174   0.081   5.913   3.883  0.1908  0.8022  1.5153
   82MOL    H9326175   0.289   5.834   4.163  0.1889  1.1217 -1.1036
   82MOL    H9426176   0.219   5.890   4.403 -0.3984 -0.4820  0.0681
   82MOL    H9526177   0.000   6.035   4.424  1.1733 -2.1716  2.1719
   82MOL    H9626178   7.969   6.064   4.220  0.7854  1.3920 -2.6847
   82MOL    H9726179   8.041   5.974   4.013  3.5047  3.5556 -2.1660
   82MOL    C9826180   0.291   5.949   3.893 -0.5569  0.6141 -0.3418
   82MOL    C9926181   0.275   6.107   3.892  0.0115  0.2188  0.4509
   82MOL   C10026182   0.143   6.149   3.837  0.1039 -1.2195  0.0369
   82MOL   C10126183   0.123   6.123   3.694 -0.1315 -0.8276  1.0972
   82MOL   C10226184   0.006   6.167   3.635 -0.1285 -0.8080 -0.3805
   82MOL   C10326185   8.027   6.237   3.713 -0.2860  0.1027 -0.5033
   82MOL   C10426186   8.041   6.249   3.849 -0.0357 -0.1614 -0.0512
   82MOL   C10526187   0.042   6.208   3.915  0.2642 -0.3359  0.6987
   82MOL   H10626188   0.321   5.924   3.792  0.4706  1.7179 -0.3283
   82MOL   H10726189   0.372   5.914   3.958 -1.4082 -0.6001  0.0811
   82MOL   H10826190   0.347   6.143   3.820  0.5780 -1.0297  0.3817
   82MOL   H10926191   0.200   6.073   3.637 -1.0100 -1.0856  0.1284
   82MOL   H11026192   8.088   6.164   3.532 -2.0266  1.2211  0.1388
   82MOL   H11126193   7.929   6.253   3.670 -1.5130  0.2235  2.2675
   82MOL   H11226194   7.968   6.305   3.906  1.0904  2.5425 -1.1868
   82MOL   H11326195   0.053   6.203   4.022 -1.8436 -0.2385  0.9508
   82MOL   C11426196   0.313   6.183   4.022 -0.2021 -0.2706  0.1025
   82MOL   C11526197   0.463   6.178   4.053 -0.3419  1.1115  0.2388
   82MOL   C11626198   0.536   6.292   3.986 -0.0230  0.2743 -0.1728
   82MOL   C11726199   0.619   6.258   3.872 -0.4708  0.3292 -0.2390
   82MOL   C11826200   0.672   6.363   3.796  0.4512  0.1271  0.5312
   82MOL   C11926201   0.646   6.500   3.824 -0.1013 -0.2100  0.0590
   82MOL   C12026202   0.566   6.528   3.937  0.4134 -0.0250  0.5538
   82MOL   C12126203   0.512   6.429   4.021 -0.3597 -0.1079  0.1813
   82MOL   H12226204   0.253   6.145   4.105 -1.6711  3.8307  1.0407
   82MOL   H12326205   0.287   6.288   4.010 -1.9211 -0.5475  1.3032
   82MOL   H12426206   0.508   6.085   4.019 -1.1037  0.5571  0.7275
   82MOL   H12526207   0.639   6.156   3.841  1.0186  1.0498 -1.7431
   82MOL   H12626208   0.727   6.334   3.708 -0.8728  1.9225 -0.9352
   82MOL   H12726209   0.678   6.581   3.760  1.2475 -0.8433 -0.0881
   82MOL   H12826210   0.537   6.628   3.966 -2.4970 -0.5271 -0.4546
   82MOL   H12926211   0.454   6.464   4.106  1.4208  1.8538  0.6417
   82MOL   C13026212   0.487   6.173   4.202  0.0075 -1.1473 -0.4987
   82MOL   C13126213   0.627   6.126   4.256 -0.4021  0.4973  0.1807
   82MOL   C13226214   0.649   6.166   4.406  0.1507 -1.2047  0.4232
   82MOL   C13326215   0.548   6.144   4.499  0.0010 -0.3831 -0.4855
   82MOL   C13426216   0.561   6.196   4.629 -0.2357 -0.3273  0.1546
   82MOL   C13526217   0.683   6.260   4.665 -0.4449 -0.2919 -0.3331
   82MOL   C13626218   0.780   6.285   4.571 -0.1765  0.2085  0.1525
   82MOL   C13726219   0.763   6.237   4.438 -0.2431  0.2838 -0.9634
   82MOL   H13826220   0.409   6.116   4.253  0.4639 -0.2414  1.2236
   82MOL   H13926221   0.472   6.272   4.245 -1.7701 -1.4356 -0.4005
   82MOL   H14026222   0.701   6.182   4.199  1.2224 -0.8247  0.9673
   82MOL   H14126223   0.461   6.083   4.479 -0.3372 -0.3083  0.7081
   82MOL   H14226224   0.493   6.186   4.711  2.1914  1.3648  2.4723
   82MOL   H14326225   0.696   6.289   4.769  0.3860 -1.1107 -0.2063
   82MOL   H14426226   0.865   6.343   4.603 -0.7753  2.7385 -2.6720
   82MOL   H14526227   0.839   6.263   4.366  1.3497 -0.2811  0.4823
   82MOL   C14626228   0.667   5.970   4.225  0.0555 -0.2088 -0.1473
   82MOL   C14726229   0.812   5.941   4.265 -0.5743  0.2083 -0.4152
   82MOL   C14826230   0.830   5.821   4.367  0.0693 -0.0650  0.1872
   82MOL   C14926231   0.743   5.704   4.363 -0.0960  0.3097  0.3680
   82MOL   C15026232   0.762   5.593   4.450  0.4195  0.8107  0.3133
   82MOL   C15126233   0.886   5.587   4.522 -0.0455  0.0433  0.0265
   82MOL   C15226234   0.975   5.694   4.520 -0.8930 -0.0617 -0.2490
   82MOL   C15326235   0.950   5.810   4.443 -0.0145  0.7105 -0.4701
   82MOL   H15426236   0.646   5.964   4.118  1.4509 -1.5311 -0.3557
   82MOL   H15526237   0.594   5.902   4.270 -0.3922  0.5232  0.2414
   82MOL   H15626238   0.874   6.021   4.305 -0.0531  0.0503 -0.9077
   82MOL   H15726239   0.658   5.701   4.297  2.2656  1.0089 -2.8538
   82MOL   H15826240   0.694   5.510   4.450 -1.1499  2.0626 -0.9671
   82MOL   H15926241   0.922   5.498   4.572  0.2132 -0.3667 -0.8795
   82MOL   H16026242   1.071   5.680   4.567 -0.2148 -0.0166 -1.5934
   82MOL   H16126243   1.029   5.882   4.443  1.0568 -0.4302  1.2204
   82MOL   C16226244   0.895   5.905   4.145  0.1363  0.0726  0.3935
   82MOL   C16326245   0.927   6.025   4.045 -0.2760  0.9482  0.2274
   82MOL   C16426246   0.991   6.141   4.120  0.1282 -0.8999  0.3839
   82MOL   C16526247   1.089   6.133   4.224 -0.0582 -0.2931 -0.3591
   82MOL   C16626248   1.152   6.250   4.263 -0.4829  0.6461  0.0464
   82MOL   C16726249   1.111   6.378   4.228 -0.0508  0.0435 -0.1587
   82MOL   C16826250   1.000   6.384   4.139 -0.0783 -0.9690 -0.1376
   82MOL   C16926251   0.943   6.271   4.086 -0.3274  0.0211 -0.2547
   82MOL   H17026252   0.840   5.833   4.084 -1.1653  1.5534 -0.2176
   82MOL   H17126253   0.986   5.851   4.172 -0.1258 -1.5622 -1.7857
   82MOL   H17226254   0.839   6.067   3.996 -0.3799  1.4352  0.8323
   82MOL   H17326255   1.133   6.037   4.246  0.0589 -0.0154  0.6787
   82MOL   H17426256   1.236   6.249   4.331 -0.7330  0.0152  0.3415
   82MOL   H17526257   1.181   6.450   4.268 -1.2207 -0.1306  2.3196
   82MOL   H17626258   0.962   6.475   4.095  0.2098 -0.2813  1.0268
   82MOL   H17726259   0.870   6.287   4.008  1.7026  0.8962 -2.0489
   82MOL   C17826260   1.028   5.990   3.933  0.6037  1.0140  0.7344
   82MOL   C17926261   0.985   5.876   3.839 -0.1156  0.3955 -0.0708
   82MOL   C18026262   0.863   5.915   3.755  1.1166 -1.1502 -0.1468
   82MOL   C18126263   0.777   5.806   3.719 -0.4537 -0.6832  0.1410
   82MOL   C18226264   0.679   5.828   3.619  0.3104 -0.5579 -0.1024
   82MOL   C18326265   0.672   5.951   3.554 -0.2958 -0.5344 -0.8431
   82MOL   C18426266   0.752   6.060   3.591 -1.0842  0.3778  0.5873
   82MOL   C18526267   0.850   6.039   3.695 -0.1618 -0.5865 -0.3218
   82MOL   H18626268   1.130   5.968   3.965  0.9592 -1.3217 -1.8846
   82MOL   H18726269   1.038   6.082   3.876  0.8130 -0.0917 -1.0402
   82MOL   H18826270   0.954   5.785   3.889 -0.3621  0.6230  0.1916
   82MOL   H18926271   0.790   5.709   3.766 -1.3645  0.4148  2.7461
   82MOL   H19026272   0.619   5.742   3.591 -0.9624  0.2502  0.1120
   82MOL   H19126273   0.603   5.959   3.471 -2.2411  0.6009  0.8253
   82MOL   H19226274   0.753   6.151   3.531 -2.1139  1.0657  1.6008
   82MOL   H19326275   0.914   6.123   3.716  1.7390 -1.9876 -0.3556
   82MOL   C19426276   1.092   5.832   3.735  0.5637  0.2532 -0.6530
   82MOL   C19526277   1.225   5.780   3.798  0.8030  0.7989 -0.5436
   82MOL   C19626278   1.208   5.643   3.857 -0.1297 -0.0387 -0.8698
   82MOL   C19726279   1.162   5.533   3.779  0.0530 -0.1963  0.4416
   82MOL   C19826280   1.136   5.411   3.835 -0.1659 -0.7993 -0.6380
   82MOL   C19926281   1.170   5.393   3.970  0.3820 -0.9630 -0.8986
   82MOL   C20026282   1.222   5.492   4.053 -0.5689 -0.1565  0.3336
   82MOL   C20126283   1.234   5.620   3.996  0.3891 -0.3198  0.2928
   82MOL   H20226284   1.111   5.908   3.659  0.5717  1.1508  0.2321
   82MOL   H20326285   1.066   5.747   3.672 -1.6006 -0.1592  0.7337
   82MOL   H20426286   1.255   5.846   3.880 -1.0646 -0.3748  1.1298
   82MOL   H20526287   1.129   5.547   3.677  1.1905 -0.8062 -0.0213
   82MOL   H20626288   1.088   5.329   3.783 -2.1556  0.9566 -1.6231
   82MOL   H20726289   1.154   5.296   4.016  2.5544 -2.2918 -2.8259
   82MOL   H20826290   1.252   5.468   4.154  1.9315  1.1045 -0.0715
   82MOL   H20926291   1.262   5.712   4.046 -0.7217 -1.5455  3.2629
   82MOL   C21026292   1.341   5.786   3.699 -0.5335  0.3472  0.0314
   82MOL   C21126293   1.431   5.914   3.720  0.6648 -0.4501 -0.0014
   82MOL   C21226294   1.510   5.902   3.850 -0.1501 -0.4621  0.3940
   82MOL   C21326295   1.615   5.813   3.864 -0.7526  0.2623 -0.0671
   82MOL   C21426296   1.665   5.783   3.993  0.0669 -0.2103  0.5437
   82MOL   C21526297   1.617   5.852   4.104  0.3918 -0.3865 -1.1221
   82MOL   C21626298   1.515   5.942   4.091 -1.4438  0.4492  0.4076
   82MOL   C21726299   1.456   5.968   3.963  0.4767  0.1854  0.3288
   82MOL   H21826300   1.299   5.790   3.599 -4.2387  0.4035  1.5320
   82MOL   H21926301   1.410   5.702   3.710 -1.9624 -0.9034 -0.3898
   82MOL   H22026302   1.360   5.995   3.730 -0.1124 -1.0485 -0.6328
   82MOL   H22126303   1.658   5.762   3.780 -0.0078  0.6568  0.0574
   82MOL   H22226304   1.738   5.703   3.999  0.2100 -0.0517  0.9395
   82MOL   H22326305   1.655   5.832   4.203  1.5253  1.9265 -1.0446
   82MOL   H22426306   1.479   5.978   4.187  0.3640 -3.0640  2.5166
   82MOL   H22526307   1.383   6.046   3.954 -0.1420 -0.3506  0.6553
   82MOL   C22626308   1.527   5.941   3.604  0.5474 -0.3651  0.1819
   82MOL   C22726309   1.460   5.967   3.464  0.0957 -0.3914 -0.9094
   82MOL   C22826310   1.321   6.033   3.464 -0.1609  0.5552 -0.2693
   82MOL   C22926311   1.209   5.968   3.414  0.1480  0.3735 -0.7016
   82MOL   C23026312   1.083   6.033   3.418 -0.7319 -0.0562  0.4215
   82MOL   C23126313   1.070   6.159   3.469 -0.2105 -0.4073  0.0450
   82MOL   C23226314   1.179   6.220   3.523 -0.3437  0.6493 -0.7312
   82MOL   C23326315   1.307   6.162   3.513  0.1539  0.1798  0.1466
   82MOL   H23426316   1.609   5.871   3.590  0.9185  0.1541 -0.2668
   82MOL   H23526317   1.566   6.041   3.623 -1.6545  0.0375  3.0308
   82MOL   H23626318   1.435   5.875   3.410  1.5558  0.0343 -2.3542
   82MOL   H23726319   1.229   5.882   3.351  1.1266 -0.1667  0.3388
   82MOL   H23826320   0.997   5.983   3.374  0.0382 -0.0776 -1.1087
   82MOL   H23926321   0.971   6.203   3.462 -0.9161 -1.3437  3.4213
   82MOL   H24026322   1.160   6.323   3.549  1.4526  1.1196 -1.1810
   82MOL   H24126323   1.397   6.215   3.542 -0.1352  0.7113  0.0723
   82MOL   C24226324   1.561   6.035   3.370 -0.2847 -0.4782 -0.1897
   82MOL   C24326325   1.676   5.951   3.312 -0.1802 -0.5832  0.6857
   82MOL   C24426326   1.722   5.987   3.165  0.0684 -0.3845 -0.4479
   82MOL   C24526327   1.734   5.897   3.058 -0.3342  0.4060  0.1000
   82MOL   C24626328   1.783   5.924   2.927 -0.5254 -0.4525  0.6024
   82MOL   C24726329   1.812   6.061   2.903 -0.2678 -0.5454  0.8876
   82MOL   C24826330   1.794   6.157   3.003  0.1781 -0.0752 -0.1037
   82MOL   C24926331   1.753   6.118   3.129 -0.0078 -0.4803  0.1357
   82MOL   H25026332   1.582   6.136   3.406  1.5542 -0.0562 -2.3404
   82MOL   H25126333   1.499   6.042   3.281  0.4016 -2.0369 -0.8097
   82MOL   H25226334   1.652   5.847   3.331 -0.3122 -0.3978  1.5630
   82MOL   H25326335   1.718   5.791   3.072  1.6330 -0.5378 -3.9118
   82MOL   H25426336   1.774   5.848   2.850  0.4400  1.2005 -1.1793
   82MOL   H25526337   1.835   6.101   2.805  1.3195  4.2721  3.0867
   82MOL   H25626338   1.806   6.263   2.988 -0.8738  0.0129 -0.4226
   82MOL   H25726339   1.745   6.188   3.211 -3.0498 -1.9164  1.1420
   82MOL   C25826340   1.802   5.974   3.399  0.2096  0.1424 -0.0850
   82MOL   C25926341   1.902   5.858   3.414 -0.3621 -0.2869 -0.0882
   82MOL   C26026342   1.861   5.747   3.507  0.0182 -0.3534 -0.4127
   82MOL   C26126343   1.911   5.754   3.644 -0.2719  0.0775  0.7147
   82MOL   C26226344   1.880   5.648   3.732 -0.5011 -0.2280  0.6703
   82MOL   C26326345   1.816   5.535   3.684 -0.1247 -1.3681 -0.2221
   82MOL   C26426346   1.766   5.529   3.547  0.3931 -0.3606 -0.8116
   82MOL   C26526347   1.779   5.639   3.463 -0.6366 -0.4139 -0.4012
   82MOL   H26626348   1.773   6.000   3.501 -2.4250 -1.7063 -0.3161
   82MOL   H26726349   1.852   6.064   3.363 -0.8010  1.0944  0.8433
   82MOL   H26826350   1.978   5.911   3.471 -0.4987  0.5066 -0.6413
   82MOL   H26926351   1.967   5.842   3.671 -2.1572  1.6880 -0.3923
   82MOL   H27026352   1.924   5.665   3.829  0.8554 -2.4054  0.4894
   82MOL   H27126353   1.787   5.457   3.753 -0.8881 -0.7181  0.1932
   82MOL   H27226354   1.720   5.436   3.515  0.7690 -0.7997 -0.0868
   82MOL   H27326355   1.735   5.640   3.365  0.8020 -3.4024 -1.1356
   82MOL   C27426356   1.970   5.803   3.283 -0.1720 -0.4685 -0.5424
   82MOL   C27526357   2.080   5.694   3.285  0.6112 -0.1627  0.8397
   82MOL   C27626358   2.111   5.642   3.140 -0.9636 -0.3710 -0.3201
   82MOL   C27726359   2.086   5.724   3.025 -1.0544  0.2907 -0.0858
   82MOL   C27826360   2.105   5.667   2.895  0.4948 -0.3109 -0.5001
   82MOL   C27926361   2.137   5.532   2.880 -0.7393 -0.4454 -0.4448
   82MOL   C28026362   2.159   5.458   2.997  0.6978 -0.0033  0.0597
   82MOL   C28126363   2.141   5.507   3.127 -0.3607  0.4181  0.3570
   82MOL   H28226364   2.020   5.888   3.237  2.5470 -0.4053  2.3246
   82MOL   H28326365   1.889   5.768   3.219 -0.9869  1.1751 -0.4584
   82MOL   H28426366   2.044   5.609   3.344 -0.1979 -0.3596  0.0791
   82MOL   H28526367   2.039   5.821   3.025 -0.7033  0.4580 -0.0183
   82MOL   H28626368   2.090   5.733   2.810  0.3517  0.7049  0.3017
   82MOL   H28726369   2.138   5.494   2.779 -1.1238 -1.5759 -0.0305
   82MOL   H28826370   2.189   5.355   2.983  1.3897  0.0212  1.2608
   82MOL   H28926371   2.156   5.448   3.216  2.0684  2.5000  1.3822
   82MOL   C29026372   2.207   5.753   3.349  0.9637  0.3520  0.1230
   82MOL   C29126373   2.337   5.673   3.359  0.2261 -0.0658 -0.0809
   82MOL   C29226374   2.460   5.764   3.381  0.2999 -0.2449  0.5073
   82MOL   C29326375   2.569   5.756   3.285 -0.0379 -0.5315  0.0416
   82MOL   C29426376   2.668   5.858   3.286  0.6344 -0.1838  0.2213
   82MOL   C29526377   2.663   5.962   3.386  0.1865  0.1573  0.0736
   82MOL   C29626378   2.561   5.966   3.487  0.1429  0.6423  0.2799
   82MOL   C29726379   2.455   5.867   3.479  0.3139 -0.1622  0.6729
   82MOL   H29826380   2.178   5.777   3.451  0.6677 -1.5372  0.5064
   82MOL   H29926381   2.236   5.848   3.305  1.4677  0.4905  0.7524
   82MOL   H30026382   2.355   5.628   3.261  1.7497 -0.1266  0.2204
   82MOL   H30126383   2.566   5.682   3.207 -0.5374  0.3158 -0.7616
   82MOL   H30226384   2.742   5.843   3.208 -2.0535 -1.9239 -2.0867
   82MOL   H30326385   2.727   6.046   3.365 -0.3100  0.4987 -0.0789
   82MOL   H30426386   2.545   6.044   3.560 -0.1417 -1.5113  2.5825
   82MOL   H30526387   2.367   5.866   3.542  0.0250 -1.0024  0.2633
   82MOL   C30626388   2.328   5.555   3.459 -0.2576  0.3409  0.3412
   82MOL   C30726389   2.438   5.441   3.454  0.0520  0.5182 -0.9877
   82MOL   C30826390   2.368   5.307   3.500 -0.4441  0.0477  0.1027
   82MOL   C30926391   2.326   5.284   3.634 -0.6780  0.3406  0.7691
   82MOL   C31026392   2.276   5.162   3.671  0.1250  0.0290 -0.3324
   82MOL   C31126393   2.250   5.057   3.576  0.6675 -0.4166  0.4339
   82MOL   C31226394   2.279   5.087   3.440 -0.6151 -0.4833  0.3867
   82MOL   C31326395   2.337   5.210   3.403  0.7715 -0.0868  0.7297
   82MOL   H31426396   2.236   5.512   3.418  0.2634 -0.5834  0.1194
   82MOL   H31526397   2.302   5.583   3.561  0.7357 -1.2619  1.0596
   82MOL   H31626398   2.526   5.458   3.516 -0.7383 -1.5088  0.7211
   82MOL   H31726399   2.335   5.359   3.711  1.5390  1.0639 -0.1558
   82MOL   H31826400   2.245   5.146   3.774 -1.1050  1.4881 -0.4682
   82MOL   H31926401   2.216   4.958   3.600  1.1741 -1.0119 -1.3097
   82MOL   H32026402   2.245   5.023   3.360  0.7337  0.3133 -0.8350
   82MOL   H32126403   2.373   5.229   3.303  0.2170  1.4876  0.8153
   82MOL   H32226404   2.468   5.426   3.350 -2.1368 -1.6314 -1.3417
   83MOL     C126405   4.873   1.178   0.593 -0.1561 -1.2320 -0.0986
   83MOL     C226406   4.949   1.105   0.708  0.6471 -0.4497  0.6982
   83MOL     C326407   5.081   1.169   0.729  0.0587 -0.1378  0.9282
   83MOL     C426408   5.100   1.256   0.838 -0.1638 -0.2019 -0.1377
   83MOL     C526409   5.231   1.296   0.871 -0.0269 -0.8797 -0.4267
   83MOL     C626410   5.342   1.265   0.795  0.4708  0.6067 -0.3694
   83MOL     C726411   5.320   1.195   0.672 -0.2184  0.0425 -0.1741
   83MOL     C826412   5.191   1.145   0.645 -0.1501 -0.0544  1.0522
   83MOL     H926413   4.946   1.191   0.514  2.1597 -0.2925  2.1278
   83MOL    H1026414   4.778   1.132   0.563 -0.9514 -0.9685  1.9233
   83MOL    H1126415   4.960   1.004   0.668 -0.8016  0.2281 -1.4824
   83MOL    H1226416   5.023   1.296   0.901  0.3400 -0.5174  0.6786
   83MOL    H1326417   5.241   1.359   0.957  1.5333 -1.4371 -0.1938
   83MOL    H1426418   5.434   1.316   0.816  1.8170 -1.3304 -1.3725
   83MOL    H1526419   5.401   1.172   0.604 -0.6110 -3.2271  0.3898
   83MOL    H1626420   5.179   1.093   0.551 -1.4214  1.5707  0.2839
   83MOL    H1726421   4.852   1.281   0.624 -2.4039 -1.1584 -1.7248
   83MOL    C1826422   4.853   1.085   0.827 -0.0828  0.5352  0.6111
   83MOL    C1926423   4.739   0.978   0.816 -0.1571  0.4298  0.2173
   83MOL    C2026424   4.784   0.838   0.788  0.5685 -0.0453  0.0622
   83MOL    C2126425   4.736   0.765   0.672  0.0347 -0.4097 -0.2139
   83MOL    C2226426   4.776   0.634   0.642 -0.5413  0.3266 -0.1153
   83MOL    C2326427   4.852   0.558   0.735 -0.1551  0.0014 -0.2189
   83MOL    C2426428   4.904   0.629   0.845  0.3883  0.1376 -1.4301
   83MOL    C2526429   4.871   0.767   0.869 -0.1114 -0.4489  0.0574
   83MOL    H2626430   4.802   1.179   0.847 -2.3957 -0.7102  0.8327
   83MOL    H2726431   4.910   1.086   0.920 -1.7605 -3.0716  1.7857
   83MOL    H2826432   4.697   1.001   0.718  2.6211  0.7451 -0.9431
   83MOL    H2926433   4.669   0.811   0.601 -2.2850  0.0904  2.2435
   83MOL    H3026434   4.734   0.592   0.552 -2.1454 -0.4220  0.9637
   83MOL    H3126435   4.880   0.457   0.711 -0.2492  0.0815 -0.6671
   83MOL    H3226436   4.983   0.586   0.904 -0.8378  0.4688  0.4986
   83MOL    H3326437   4.928   0.819   0.945  0.3544 -1.1894  0.2172
   83MOL    C3426438   4.619   0.987   0.916  0.4658 -0.2101  0.0390
   83MOL    C3526439   4.544   1.123   0.933  0.0410 -0.0380 -0.5872
   83MOL    C3626440   4.531   1.203   0.807  0.8164  0.3972 -0.1495
   83MOL    C3726441   4.464   1.143   0.698  0.9701 -0.5039  0.4571
   83MOL    C3826442   4.459   1.198   0.569  0.6592  0.2653  0.2198
   83MOL    C3926443   4.518   1.329   0.550 -0.0479  0.1347  0.3312
   83MOL    C4026444   4.579   1.392   0.664 -0.0015 -0.2680  0.2706
   83MOL    C4126445   4.583   1.332   0.790 -0.6201 -0.2139  0.9278
   83MOL    H4226446   4.663   0.977   1.015  1.1761 -0.4344 -0.2989
   83MOL    H4326447   4.552   0.902   0.906 -1.5268  1.4074 -0.7215
   83MOL    H4426448   4.604   1.186   1.000  0.0740 -2.5441  1.8199
   83MOL    H4526449   4.434   1.040   0.712  1.1986 -0.6437 -0.0728
   83MOL    H4626450   4.429   1.144   0.481  0.3557  1.3572 -0.3658
   83MOL    H4726451   4.518   1.378   0.454  0.7267 -0.1329  0.1971
   83MOL    H4826452   4.624   1.490   0.666  1.0465 -0.7264 -0.5013
   83MOL    H4926453   4.636   1.387   0.867  1.1484 -1.0018  0.2932
   83MOL    C5026454   4.417   1.109   1.012  0.0878  0.0842 -0.0394
   83MOL    C5126455   4.334   1.248   1.024  0.4256  0.4924  0.2408
   83MOL    C5226456   4.190   1.221   0.984  0.4573 -0.3651  0.0072
   83MOL    C5326457   4.153   1.246   0.853 -0.1792  0.1502  0.2184
   83MOL    C5426458   4.017   1.234   0.823  0.1648  0.3811  0.0543
   83MOL    C5526459   3.923   1.205   0.928  0.6359 -0.0891 -0.6710
   83MOL    C5626460   3.966   1.166   1.054  0.1669 -0.1071  0.0330
   83MOL    C5726461   4.100   1.174   1.084  0.4425  0.0845 -0.3038
   83MOL    H5826462   4.439   1.077   1.114  0.3721  2.6702  0.7556
   83MOL    H5926463   4.351   1.029   0.979  0.1522 -0.3555  0.8637
   83MOL    H6026464   4.373   1.311   0.944 -0.5415  0.2837 -0.4077
   83MOL    H6126465   4.225   1.282   0.781  0.1098  0.5652  0.7083
   83MOL    H6226466   3.974   1.255   0.726 -0.2342  0.2902  0.2081
   83MOL    H6326467   3.817   1.210   0.907  0.8010  0.4429 -1.3949
   83MOL    H6426468   3.893   1.143   1.131  0.0544 -2.4012 -0.7216
   83MOL    H6526469   4.129   1.150   1.186  0.3303 -1.8447 -0.7031
   83MOL    C6626470   4.354   1.323   1.158 -0.3221  0.8966  0.1490
   83MOL    C6726471   4.319   1.477   1.158  0.0984  0.2814 -0.6998
   83MOL    C6826472   4.404   1.551   1.054  0.0335 -0.3904  0.1979
   83MOL    C6926473   4.355   1.590   0.928 -0.3610 -0.0705 -0.3368
   83MOL    C7026474   4.445   1.640   0.834  0.3867  0.1684  0.1796
   83MOL    C7126475   4.578   1.663   0.866  0.1087 -0.2822  0.2681
   83MOL    C7226476   4.628   1.629   0.993  0.0141  0.0828 -0.1221
   83MOL    C7326477   4.545   1.578   1.088  0.1113  0.0936 -0.3379
   83MOL    H7426478   4.453   1.303   1.199 -0.9084 -0.5718  0.9081
   83MOL    H7526479   4.298   1.277   1.240  2.1799 -1.3632  0.6570
   83MOL    H7626480   4.352   1.506   1.258 -0.8695  3.0003 -1.1339
   83MOL    H7726481   4.256   1.555   0.902  0.1774 -0.3014 -2.1246
   83MOL    H7826482   4.405   1.674   0.740  0.4049 -0.3784 -0.0239
   83MOL    H7926483   4.648   1.704   0.795  1.2324 -0.6966  1.1162
   83MOL    H8026484   4.734   1.646   1.007  0.2140 -0.8945 -0.4231
   83MOL    H8126485   4.583   1.542   1.182 -0.2137  0.7903  0.0682
   83MOL    C8226486   4.163   1.495   1.148  0.1604 -0.0719  0.3294
   83MOL    C8326487   4.108   1.626   1.213  0.2742 -0.3221  0.3578
   83MOL    C8426488   4.019   1.691   1.111  0.0391 -0.4148 -0.0801
   83MOL    C8526489   4.067   1.807   1.044  0.2465  1.1475 -0.0801
   83MOL    C8626490   3.992   1.868   0.942  0.4051 -0.5096 -0.1835
   83MOL    C8726491   3.871   1.807   0.894 -0.4464  0.4961  0.3487
   83MOL    C8826492   3.828   1.687   0.958 -0.5349 -0.5523  0.1725
   83MOL    C8926493   3.896   1.637   1.074  0.2207 -0.1799 -0.6293
   83MOL    H9026494   4.117   1.419   1.210 -1.9145  1.0718  0.2366
   83MOL    H9126495   4.116   1.476   1.052  0.7670  0.4917 -0.0817
   83MOL    H9226496   4.184   1.702   1.229  0.6899 -0.7977  0.6953
   83MOL    H9326497   4.156   1.857   1.079  0.0166  2.3222 -1.1270
   83MOL    H9426498   4.037   1.949   0.888 -0.4182 -1.8592 -3.0137
   83MOL    H9526499   3.808   1.845   0.815  0.9844  0.4476 -0.8353
   83MOL    H9626500   3.739   1.631   0.935 -2.4632  2.7816 -0.7026
   83MOL    H9726501   3.856   1.553   1.128  0.4994  0.1534  0.0968
   83MOL    C9826502   4.035   1.603   1.353  0.0217 -0.4931 -0.3008
   83MOL    C9926503   4.123   1.528   1.464 -0.2640  0.0830 -1.4489
   83MOL   C10026504   4.244   1.608   1.508  0.9806  0.4476 -0.8677
   83MOL   C10126505   4.231   1.745   1.545  0.1635 -0.6085  0.4329
   83MOL   C10226506   4.346   1.820   1.582 -0.3459  0.3132  0.6117
   83MOL   C10326507   4.474   1.757   1.595 -1.1432  0.1703 -0.0774
   83MOL   C10426508   4.478   1.625   1.563  0.3298 -0.1428  0.0905
   83MOL   C10526509   4.365   1.545   1.524 -0.7941 -0.3951 -0.1909
   83MOL   H10626510   3.951   1.536   1.333  0.2789 -1.1869  0.9007
   83MOL   H10726511   3.983   1.689   1.396  1.6006 -0.1814  1.0413
   83MOL   H10826512   4.162   1.433   1.428 -0.1731 -0.0825 -0.9295
   83MOL   H10926513   4.136   1.796   1.535  0.4096  0.0368  1.2956
   83MOL   H11026514   4.332   1.924   1.608 -0.9313  0.7327 -1.2751
   83MOL   H11126515   4.568   1.804   1.618 -1.5640  0.8772  0.2113
   83MOL   H11226516   4.570   1.575   1.588  0.5504  1.1642  2.0111
   83MOL   H11326517   4.375   1.440   1.497  1.7919 -1.4732  4.4574
   83MOL   C11426518   4.036   1.502   1.591  0.2006 -0.3786 -0.4337
   83MOL   C11526519   3.969   1.363   1.595 -0.0321 -0.3039 -0.6223
   83MOL   C11626520   4.064   1.249   1.573  0.1386  0.2448  0.2547
   83MOL   C11726521   4.168   1.236   1.661 -0.2404  0.2264 -0.2603
   83MOL   C11826522   4.262   1.134   1.642  0.4877 -0.3644 -0.6647
   83MOL   C11926523   4.229   1.027   1.557  0.0275 -0.5256 -0.0809
   83MOL   C12026524   4.121   1.040   1.467 -0.4793 -0.1743 -0.5023
   83MOL   C12126525   4.044   1.156   1.469  0.1191  0.3019  0.6380
   83MOL   H12226526   3.968   1.582   1.621  3.5232  2.7122 -0.7930
   83MOL   H12326527   4.113   1.506   1.669 -0.0728 -0.2498 -0.1709
   83MOL   H12426528   3.904   1.358   1.507 -1.4646  1.9545  0.2483
   83MOL   H12526529   4.187   1.305   1.742 -1.3879 -0.8599  0.9626
   83MOL   H12626530   4.346   1.134   1.709 -0.2853 -0.9396  0.3259
   83MOL   H12726531   4.296   0.942   1.556  2.5027  1.3741  0.7797
   83MOL   H12826532   4.107   0.972   1.384  0.9245  0.9744 -1.6964
   83MOL   H12926533   3.973   1.170   1.388  1.4471  0.3106 -0.5433
   83MOL   C13026534   3.881   1.341   1.720 -0.5825 -0.7958 -0.2921
   83MOL   C13126535   3.787   1.223   1.713  0.1981  0.7876  0.0597
   83MOL   C13226536   3.805   1.123   1.826  0.1126  0.3159 -0.1339
   83MOL   C13326537   3.901   1.025   1.799  0.6930  0.7486  0.0236
   83MOL   C13426538   3.948   0.938   1.899  0.0253 -0.5732  0.2169
   83MOL   C13526539   3.900   0.955   2.029  0.4245 -0.4954  0.1125
   83MOL   C13626540   3.807   1.055   2.060 -0.2410 -0.2387  0.2016
   83MOL   C13726541   3.756   1.133   1.961 -0.6549 -0.7278  0.1000
   83MOL   H13826542   3.822   1.428   1.747  2.4166  1.2523 -0.1179
   83MOL   H13926543   3.950   1.333   1.804  0.4534  0.4612 -1.0187
   83MOL   H14026544   3.803   1.166   1.621  1.6913  2.9817 -1.0956
   83MOL   H14126545   3.949   1.024   1.703  0.7057  0.6540  0.0307
   83MOL   H14226546   4.029   0.869   1.881  0.1820 -0.6163  1.0862
   83MOL   H14326547   3.953   0.900   2.105 -1.4132 -1.0646  1.0252
   83MOL   H14426548   3.770   1.064   2.161 -1.7983 -0.6963 -0.3143
   83MOL   H14526549   3.690   1.215   1.983  0.2467  0.0990 -0.2594
   83MOL   C14626550   3.644   1.268   1.697 -0.0589 -0.7802 -0.6907
   83MOL   C14726551   3.608   1.350   1.569  0.1482 -0.3393  0.7278
   83MOL   C14826552   3.616   1.278   1.437 -0.4040  0.6588  0.9528
   83MOL   C14926553   3.573   1.145   1.434  0.3299 -0.9681  0.1102
   83MOL   C15026554   3.578   1.078   1.311 -0.3402 -0.7126 -0.9757
   83MOL   C15126555   3.614   1.141   1.190  0.6621  0.0344  0.3320
   83MOL   C15226556   3.657   1.274   1.193 -0.1682  0.4166 -0.1191
   83MOL   C15326557   3.659   1.343   1.316  0.7166  0.0820 -0.4621
   83MOL   H15426558   3.619   1.335   1.779  1.2688 -0.2042 -0.7394
   83MOL   H15526559   3.583   1.179   1.710 -1.0312  0.0311  0.3920
   83MOL   H15626560   3.684   1.428   1.564  0.8034 -1.0590 -1.1241
   83MOL   H15726561   3.541   1.096   1.525  0.5641  1.9000  1.7962
   83MOL   H15826562   3.550   0.974   1.318 -0.0282 -0.8245 -1.3450
   83MOL   H15926563   3.606   1.100   1.091 -0.2635  1.3775 -0.1560
   83MOL   H16026564   3.680   1.321   1.098  0.5826  0.2833 -0.0097
   83MOL   H16126565   3.690   1.447   1.317  1.6738 -0.2015  0.0444
   83MOL   C16226566   3.483   1.443   1.570  0.0452  0.4329  0.6562
   83MOL   C16326567   3.494   1.566   1.660 -0.9850  0.3457  0.0441
   83MOL   C16426568   3.562   1.680   1.590 -0.1205  0.4427  0.1955
   83MOL   C16526569   3.694   1.722   1.632  0.3397  0.6292  0.2619
   83MOL   C16626570   3.765   1.811   1.552 -0.6133 -0.2748 -0.7861
   83MOL   C16726571   3.700   1.877   1.447  0.8924  0.9847 -0.0260
   83MOL   C16826572   3.564   1.847   1.417  0.2420  0.2934  0.6747
   83MOL   C16926573   3.495   1.744   1.483  0.0446 -0.5114  0.0032
   83MOL   H17026574   3.397   1.377   1.582 -0.1678  0.0765 -2.5122
   83MOL   H17126575   3.474   1.481   1.468  0.1076 -0.0739  0.4598
   83MOL   H17226576   3.559   1.538   1.742  1.2307  1.6448 -1.2267
   83MOL   H17326577   3.739   1.680   1.720 -0.8625 -1.0985  0.0904
   83MOL   H17426578   3.865   1.830   1.587 -1.3686 -0.0320  1.3226
   83MOL   H17526579   3.747   1.960   1.398 -0.3258  1.0582 -1.1094
   83MOL   H17626580   3.516   1.911   1.344 -1.4416 -2.0909 -0.3763
   83MOL   H17726581   3.393   1.717   1.460  0.3478 -0.7056 -1.0951
   83MOL   C17826582   3.359   1.611   1.727  0.9653  0.5304 -0.3581
   83MOL   C17926583   3.300   1.515   1.832 -0.3242 -0.5179 -0.1637
   83MOL   C18026584   3.384   1.494   1.961  0.5129 -0.1289 -0.2058
   83MOL   C18126585   3.414   1.364   1.998 -0.6328  0.1735  0.1543
   83MOL   C18226586   3.492   1.337   2.111 -0.6031 -0.0855  0.3076
   83MOL   C18326587   3.540   1.441   2.193 -0.1331 -0.6454  0.0788
   83MOL   C18426588   3.511   1.573   2.155 -0.2530  0.6859 -0.3552
   83MOL   C18526589   3.433   1.604   2.039  0.1698  0.6065 -0.3695
   83MOL   H18626590   3.283   1.629   1.651 -0.5614 -0.1213  0.9906
   83MOL   H18726591   3.365   1.710   1.774  0.1716  0.4764 -0.1378
   83MOL   H18826592   3.313   1.419   1.781 -2.2389 -1.8281  1.7092
   83MOL   H18926593   3.379   1.282   1.937  0.5371 -0.3274  0.1359
   83MOL   H19026594   3.514   1.234   2.132 -1.5522 -0.4056 -0.2402
   83MOL   H19126595   3.589   1.420   2.287  2.7431  0.4976 -1.1148
   83MOL   H19226596   3.554   1.651   2.215 -1.1867  0.0472  1.1882
   83MOL   H19326597   3.403   1.705   2.015  2.0534  0.5292 -3.2860
   83MOL   C19426598   3.144   1.505   1.860 -0.8939 -0.1262  0.2456
   83MOL   C19526599   3.037   1.509   1.750  0.0447  0.4393 -0.0848
   83MOL   C19626600   3.078   1.427   1.627  0.2108 -0.1045 -0.1331
   83MOL   C19726601   3.085   1.482   1.499  0.9519 -0.0792 -0.1108
   83MOL   C19826602   3.114   1.409   1.386 -0.4858 -0.5374  0.3236
   83MOL   C19926603   3.134   1.268   1.396  0.2829 -0.8647 -0.2753
   83MOL   C20026604   3.132   1.206   1.524 -0.3178  0.3679  1.0353
   83MOL   C20126605   3.114   1.287   1.638 -0.0854 -1.0409 -0.2410
   83MOL   H20226606   3.126   1.579   1.938  1.1835  0.0180  0.6015
   83MOL   H20326607   3.130   1.410   1.912 -1.3668  0.1511  0.6283
   83MOL   H20426608   3.035   1.616   1.728 -1.0153  0.1675 -1.4022
   83MOL   H20526609   3.052   1.584   1.489 -0.8610 -0.7102 -0.7007
   83MOL   H20626610   3.122   1.468   1.296  0.6361 -0.9763  0.1336
   83MOL   H20726611   3.167   1.205   1.315 -0.1093 -1.0454 -0.2951
   83MOL   H20826612   3.165   1.103   1.529 -0.5901  0.0192 -2.8552
   83MOL   H20926613   3.119   1.242   1.736 -0.6658 -2.7469 -0.9844
   83MOL   C21026614   2.893   1.470   1.793  0.0204  0.2905  0.2947
   83MOL   C21126615   2.846   1.563   1.914  0.2435  0.0462  0.8983
   83MOL   C21226616   2.819   1.710   1.883  0.0851  0.1067 -0.5671
   83MOL   C21326617   2.901   1.805   1.943 -0.3232  0.3970  0.5968
   83MOL   C21426618   2.901   1.933   1.883  0.2729 -0.5844 -0.4799
   83MOL   C21526619   2.802   1.967   1.786 -0.1582  0.4495 -0.3580
   83MOL   C21626620   2.716   1.875   1.730 -0.1839  0.3007 -0.3935
   83MOL   C21726621   2.717   1.742   1.787  0.1160 -0.1346  0.2650
   83MOL   H21826622   2.882   1.364   1.816  1.6421 -0.1428 -0.8459
   83MOL   H21926623   2.820   1.486   1.714  1.4953  0.1081 -1.1303
   83MOL   H22026624   2.918   1.567   1.996 -0.9561 -1.1861  2.0315
   83MOL   H22126625   2.976   1.776   2.015 -2.3993 -0.7888  2.3272
   83MOL   H22226626   2.970   2.006   1.924 -1.6822  1.9071 -1.4855
   83MOL   H22326627   2.812   2.067   1.748 -0.5537 -0.2389 -2.3107
   83MOL   H22426628   2.643   1.899   1.654 -1.6081  0.3516  0.9440
   83MOL   H22526629   2.660   1.663   1.741  0.3634  0.1304 -0.5230
   83MOL   C22626630   2.716   1.502   1.974  0.1867  0.7291 -0.5030
   83MOL   C22726631   2.705   1.401   2.096  0.3140  0.2613  0.1942
   83MOL   C22826632   2.784   1.274   2.076 -0.5336  0.1405  0.6585
   83MOL   C22926633   2.923   1.276   2.094  0.0046  0.1057  0.3457
   83MOL   C23026634   2.997   1.166   2.057  0.4869 -0.5399  0.7007
   83MOL   C23126635   2.929   1.053   2.006 -0.1683 -0.8263  0.2854
   83MOL   C23226636   2.793   1.044   2.003 -0.1621 -0.4156  0.7294
   83MOL   C23326637   2.719   1.161   2.032 -0.1393 -0.1612 -0.2640
   83MOL   H23426638   2.647   1.456   1.903 -0.0712  0.0426  0.1791
   83MOL   H23526639   2.658   1.586   2.011 -1.8161 -0.2942 -1.2237
   83MOL   H23626640   2.604   1.361   2.102  0.5506 -0.3554  0.0656
   83MOL   H23726641   2.977   1.362   2.132 -0.3862  1.0638 -1.2136
   83MOL   H23826642   3.105   1.160   2.060  0.6431  1.9687  0.7244
   83MOL   H23926643   2.988   0.965   1.986  1.0745  0.5274 -2.1197
   83MOL   H24026644   2.755   0.948   1.969 -1.5263  0.1242  0.6759
   83MOL   H24126645   2.612   1.159   2.019 -0.1970  0.2688  0.1372
   83MOL   C24226646   2.737   1.479   2.227  0.0205 -0.2761  0.5634
   83MOL   C24326647   2.706   1.398   2.354  0.5933  0.1471 -0.3163
   83MOL   C24426648   2.798   1.424   2.473  0.0147  0.9460 -0.0293
   83MOL   C24526649   2.873   1.322   2.531 -0.7589 -0.3396  0.2077
   83MOL   C24626650   2.967   1.362   2.631  0.2735  0.2570 -0.1939
   83MOL   C24726651   2.980   1.497   2.666  0.5033 -0.1625 -0.0669
   83MOL   C24826652   2.895   1.590   2.608 -0.2973 -0.4221  0.2060
   83MOL   C24926653   2.800   1.559   2.510  0.0523 -0.2316 -0.5984
   83MOL   H25026654   2.685   1.575   2.227  1.0402  0.2810  1.6309
   83MOL   H25126655   2.843   1.499   2.216  0.2410 -2.0394 -0.8527
   83MOL   H25226656   2.719   1.293   2.331  1.5427  0.1221  0.2883
   83MOL   H25326657   2.860   1.220   2.500  1.9949 -0.8805  0.7518
   83MOL   H25426658   3.027   1.288   2.681 -2.6022 -0.8785  1.7011
   83MOL   H25526659   3.045   1.520   2.749 -0.7129  2.0762  0.3071
   83MOL   H25626660   2.893   1.689   2.652  1.5796 -1.3127  2.3804
   83MOL   H25726661   2.738   1.637   2.468 -1.8332 -0.4404  1.7459
   83MOL   C25826662   2.557   1.413   2.395 -0.1242 -0.3190  0.0784
   83MOL   C25926663   2.506   1.310   2.498 -0.3418 -0.7481  0.0066
   83MOL   C26026664   2.363   1.348   2.524  0.0228  0.3666  0.0425
   83MOL   C26126665   2.326   1.423   2.633 -0.8583 -0.6430  0.5334
   83MOL   C26226666   2.189   1.447   2.670 -0.0408  0.4374  0.0745
   83MOL   C26326667   2.090   1.407   2.583  0.0739  1.3953 -0.1436
   83MOL   C26426668   2.123   1.345   2.460 -0.3028  0.7083 -0.8524
   83MOL   C26526669   2.257   1.309   2.436  0.3715 -0.4134 -0.2132
   83MOL   H26626670   2.492   1.404   2.308  1.5915 -0.7520 -1.1876
   83MOL   H26726671   2.541   1.516   2.426 -1.9780  0.0777 -2.0944
   83MOL   H26826672   2.563   1.325   2.589  0.4160 -1.6571 -0.3072
   83MOL   H26926673   2.395   1.462   2.706 -1.3579  2.8786 -0.8152
   83MOL   H27026674   2.162   1.501   2.759 -2.9147  0.3384 -0.6980
   83MOL   H27126675   1.984   1.421   2.602 -0.6172 -2.8587 -0.5244
   83MOL   H27226676   2.041   1.322   2.393 -0.5083 -1.6179  0.1218
   83MOL   H27326677   2.271   1.250   2.347 -0.7074 -2.3377  0.8470
   83MOL   C27426678   2.521   1.166   2.450 -0.1483  0.1388 -0.6707
   83MOL   C27526679   2.443   1.057   2.535 -0.5693  1.0696 -0.5803
   83MOL   C27626680   2.426   0.916   2.460  0.9592 -0.7426 -0.4003
   83MOL   C27726681   2.527   0.867   2.380  0.0194 -0.5792  0.0205
   83MOL   C27826682   2.502   0.744   2.315 -0.4089  0.0903 -0.1676
   83MOL   C27926683   2.384   0.681   2.333  0.2175  0.5143  0.1088
   83MOL   C28026684   2.275   0.742   2.389  0.6780 -0.1526 -0.0080
   83MOL   C28126685   2.296   0.860   2.465  0.1820  0.6049  0.1841
   83MOL   H28226686   2.621   1.122   2.442 -0.3584 -0.4491 -0.1337
   83MOL   H28326687   2.477   1.171   2.350  0.9736  1.3807 -1.1217
   83MOL   H28426688   2.343   1.087   2.566 -0.3993 -0.1256  1.1962
   83MOL   H28526689   2.624   0.916   2.380 -0.5881  0.6278  1.1478
   83MOL   H28626690   2.577   0.685   2.266  1.5235  0.9282  1.7070
   83MOL   H28726691   2.372   0.579   2.298  0.5092 -0.1576  1.9473
   83MOL   H28826692   2.178   0.697   2.378  0.1464  0.6199  1.3444
   83MOL   H28926693   2.219   0.913   2.518  0.6855  1.3796  0.1629
   83MOL   C29026694   2.505   1.029   2.677  0.0488  0.4574  0.2027
   83MOL   C29126695   2.431   1.094   2.790 -0.2493  0.1562 -0.3497
   83MOL   C29226696   2.296   1.040   2.815 -0.2404  0.1269  0.4847
   83MOL   C29326697   2.181   1.116   2.795 -0.0184 -0.0726  0.1322
   83MOL   C29426698   2.052   1.062   2.826 -0.4586 -0.4804 -0.4542
   83MOL   C29526699   2.048   0.933   2.878 -0.4822  0.0417  0.8085
   83MOL   C29626700   2.157   0.848   2.874 -0.0685  0.0940  0.3766
   83MOL   C29726701   2.283   0.902   2.844  1.0086 -0.2660 -0.1608
   83MOL   H29826702   2.610   1.058   2.667 -0.3000  1.2705 -1.2541
   83MOL   H29926703   2.521   0.922   2.690  1.5595  0.6429 -0.0373
   83MOL   H30026704   2.421   1.203   2.785 -0.4882  0.1649  0.2175
   83MOL   H30126705   2.191   1.220   2.767  1.7491 -0.3547 -0.3363
   83MOL   H30226706   1.964   1.125   2.819 -0.7375 -0.5700  1.8182
   83MOL   H30326707   1.955   0.889   2.911 -1.7734  2.4821  0.5449
   83MOL   H30426708   2.134   0.748   2.906 -0.0957 -0.1792 -0.4929
   83MOL   H30526709   2.365   0.835   2.866 -0.2265 -1.4418  0.9826
   83MOL   C30626710   2.519   1.080   2.916 -0.6005 -0.3566 -0.1057
   83MOL   C30726711   2.607   1.211   2.936  0.1181 -0.1182 -0.7506
   83MOL   C30826712   2.730   1.172   3.008  0.4383  0.4282 -0.7215
   83MOL   C30926713   2.851   1.137   2.938  1.1558  0.1068  0.0068
   83MOL   C31026714   2.964   1.107   3.009  0.3241  0.3944  0.5306
   83MOL   C31126715   2.966   1.098   3.150  0.1766 -0.3430 -0.0465
   83MOL   C31226716   2.848   1.131   3.219 -0.2019 -0.5654 -0.2806
   83MOL   C31326717   2.734   1.169   3.149  0.0731 -0.1219 -0.1235
   83MOL   H31426718   2.597   1.006   2.903 -0.7969 -0.3133 -1.6035
   83MOL   H31526719   2.468   1.043   3.006 -1.0790 -0.1047 -0.2691
   83MOL   H31626720   2.535   1.278   2.982 -0.4670 -1.1139 -0.1886
   83MOL   H31726721   2.836   1.146   2.831 -1.1473 -2.0342  0.1200
   83MOL   H31826722   3.054   1.093   2.950  1.7032  0.7550  2.4968
   83MOL   H31926723   3.051   1.088   3.216 -0.8565 -2.0695  1.0665
   83MOL   H32026724   2.842   1.130   3.327 -0.8921  2.4023 -0.2526
   83MOL   H32126725   2.645   1.205   3.199  2.1456  1.4187  2.5401
   83MOL   H32226726   2.642   1.257   2.843  0.0803 -2.5112 -1.9952
   84MOL     C126727   3.489   0.209   1.102  0.2585  0.1233 -0.4801
   84MOL     C226728   3.604   0.308   1.098  0.4253 -0.6119  0.6051
   84MOL     C326729   3.718   0.282   1.193 -0.9703 -0.2167 -0.1957
   84MOL     C426730   3.760   0.384   1.283  0.2876 -0.2648 -0.0524
   84MOL     C526731   3.871   0.369   1.366 -0.5706 -0.2001  0.7009
   84MOL     C626732   3.939   0.246   1.359 -0.4592 -0.1248 -0.1638
   84MOL     C726733   3.896   0.137   1.287  0.6934  0.2059 -0.6058
   84MOL     C826734   3.789   0.162   1.192 -0.5029 -0.6743 -0.6272
   84MOL     H926735   3.450   0.199   1.203 -1.9001 -1.8889 -1.4721
   84MOL    H1026736   3.405   0.228   1.036  1.4588 -1.9133 -2.7067
   84MOL    H1126737   3.549   0.397   1.128  2.0233  0.3179  0.8675
   84MOL    H1226738   3.704   0.476   1.271 -0.9762 -0.9426  0.5953
   84MOL    H1326739   3.909   0.452   1.423 -1.5307  1.8554 -1.5390
   84MOL    H1426740   4.025   0.237   1.424 -0.7006 -1.2565 -0.0083
   84MOL    H1526741   3.949   0.043   1.296  1.8279  0.8455 -0.5448
   84MOL    H1626742   3.765   0.085   1.121 -0.2735  1.3652 -2.9684
   84MOL    H1726743   3.522   0.107   1.080  0.4415  0.0649  0.0484
   84MOL    C1826744   3.645   0.337   0.954  0.1767 -0.2341  0.2971
   84MOL    C1926745   3.759   0.439   0.927 -0.6289 -0.8003  0.2784
   84MOL    C2026746   3.819   0.394   0.800  0.4220 -0.8058  0.0388
   84MOL    C2126747   3.783   0.443   0.670 -0.5917  0.0248 -0.5451
   84MOL    C2226748   3.853   0.397   0.560 -0.3980  0.9002 -0.7267
   84MOL    C2326749   3.949   0.294   0.574  0.1376 -0.6362  1.0651
   84MOL    C2426750   3.992   0.250   0.696  0.6100  0.3784 -0.0295
   84MOL    C2526751   3.920   0.293   0.810 -0.4162 -0.3132 -1.3105
   84MOL    H2626752   3.552   0.360   0.901 -1.0116  0.2629  2.5218
   84MOL    H2726753   3.681   0.241   0.917 -2.2746 -1.8122  1.8363
   84MOL    H2826754   3.837   0.433   1.003  0.5655 -0.5824 -0.9032
   84MOL    H2926755   3.707   0.520   0.671 -0.9269 -0.3220  0.7618
   84MOL    H3026756   3.827   0.441   0.465  1.1696 -0.5602 -1.8697
   84MOL    H3126757   4.007   0.254   0.492 -1.1338  0.1909 -0.2714
   84MOL    H3226758   4.063   0.169   0.695 -0.0064 -0.2239 -5.4339
   84MOL    H3326759   3.943   0.255   0.908  0.0363  0.9399 -0.9221
   84MOL    C3426760   3.701   0.584   0.929  0.4612 -0.0249 -0.1180
   84MOL    C3526761   3.792   0.694   0.882  0.6249  0.6568  0.3179
   84MOL    C3626762   3.702   0.806   0.832  0.9032 -0.3980 -0.6534
   84MOL    C3726763   3.602   0.865   0.913  0.6258  0.0509  0.1009
   84MOL    C3826764   3.513   0.963   0.865 -0.2983  0.5996  1.6749
   84MOL    C3926765   3.512   0.991   0.724  0.3630  0.6186  0.6111
   84MOL    C4026766   3.616   0.935   0.645  0.2769  0.2890  0.1499
   84MOL    C4126767   3.716   0.852   0.702 -0.3271 -0.0385  0.6458
   84MOL    H4226768   3.656   0.607   1.026 -0.8357  2.4236 -1.2584
   84MOL    H4326769   3.599   0.579   0.892 -0.3880 -0.3554  2.1411
   84MOL    H4426770   3.848   0.665   0.793 -0.2662 -1.4027  0.4017
   84MOL    H4526771   3.586   0.830   1.014  1.2663 -0.1716  0.1219
   84MOL    H4626772   3.438   1.001   0.933  0.0804 -0.0737  2.4667
   84MOL    H4726773   3.431   1.055   0.691  0.2994  0.9452  1.3835
   84MOL    H4826774   3.619   0.969   0.542 -1.1506 -1.7740 -0.5955
   84MOL    H4926775   3.792   0.806   0.640 -0.7626 -0.2097  0.2321
   84MOL    C5026776   3.891   0.748   0.990  0.0353 -0.2707 -0.8492
   84MOL    C5126777   4.030   0.680   0.970 -0.2792  0.3547  0.3636
   84MOL    C5226778   4.105   0.716   0.836 -0.5349 -0.8169  0.4148
   84MOL    C5326779   4.123   0.622   0.728  0.2918 -0.2759 -0.0915
   84MOL    C5426780   4.183   0.655   0.605 -0.1415  0.6949 -0.2560
   84MOL    C5526781   4.223   0.794   0.587 -0.2961 -0.6045 -0.6257
   84MOL    C5626782   4.203   0.894   0.691  0.6905 -0.4748  0.1318
   84MOL    C5726783   4.146   0.850   0.815 -0.3910  0.6276 -0.0829
   84MOL    H5826784   3.841   0.713   1.081 -1.4874  2.7745 -0.4596
   84MOL    H5926785   3.892   0.857   0.987  1.9833 -0.1785  1.1687
   84MOL    H6026786   4.009   0.574   0.953 -0.1851  0.3446  0.3109
   84MOL    H6126787   4.079   0.526   0.750  0.1028  0.0118  0.8312
   84MOL    H6226788   4.206   0.573   0.539 -0.3517 -1.1651  1.9003
   84MOL    H6326789   4.266   0.822   0.491  0.3069  1.4709  0.2320
   84MOL    H6426790   4.231   0.998   0.684 -3.5761  0.6543 -1.4371
   84MOL    H6526791   4.120   0.929   0.884 -0.1337 -0.5516  1.4057
   84MOL    C6626792   4.122   0.684   1.094  0.5215  0.3084 -0.1114
   84MOL    C6726793   4.250   0.600   1.069  0.5168  0.0875 -0.1866
   84MOL    C6826794   4.370   0.646   1.150  0.1949 -0.0593 -0.8845
   84MOL    C6926795   4.500   0.655   1.099  0.1158  0.6328  0.0676
   84MOL    C7026796   4.606   0.705   1.172  0.1371  0.1728  0.0218
   84MOL    C7126797   4.586   0.757   1.304 -0.5233  0.0904  1.1350
   84MOL    C7226798   4.469   0.734   1.364 -0.2010  0.0290 -0.2831
   84MOL    C7326799   4.356   0.683   1.289 -1.0060  0.1615  0.7184
   84MOL    H7426800   4.076   0.661   1.190  1.6311 -0.4537  0.2419
   84MOL    H7526801   4.142   0.790   1.108 -0.4423  0.1703  2.6813
   84MOL    H7626802   4.279   0.623   0.966  0.7343 -1.4238 -0.4689
   84MOL    H7726803   4.516   0.620   0.998 -0.5777  0.2493  0.0852
   84MOL    H7826804   4.700   0.726   1.124  1.5479 -1.6080  1.9092
   84MOL    H7926805   4.674   0.794   1.353  0.5231 -0.3069 -0.4008
   84MOL    H8026806   4.462   0.767   1.467 -0.7395 -1.9856  0.3340
   84MOL    H8126807   4.264   0.669   1.344  0.3048 -0.6718  2.7622
   84MOL    C8226808   4.241   0.443   1.078  0.4368 -0.0185 -0.9779
   84MOL    C8326809   4.341   0.351   1.005  0.0481  0.1194 -0.3691
   84MOL    C8426810   4.326   0.204   1.043 -0.2750 -0.7500 -0.2919
   84MOL    C8526811   4.435   0.149   1.116  0.8766  0.9725  0.0756
   84MOL    C8626812   4.429   0.013   1.158  0.0454 -0.6495 -0.0050
   84MOL    C8726813   4.318   8.051   1.116  0.4493 -0.1553 -0.7942
   84MOL    C8826814   4.224   8.102   1.030 -0.5435 -0.5062 -0.3814
   84MOL    C8926815   4.224   0.120   0.993 -0.2546  0.0857  0.6663
   84MOL    H9026816   4.147   0.416   1.029  0.7795 -1.1253 -1.0608
   84MOL    H9126817   4.222   0.412   1.181  2.5318 -0.7952 -0.8066
   84MOL    H9226818   4.441   0.388   1.027  0.2439 -0.4509 -0.2996
   84MOL    H9326819   4.514   0.211   1.155 -0.5689  1.5664  2.1825
   84MOL    H9426820   4.507   8.078   1.213 -0.8002 -1.5300  0.4127
   84MOL    H9526821   4.325   7.946   1.140  2.0456  0.0798 -0.1720
   84MOL    H9626822   4.161   8.038   0.970 -0.2271 -2.0504  0.9028
   84MOL    H9726823   4.148   0.155   0.925  1.9121 -0.3193 -2.0123
   84MOL    C9826824   4.339   0.380   0.853  0.1786  0.8289 -0.0328
   84MOL    C9926825   4.415   0.282   0.753 -0.0367 -0.5145  0.5706
   84MOL   C10026826   4.403   0.312   0.599  0.2592  0.1185 -0.2859
   84MOL   C10126827   4.443   0.437   0.553  0.0546  0.5511  0.0504
   84MOL   C10226828   4.425   0.473   0.418  0.3854 -0.0171 -0.0488
   84MOL   C10326829   4.380   0.368   0.326 -0.0141  0.2993 -0.1651
   84MOL   C10426830   4.352   0.239   0.376 -0.5752  0.5305  0.2698
   84MOL   C10526831   4.358   0.207   0.519  0.2992 -0.4061  0.9767
   84MOL   H10626832   4.380   0.481   0.844  2.7889 -0.0371  1.3884
   84MOL   H10726833   4.236   0.371   0.819  0.2222  0.6434 -0.1222
   84MOL   H10826834   4.371   0.183   0.769  0.4642 -1.0137 -1.0537
   84MOL   H10926835   4.473   0.505   0.632 -0.4110 -0.7486  1.3648
   84MOL   H11026836   4.447   0.573   0.385 -0.4119  0.2707  0.2615
   84MOL   H11126837   4.359   0.384   0.221 -0.6298  0.5760  0.0029
   84MOL   H11226838   4.290   0.175   0.317 -0.2598  1.7831 -1.4530
   84MOL   H11326839   4.334   0.111   0.561 -0.2444 -2.7061 -4.1709
   84MOL   C11426840   4.567   0.275   0.792  0.8156 -0.1299  0.1920
   84MOL   C11526841   4.656   0.165   0.733  0.9357 -0.4436  0.2305
   84MOL   C11626842   4.803   0.197   0.755  0.0067  0.2569  1.1252
   84MOL   C11726843   4.844   0.232   0.884  0.0469 -0.3590 -0.2424
   84MOL   C11826844   4.976   0.272   0.897  0.6249 -0.4832  0.9705
   84MOL   C11926845   5.069   0.262   0.795 -0.2559 -0.2509 -0.6377
   84MOL   C12026846   5.027   0.216   0.668  1.0932  0.3293  0.0725
   84MOL   C12126847   4.892   0.178   0.646  0.3335 -0.0418 -0.4178
   84MOL   H12226848   4.580   0.267   0.900  1.4431 -1.8761 -0.0066
   84MOL   H12326849   4.612   0.371   0.767 -0.9781  0.4271 -0.9784
   84MOL   H12426850   4.651   0.166   0.624 -3.5098  1.0454  0.3535
   84MOL   H12526851   4.784   0.217   0.972  0.8623  4.9803  1.3629
   84MOL   H12626852   5.011   0.299   0.996 -1.8316 -3.9271  2.8740
   84MOL   H12726853   5.171   0.291   0.817 -1.3618  1.9051  1.9386
   84MOL   H12826854   5.097   0.218   0.585  0.0057  0.4628 -0.8598
   84MOL   H12926855   4.851   0.145   0.551  2.3698 -4.3362  0.0650
   84MOL   C13026856   4.608   0.033   0.800  0.3477  0.2701 -0.3686
   84MOL   C13126857   4.692   8.021   0.771  0.0657  0.4234  0.5121
   84MOL   C13226858   4.780   7.979   0.888  0.0315  0.0624 -0.2829
   84MOL   C13326859   4.924   7.976   0.877 -0.6903  0.2721 -0.5249
   84MOL   C13426860   4.995   7.929   0.987 -0.6675  0.1315  0.1686
   84MOL   C13526861   4.929   7.881   1.108 -0.2624 -0.0583  0.0691
   84MOL   C13626862   4.791   7.886   1.118 -0.1364 -0.0448  0.8896
   84MOL   C13726863   4.719   7.939   1.011 -0.0314 -0.1649 -0.5042
   84MOL   H13826864   4.502   0.010   0.788 -0.3094  2.3717  1.1496
   84MOL   H13926865   4.610   0.042   0.909 -0.7772 -0.3175 -0.2886
   84MOL   H14026866   4.753   8.048   0.684  0.7869 -0.7385  0.6518
   84MOL   H14126867   4.980   8.013   0.792  1.2358 -0.3961  0.4168
   84MOL   H14226868   5.103   7.921   0.986 -0.7684 -1.5409 -1.8564
   84MOL   H14326869   4.996   7.853   1.187 -0.4057 -1.2849 -0.2365
   84MOL   H14426870   4.739   7.868   1.211 -2.3050 -0.2161 -0.3251
   84MOL   H14526871   4.612   7.948   1.024  0.3405  3.3520  0.4446
   84MOL   C14626872   4.598   7.905   0.724  0.4096 -0.2935  0.3977
   84MOL   C14726873   4.671   7.776   0.681 -0.5903  0.7819  0.5680
   84MOL   C14826874   4.572   7.656   0.690 -0.3095  0.1285 -1.0564
   84MOL   C14926875   4.484   7.634   0.577  0.0191 -0.1069 -0.0039
   84MOL   C15026876   4.423   7.511   0.566  0.0023 -0.2424 -0.3187
   84MOL   C15126877   4.433   7.416   0.674  0.3026  0.3676 -0.1438
   84MOL   C15226878   4.516   7.438   0.787  0.4210 -0.3879  0.3229
   84MOL   C15326879   4.576   7.566   0.803  0.3835 -0.7155  0.6161
   84MOL   H15426880   4.551   7.947   0.636  0.0619 -0.6519  0.4155
   84MOL   H15526881   4.523   7.881   0.799  0.1932  1.5571  0.8150
   84MOL   H15626882   4.736   7.745   0.762 -0.6024  1.9291  1.0237
   84MOL   H15726883   4.491   7.701   0.493 -1.9734  0.4129  0.2246
   84MOL   H15826884   4.386   7.478   0.470 -1.0896  1.1304 -0.3836
   84MOL   H15926885   4.400   7.315   0.657  0.4381  0.4405 -0.8602
   84MOL   H16026886   4.540   7.362   0.860  1.0197  2.5743  3.2949
   84MOL   H16126887   4.654   7.579   0.876  1.2817  2.1509 -0.7429
   84MOL   C16226888   4.754   7.788   0.546  0.1324  0.0070 -0.6077
   84MOL   C16326889   4.840   7.664   0.508 -0.3294 -0.0842  0.1318
   84MOL   C16426890   4.778   7.581   0.396  0.0274  0.2957  0.4785
   84MOL   C16526891   4.755   7.625   0.264  0.5183 -0.4447  0.2028
   84MOL   C16626892   4.708   7.542   0.159 -0.8347  0.9835 -0.0884
   84MOL   C16726893   4.681   7.412   0.193 -0.4172 -0.4811  0.0549
   84MOL   C16826894   4.712   7.355   0.318 -0.4094  0.3845 -0.1458
   84MOL   C16926895   4.757   7.446   0.419  0.7394  0.3961  0.1204
   84MOL   H17026896   4.822   7.873   0.546 -1.4606  1.3100  0.4901
   84MOL   H17126897   4.677   7.822   0.476 -0.5029 -1.0952 -0.4609
   84MOL   H17226898   4.850   7.604   0.598 -1.0567 -0.1854  0.1516
   84MOL   H17326899   4.788   7.726   0.242 -3.9832  0.3510 -3.6267
   84MOL   H17426900   4.680   7.585   0.063 -0.9149 -0.3249 -0.6548
   84MOL   H17526901   4.624   7.358   0.119 -1.3328 -1.4514  1.4548
   84MOL   H17626902   4.693   7.251   0.343  0.0218  1.3357  4.6874
   84MOL   H17726903   4.764   7.408   0.519 -0.0713  1.7034  0.6847
   84MOL   C17826904   4.992   7.699   0.474  0.0363 -0.6945 -0.6654
   84MOL   C17926905   5.076   7.597   0.404  0.1444 -0.4218  0.6319
   84MOL   C18026906   5.203   7.662   0.346  0.2106 -0.3840  0.5201
   84MOL   C18126907   5.305   7.720   0.431 -0.3962 -0.6195  0.2979
   84MOL   C18226908   5.425   7.772   0.378 -0.1839  0.3425  0.0400
   84MOL   C18326909   5.449   7.767   0.240  0.0548 -0.3644 -0.1381
   84MOL   C18426910   5.352   7.700   0.152 -0.5092  0.1381 -0.3976
   84MOL   C18526911   5.227   7.659   0.209  0.1035  0.3637 -0.0964
   84MOL   H18626912   5.054   7.728   0.558  1.0118  0.5102 -1.7884
   84MOL   H18726913   4.972   7.788   0.414 -0.0631 -1.0986 -1.2433
   84MOL   H18826914   5.022   7.556   0.318  0.7309  1.2653 -0.5802
   84MOL   H18926915   5.282   7.720   0.536 -2.0988 -0.8976 -0.0580
   84MOL   H19026916   5.499   7.830   0.432  1.5924 -0.1728 -1.7836
   84MOL   H19126917   5.539   7.810   0.198 -1.5543  2.3451 -0.9112
   84MOL   H19226918   5.366   7.700   0.045 -0.8736  0.3339 -0.4466
   84MOL   H19326919   5.159   7.612   0.139  0.2376  1.2046 -0.8034
   84MOL   C19426920   5.116   7.483   0.499 -0.1007  0.1739 -0.6289
   84MOL   C19526921   5.192   7.373   0.425  0.0920 -0.8403  0.2521
   84MOL   C19626922   5.305   7.306   0.503  0.4378 -0.4998  0.1647
   84MOL   C19726923   5.442   7.329   0.461 -0.3168 -0.7463 -0.6024
   84MOL   C19826924   5.543   7.267   0.533 -0.0300 -0.0767  0.1674
   84MOL   C19926925   5.519   7.184   0.645  0.7396 -0.0173 -0.3399
   84MOL   C20026926   5.388   7.162   0.682 -0.4654  0.3248 -1.3284
   84MOL   C20126927   5.280   7.225   0.615  0.6068 -0.1679 -0.5272
   84MOL   H20226928   5.034   7.427   0.545  1.0202 -0.8603  0.1491
   84MOL   H20326929   5.171   7.525   0.583  0.4329 -1.3202 -0.2047
   84MOL   H20426930   5.244   7.428   0.347 -1.5231  0.9736  0.4451
   84MOL   H20526931   5.456   7.387   0.371 -2.3293  0.1165 -0.3927
   84MOL   H20626932   5.644   7.292   0.505 -0.6385  1.3148 -0.8457
   84MOL   H20726933   5.607   7.149   0.697 -1.0803 -1.1888  2.0061
   84MOL   H20826934   5.381   7.100   0.770 -0.8724 -0.2027 -1.7316
   84MOL   H20926935   5.181   7.219   0.659 -0.3243  3.7258 -1.9218
   84MOL   C21026936   5.092   7.275   0.367  0.0892 -0.1784  0.0962
   84MOL   C21126937   5.160   7.164   0.278 -0.1585 -0.6083 -0.4586
   84MOL   C21226938   5.063   7.049   0.248  0.0420  0.3812  0.4138
   84MOL   C21326939   4.939   7.080   0.185  0.7518 -0.1186  0.0505
   84MOL   C21426940   4.845   6.976   0.178  0.0691 -0.2960 -0.6502
   84MOL   C21526941   4.871   6.843   0.203  0.4201 -0.4717  0.0186
   84MOL   C21626942   5.002   6.813   0.250 -0.7876  1.1023  1.6264
   84MOL   C21726943   5.102   6.913   0.274  0.0078  0.4233 -0.0549
   84MOL   H21826944   5.018   7.321   0.302  0.6038 -0.7778 -0.9349
   84MOL   H21926945   5.038   7.230   0.451  1.5981  2.6020  2.6533
   84MOL   H22026946   5.237   7.118   0.341 -0.2715  1.1644  1.0072
   84MOL   H22126947   4.906   7.181   0.165  0.9636 -0.0085  0.2652
   84MOL   H22226948   4.745   6.989   0.140  0.2253  1.0228 -0.6352
   84MOL   H22326949   4.803   6.764   0.174 -0.2819 -0.1075  0.6503
   84MOL   H22426950   5.037   6.712   0.265 -0.0182  1.1343  0.1610
   84MOL   H22526951   5.204   6.895   0.307  0.8455 -0.5624 -3.0432
   84MOL   C22626952   5.229   7.234   0.152  0.4531  0.2835 -0.2764
   84MOL   C22726953   5.333   7.147   0.080  0.0641  0.5290 -0.9796
   84MOL   C22826954   5.349   7.200   8.055 -0.3931 -0.5837 -0.8519
   84MOL   C22926955   5.300   7.130   7.948  0.0160 -0.5524 -0.2469
   84MOL   C23026956   5.304   7.182   7.816 -0.3974 -0.1161 -0.4065
   84MOL   C23126957   5.366   7.305   7.793 -0.6083 -0.6245 -0.1881
   84MOL   C23226958   5.416   7.380   7.900 -0.1184  0.5974 -0.6881
   84MOL   C23326959   5.405   7.330   8.032 -0.3553  0.3017 -0.5971
   84MOL   H23426960   5.280   7.325   0.181  0.4898 -0.1601  1.0581
   84MOL   H23526961   5.157   7.268   0.077  1.0650 -0.1659 -1.0791
   84MOL   H23626962   5.299   7.045   0.069 -0.5027  1.0580 -4.6527
   84MOL   H23726963   5.259   7.031   7.963  1.0828 -1.1222 -0.9827
   84MOL   H23826964   5.267   7.132   7.728  0.7698 -1.7359  0.0182
   84MOL   H23926965   5.371   7.343   7.691 -0.3026  2.4703  0.9166
   84MOL   H24026966   5.469   7.471   7.876  1.4741  0.0023  0.4897
   84MOL   H24126967   5.450   7.383   0.000 -2.3738 -0.0188  0.7490
   84MOL   C24226968   5.474   7.145   0.156 -0.3448  0.1069 -0.4684
   84MOL   C24326969   5.596   7.109   0.067 -0.8114  0.1835  0.0390
   84MOL   C24426970   5.728   7.142   0.146  0.8528 -0.1832  0.2757
   84MOL   C24526971   5.801   7.258   0.107  0.1408  0.3585 -0.1422
   84MOL   C24626972   5.916   7.299   0.180  0.5934  0.4477  0.4267
   84MOL   C24726973   5.968   7.217   0.282 -0.0610  0.0945  0.1085
   84MOL   C24826974   5.904   7.098   0.318  0.4897 -0.1763  0.3785
   84MOL   C24926975   5.779   7.062   0.255  0.3116  0.2540 -0.1579
   84MOL   H25026976   5.474   7.079   0.242 -1.9431 -0.2108 -0.6783
   84MOL   H25126977   5.495   7.242   0.200 -0.9159 -0.0731  0.2205
   84MOL   H25226978   5.593   7.183   8.101  0.2841 -1.6341 -1.6932
   84MOL   H25326979   5.768   7.332   0.036  1.4066  1.5104  0.4556
   84MOL   H25426980   5.979   7.382   0.150  2.1317 -0.3585  1.3466
   84MOL   H25526981   6.062   7.245   0.326  0.0347  2.3064 -1.4469
   84MOL   H25626982   5.955   7.038   0.392  2.2911  0.0945 -0.5998
   84MOL   H25726983   5.727   6.970   0.278 -0.4029  0.4107 -1.1671
   84MOL   C25826984   5.595   6.963   0.012  0.0556  0.2773  0.4925
   84MOL   C25926985   5.708   6.946   8.014 -0.2200 -0.3591 -0.6394
   84MOL   C26026986   5.760   6.798   8.003  0.5322 -0.2218 -0.3670
   84MOL   C26126987   5.897   6.770   8.041 -0.3049 -0.6283  0.2794
   84MOL   C26226988   5.943   6.638   8.019  0.1856 -0.0789 -0.6507
   84MOL   C26326989   5.859   6.542   7.954  0.9188 -0.8286 -0.0733
   84MOL   C26426990   5.723   6.566   7.932  0.2573 -0.2291 -0.1913
   84MOL   C26526991   5.676   6.694   7.961 -0.2633 -0.1722  0.3084
   84MOL   H26626992   5.498   6.932   8.089  0.2167 -0.4084  0.6317
   84MOL   H26726993   5.616   6.899   0.098  0.9536  1.3964  1.1270
   84MOL   H26826994   5.792   7.008   8.045 -0.2188 -0.7303  0.0991
   84MOL   H26926995   5.967   6.847   8.068 -0.9609 -0.1904  0.7516
   84MOL   H27026996   6.046   6.617   8.044 -0.4490 -4.1558 -1.1289
   84MOL   H27126997   5.893   6.441   7.939  3.6235  0.1123 -0.6625
   84MOL   H27226998   5.654   6.489   7.901 -0.8414 -0.3873  2.4879
   84MOL   H27326999   5.572   6.715   7.939 -0.7156 -3.2316 -0.7324
   84MOL   C27427000   5.656   6.996   7.881 -0.0919 -0.5925 -0.1782
   84MOL   C27527001   5.756   6.997   7.765  0.3190 -0.8127 -0.3044
   84MOL   C27627002   5.678   7.009   7.632 -0.1803  0.4234  0.0990
   84MOL   C27727003   5.611   7.129   7.596  0.6178  0.1623  0.3653
   84MOL   C27827004   5.549   7.141   7.462  0.6722  0.4001  0.3346
   84MOL   C27927005   5.550   7.032   7.376 -0.3878  0.4255  0.0729
   84MOL   C28027006   5.612   6.908   7.418 -0.2430 -0.5807 -0.3888
   84MOL   C28127007   5.674   6.901   7.545  0.4509 -0.3244  0.6792
   84MOL   H28227008   5.603   7.091   7.883 -2.1629 -1.7148 -0.8015
   84MOL   H28327009   5.577   6.923   7.861 -1.7433  0.5065  2.1327
   84MOL   H28427010   5.811   6.904   7.751  0.6991 -0.6596  0.1665
   84MOL   H28527011   5.598   7.211   7.665 -2.9377  0.1265 -0.1413
   84MOL   H28627012   5.515   7.236   7.423  0.7426  0.3614  0.1760
   84MOL   H28727013   5.515   7.052   7.276  0.2479 -0.5379 -0.3569
   84MOL   H28827014   5.620   6.822   7.353 -0.3649  0.3509 -1.6614
   84MOL   H28927015   5.726   6.808   7.561  2.0702  0.1380 -1.6549
   84MOL   C29027016   5.861   7.115   7.776 -0.5023  0.2596 -0.4388
   84MOL   C29127017   5.939   7.158   7.648  0.2652  0.0575 -0.4844
   84MOL   C29227018   6.023   7.283   7.669 -0.6655 -0.2013 -0.3967
   84MOL   C29327019   5.966   7.411   7.627 -0.4443  1.0512  0.5250
   84MOL   C29427020   6.031   7.537   7.644  0.5778 -0.1268 -0.6431
   84MOL   C29527021   6.155   7.533   7.711  0.5557 -0.1705  0.2222
   84MOL   C29627022   6.212   7.411   7.757 -0.1621 -0.2926  0.2241
   84MOL   C29727023   6.146   7.287   7.740 -0.9893 -0.4571  0.3644
   84MOL   H29827024   5.935   7.095   7.854  0.2239 -1.9152 -1.6383
   84MOL   H29927025   5.814   7.208   7.810 -0.7126 -0.3083  0.8354
   84MOL   H30027026   5.875   7.180   7.561 -0.2810  2.4999  0.4793
   84MOL   H30127027   5.865   7.420   7.590  0.6832  0.9032 -2.7672
   84MOL   H30227028   5.987   7.633   7.621  0.0484  0.1678  1.4405
   84MOL   H30327029   6.203   7.627   7.732  1.1258 -0.4759  0.3186
   84MOL   H30427030   6.301   7.410   7.818  1.9258 -1.2618 -2.6889
   84MOL   H30527031   6.199   7.196   7.765  0.6634  0.7168  1.2771
   84MOL   C30627032   6.019   7.032   7.593 -0.3228  0.1335 -0.7174
   84MOL   C30727033   6.085   7.049   7.453 -0.4049 -0.2555 -1.0727
   84MOL   C30827034   5.993   7.031   7.333 -0.2452  0.3997  0.3267
   84MOL   C30927035   5.953   6.903   7.294  0.0116 -0.2072  0.0893
   84MOL   C31027036   5.880   6.881   7.177 -0.2612 -0.5686 -0.4050
   84MOL   C31127037   5.846   6.989   7.099  0.2386  0.8490  0.6066
   84MOL   C31227038   5.883   7.119   7.143  0.0584 -0.4131 -0.6264
   84MOL   C31327039   5.960   7.143   7.257 -0.0661  0.6958  0.3226
   84MOL   H31427040   5.953   6.946   7.577  0.2780 -0.8358  1.7262
   84MOL   H31527041   6.088   7.000   7.672  0.9123  1.1659 -1.3623
   84MOL   H31627042   6.159   6.972   7.432 -0.3708 -0.9500  1.4810
   84MOL   H31727043   5.984   6.814   7.347  1.8768 -0.6612 -1.7504
   84MOL   H31827044   5.840   6.784   7.150 -0.8297 -0.1954 -0.9069
   84MOL   H31927045   5.774   6.972   7.020  0.1891 -0.7884  0.9796
   84MOL   H32027046   5.841   7.204   7.092  0.3881 -1.0948 -2.0495
   84MOL   H32127047   5.983   7.245   7.285  0.8242  0.5499  0.1197
   84MOL   H32227048   6.137   7.144   7.446  1.6958 -1.0302  2.5611
   85MOL     C127049   4.220   6.257   2.340  0.0899  0.2528  0.4094
   85MOL     C227050   4.234   6.370   2.440 -0.1753  1.0554  0.6206
   85MOL     C327051   4.372   6.435   2.429  0.2614 -0.3713 -0.7014
   85MOL     C427052   4.415   6.478   2.302  0.4098  0.3450 -0.2864
   85MOL     C527053   4.538   6.540   2.283 -0.4141 -0.5404  0.0792
   85MOL     C627054   4.621   6.558   2.395  0.3627 -0.1622 -0.6285
   85MOL     C727055   4.588   6.498   2.526  0.1547 -0.6272 -0.0729
   85MOL     C827056   4.463   6.442   2.536 -0.6660  0.2206  0.1631
   85MOL     H927057   4.205   6.293   2.239  1.2516  2.1216  0.8714
   85MOL    H1027058   4.306   6.191   2.351 -1.1686 -1.6338 -0.6727
   85MOL    H1127059   4.227   6.333   2.543 -0.2941 -0.2477  0.1465
   85MOL    H1227060   4.344   6.477   2.220 -1.7217  1.5185  1.4898
   85MOL    H1327061   4.560   6.589   2.190  0.3957 -0.2875  0.4022
   85MOL    H1427062   4.714   6.608   2.374 -0.8413  1.7735 -1.4557
   85MOL    H1527063   4.653   6.504   2.612  0.0508  0.3906 -0.0655
   85MOL    H1627064   4.450   6.409   2.638  1.5738  2.7067  1.3130
   85MOL    H1727065   4.138   6.196   2.379  1.5434 -0.9067  1.7363
   85MOL    C1827066   4.109   6.465   2.434 -0.1119  0.3069  0.4682
   85MOL    C1927067   3.978   6.402   2.486  0.2758 -0.2540  0.3315
   85MOL    C2027068   3.997   6.360   2.635 -0.1407  0.4084 -0.1753
   85MOL    C2127069   4.009   6.455   2.734 -0.1581  0.9542 -0.0944
   85MOL    C2227070   4.017   6.417   2.873 -0.0898 -0.3404  0.8031
   85MOL    C2327071   4.036   6.281   2.906  0.1718 -0.2268 -0.3747
   85MOL    C2427072   4.034   6.184   2.802 -0.1675 -0.2792 -0.4259
   85MOL    C2527073   4.011   6.222   2.665 -0.1618 -0.0284 -0.0801
   85MOL    H2627074   4.099   6.501   2.331 -0.2556  0.1826  0.4391
   85MOL    H2727075   4.139   6.550   2.495 -2.0279 -0.9290  3.2045
   85MOL    H2827076   3.956   6.318   2.420  0.6121 -0.5340  0.5803
   85MOL    H2927077   4.011   6.559   2.706  0.9617  0.5861 -1.4174
   85MOL    H3027078   4.015   6.500   2.942  1.1839  2.5160 -2.4616
   85MOL    H3127079   4.037   6.245   3.007 -1.4273 -0.7180 -0.5222
   85MOL    H3227080   4.049   6.078   2.815 -0.2282 -0.2106  0.1959
   85MOL    H3327081   4.025   6.148   2.588 -0.5708 -0.0966 -0.0893
   85MOL    C3427082   3.854   6.487   2.464 -0.7986  0.1923  0.1072
   85MOL    C3527083   3.729   6.462   2.545  0.3891  0.6384 -0.7088
   85MOL    C3627084   3.631   6.576   2.539 -0.2553 -0.0512  0.7474
   85MOL    C3727085   3.605   6.653   2.653  0.2057  0.0078  0.3459
   85MOL    C3827086   3.510   6.759   2.650 -0.5424 -0.4826  0.4979
   85MOL    C3927087   3.431   6.786   2.537 -0.9088 -0.2226  0.4020
   85MOL    C4027088   3.465   6.713   2.421  0.0325  0.3526  0.7754
   85MOL    C4127089   3.554   6.604   2.423  0.0650  0.0165  0.5178
   85MOL    H4227090   3.834   6.478   2.357 -2.9551  1.3027  0.3929
   85MOL    H4327091   3.884   6.589   2.489  1.7966 -0.8255  1.3513
   85MOL    H4427092   3.746   6.463   2.653  0.4272  0.4743 -0.7129
   85MOL    H4527093   3.676   6.652   2.734 -0.5240 -0.9183  0.9936
   85MOL    H4627094   3.496   6.830   2.730  1.3226 -1.6017  1.8492
   85MOL    H4727095   3.367   6.873   2.541 -3.0333 -1.6154 -1.8241
   85MOL    H4827096   3.415   6.729   2.327 -0.9385  1.6451  1.4964
   85MOL    H4927097   3.576   6.547   2.335 -0.6203 -0.4383  0.6438
   85MOL    C5027098   3.672   6.327   2.515  0.2400 -0.0436  0.8445
   85MOL    C5127099   3.554   6.275   2.590 -0.2838  0.3355 -0.5895
   85MOL    C5227100   3.492   6.161   2.515  0.1026 -0.3611  0.5379
   85MOL    C5327101   3.563   6.043   2.486 -0.6937  0.6779 -0.2491
   85MOL    C5427102   3.505   5.944   2.402 -0.8371  0.6529 -0.2484
   85MOL    C5527103   3.366   5.958   2.368  0.2350 -0.0442  0.3196
   85MOL    C5627104   3.293   6.069   2.405 -0.4468  0.4703  0.3808
   85MOL    C5727105   3.357   6.164   2.476  0.1972 -0.7341 -0.0713
   85MOL    H5827106   3.750   6.252   2.509  0.6133  0.3550  0.7112
   85MOL    H5927107   3.639   6.329   2.411  0.1696 -1.1209  0.8381
   85MOL    H6027108   3.472   6.347   2.593 -0.8730 -0.3664  2.9422
   85MOL    H6127109   3.667   6.032   2.511 -0.4730  1.6415 -0.7133
   85MOL    H6227110   3.555   5.856   2.367  0.0715  0.0756  2.3640
   85MOL    H6327111   3.312   5.877   2.321  1.4209 -0.9318  0.4737
   85MOL    H6427112   3.188   6.075   2.381 -0.4754  2.1497  0.8551
   85MOL    H6527113   3.295   6.252   2.491  1.3058 -0.0504  0.6149
   85MOL    C6627114   3.589   6.239   2.739  0.2905  0.7124  0.4698
   85MOL    C6727115   3.541   6.341   2.839 -0.1908 -0.2151 -0.0352
   85MOL    C6827116   3.385   6.363   2.848 -0.4767 -0.2151 -0.1409
   85MOL    C6927117   3.329   6.488   2.817  0.4412 -0.0818  0.8534
   85MOL    C7027118   3.193   6.508   2.837  0.3426  0.3729 -1.2348
   85MOL    C7127119   3.115   6.404   2.896 -0.2869  0.0174  0.2911
   85MOL    C7227120   3.173   6.277   2.925  0.5359 -0.4149  1.1487
   85MOL    C7327121   3.309   6.253   2.900  0.0275 -0.1969 -0.3971
   85MOL    H7427122   3.694   6.222   2.759  0.5182 -0.8045 -1.9127
   85MOL    H7527123   3.546   6.140   2.752  0.1291  0.6193 -0.7381
   85MOL    H7627124   3.584   6.436   2.807 -3.1837  0.7349 -1.4018
   85MOL    H7727125   3.386   6.562   2.762 -0.0773 -0.6201 -0.4358
   85MOL    H7827126   3.142   6.599   2.806 -1.0471 -0.1531 -0.5452
   85MOL    H7927127   3.010   6.416   2.918 -0.6535 -2.9953  0.3800
   85MOL    H8027128   3.111   6.204   2.975  0.1322 -2.4923 -2.2626
   85MOL    H8127129   3.355   6.158   2.925 -0.9883 -0.1466  1.7919
   85MOL    C8227130   3.617   6.320   2.971  0.1225 -0.0306 -0.0378
   85MOL    C8327131   3.600   6.433   3.071 -0.4008  0.0718  0.0074
   85MOL    C8427132   3.613   6.376   3.212 -0.2246 -0.1687  0.0010
   85MOL    C8527133   3.737   6.342   3.268  0.1576  0.4853  0.0135
   85MOL    C8627134   3.737   6.284   3.395  0.1499 -0.6187  0.2663
   85MOL    C8727135   3.623   6.279   3.470 -0.2632  0.1566  0.2795
   85MOL    C8827136   3.500   6.306   3.417  0.1404  0.2900  0.9483
   85MOL    C8927137   3.488   6.353   3.286  0.5099  0.1797 -0.5690
   85MOL    H9027138   3.723   6.304   2.951  0.1437 -0.6052  0.5399
   85MOL    H9127139   3.578   6.230   3.019 -1.1342 -0.4127 -1.6861
   85MOL    H9227140   3.496   6.462   3.057 -0.1463  1.0333  0.0606
   85MOL    H9327141   3.834   6.351   3.222 -0.8604  1.3574 -1.9917
   85MOL    H9427142   3.830   6.273   3.450  0.8467  3.3279  0.0422
   85MOL    H9527143   3.622   6.241   3.571 -0.1296 -0.7875 -0.0778
   85MOL    H9627144   3.407   6.293   3.470  0.2251  0.2065  1.0756
   85MOL    H9727145   3.389   6.378   3.251  0.3162 -0.2716 -0.3509
   85MOL    C9827146   3.709   6.547   3.050  0.7951  0.0762 -0.0967
   85MOL    C9927147   3.681   6.683   3.119  0.2664 -0.1103 -0.1308
   85MOL   C10027148   3.798   6.782   3.093  0.3908  0.3631 -0.1046
   85MOL   C10127149   3.834   6.819   2.962 -0.1753 -0.4728  0.0618
   85MOL   C10227150   3.934   6.917   2.944  0.2141 -0.5857  0.4071
   85MOL   C10327151   4.000   6.977   3.052 -0.2985 -0.0509  0.2257
   85MOL   C10427152   3.955   6.942   3.182  0.3928 -0.2327 -0.2761
   85MOL   C10527153   3.858   6.844   3.205  0.6894 -0.2436  0.8348
   85MOL   H10627154   3.710   6.580   2.946 -1.4721 -0.4914 -0.3288
   85MOL   H10727155   3.805   6.498   3.065 -0.3111 -1.4621  2.2283
   85MOL   H10827156   3.692   6.665   3.226  2.5470 -1.2534 -0.5322
   85MOL   H10927157   3.789   6.769   2.878 -2.3393 -1.1911  1.5915
   85MOL   H11027158   3.960   6.940   2.842  0.1134  1.1270  0.7583
   85MOL   H11127159   4.065   7.062   3.036 -0.7360  0.2568  0.0736
   85MOL   H11227160   4.006   6.983   3.269 -2.1365  0.0515  1.1194
   85MOL   H11327161   3.846   6.826   3.311  0.4517  3.6302  1.5253
   85MOL   C11427162   3.540   6.745   3.084 -0.0791  0.4744  0.4975
   85MOL   C11527163   3.494   6.896   3.110 -0.3537 -0.0807  0.1797
   85MOL   C11627164   3.362   6.920   3.047 -0.5724  0.1315  0.4689
   85MOL   C11727165   3.249   6.856   3.106 -0.0950 -0.1449  0.0579
   85MOL   C11827166   3.120   6.877   3.047 -0.6327 -0.0505  0.1437
   85MOL   C11927167   3.108   6.963   2.938 -0.1384 -0.1072  0.1254
   85MOL   C12027168   3.221   7.027   2.886 -0.8184  0.2886  0.4263
   85MOL   C12127169   3.350   6.998   2.931 -0.9270  0.7508 -0.0348
   85MOL   H12227170   3.467   6.676   3.127  0.1009  0.2338  0.4186
   85MOL   H12327171   3.527   6.727   2.977  3.7582  2.0672 -0.3160
   85MOL   H12427172   3.575   6.949   3.059 -0.2922 -1.0830 -0.7921
   85MOL   H12527173   3.266   6.777   3.177  0.7825 -1.1259 -1.2269
   85MOL   H12627174   3.036   6.822   3.087  0.2465 -2.3465 -1.0966
   85MOL   H12727175   3.007   6.987   2.909 -0.1206 -0.8335 -0.5104
   85MOL   H12827176   3.214   7.101   2.807  2.3945  0.8456  0.5987
   85MOL   H12927177   3.432   7.041   2.876  0.9045 -0.9025  1.3309
   85MOL   C13027178   3.496   6.933   3.257  0.4821  0.6341  0.1289
   85MOL   C13127179   3.493   7.092   3.286  0.1905  0.3385 -0.4806
   85MOL   C13227180   3.448   7.103   3.428 -0.1499 -0.1875  0.7289
   85MOL   C13327181   3.316   7.153   3.451  0.8135 -0.1168  0.6294
   85MOL   C13427182   3.276   7.175   3.584 -0.1714 -0.0346 -0.3669
   85MOL   C13527183   3.353   7.129   3.693  0.2991  0.4498 -0.4911
   85MOL   C13627184   3.482   7.080   3.665  0.7730 -0.6441  0.2106
   85MOL   C13727185   3.534   7.073   3.534 -0.1404 -0.6420 -0.3695
   85MOL   H13827186   3.587   6.890   3.298  0.6840  0.7935 -0.1512
   85MOL   H13927187   3.408   6.887   3.302  0.3315 -0.6216 -1.3857
   85MOL   H14027188   3.419   7.146   3.227  0.6831  2.1818  0.5575
   85MOL   H14127189   3.253   7.180   3.367 -1.2740  0.1756  2.2477
   85MOL   H14227190   3.177   7.214   3.603 -1.3181 -2.3031 -1.3814
   85MOL   H14327191   3.306   7.118   3.789  0.2310 -1.2749 -0.7109
   85MOL   H14427192   3.551   7.054   3.744  2.1001 -0.9574 -1.0426
   85MOL   H14527193   3.636   7.037   3.525  0.4722  1.0341 -0.3601
   85MOL   C14627194   3.629   7.157   3.263  0.0730  0.3762  0.3730
   85MOL   C14727195   3.636   7.315   3.287 -0.3636 -0.4008 -0.1713
   85MOL   C14827196   3.708   7.360   3.409 -0.4629 -0.6514 -0.1358
   85MOL   C14927197   3.637   7.442   3.499  0.2321  0.6541  0.7325
   85MOL   C15027198   3.711   7.491   3.606 -0.9655 -0.0104  0.5595
   85MOL   C15127199   3.845   7.460   3.624  0.5026 -0.1997  0.1180
   85MOL   C15227200   3.907   7.370   3.536  0.4223  0.5121  0.2297
   85MOL   C15327201   3.840   7.326   3.422 -0.4179  0.0149 -0.1343
   85MOL   H15427202   3.665   7.132   3.163  1.0409 -0.0715  0.8218
   85MOL   H15527203   3.696   7.112   3.337  0.2537 -2.0101 -1.1967
   85MOL   H15627204   3.531   7.338   3.302 -1.0118 -1.7093 -2.4649
   85MOL   H15727205   3.534   7.474   3.490 -0.2627 -0.8625  0.8797
   85MOL   H15827206   3.658   7.554   3.676 -0.3604 -1.1917  2.1365
   85MOL   H15927207   3.898   7.498   3.710  1.0387 -1.0056  0.1504
   85MOL   H16027208   4.013   7.351   3.542  0.2877  0.0587  1.3512
   85MOL   H16127209   3.878   7.250   3.354  1.4298 -1.0173  2.0075
   85MOL   C16227210   3.663   7.395   3.157  0.1618 -0.9308  0.2597
   85MOL   C16327211   3.559   7.394   3.044  0.1431 -0.7305  0.0090
   85MOL   C16427212   3.412   7.408   3.083 -0.1796 -0.7014  0.2714
   85MOL   C16527213   3.374   7.528   3.155 -0.0377 -0.5007 -0.1972
   85MOL   C16627214   3.245   7.538   3.211  0.1174 -0.3473 -0.1733
   85MOL   C16727215   3.153   7.442   3.169  0.8234  0.2047  0.0995
   85MOL   C16827216   3.190   7.324   3.097 -0.0949 -0.6148  0.1637
   85MOL   C16927217   3.323   7.306   3.051  0.8153 -1.2670  0.9204
   85MOL   H17027218   3.766   7.382   3.122 -0.2659  1.9477 -2.2139
   85MOL   H17127219   3.670   7.499   3.188  0.5246 -1.1445  0.9124
   85MOL   H17227220   3.561   7.295   2.998 -0.1833 -0.1097 -1.3792
   85MOL   H17327221   3.447   7.600   3.190  0.7374 -0.4727 -1.8142
   85MOL   H17427222   3.221   7.622   3.274 -1.3588  1.6815 -3.3713
   85MOL   H17527223   3.050   7.456   3.195  0.8421  0.1505  0.2015
   85MOL   H17627224   3.116   7.249   3.072 -1.2941  0.6751 -0.2204
   85MOL   H17727225   3.361   7.221   2.996 -0.6154 -1.6094  0.4314
   85MOL   C17827226   3.591   7.509   2.938 -0.6634 -0.5472  0.3293
   85MOL   C17927227   3.664   7.455   2.816  0.2775  0.1765  0.4444
   85MOL   C18027228   3.588   7.349   2.737 -0.2372  0.3675 -0.2916
   85MOL   C18127229   3.452   7.372   2.716  0.2817  0.0568 -0.0642
   85MOL   C18227230   3.379   7.285   2.638 -0.3597  0.0214  0.0796
   85MOL   C18327231   3.442   7.163   2.590  0.8699 -0.3759  0.2392
   85MOL   C18427232   3.580   7.141   2.615 -0.3877  0.2220 -0.1171
   85MOL   C18527233   3.652   7.236   2.685  0.1681  0.0153 -0.1651
   85MOL   H18627234   3.664   7.579   2.979 -0.4421  0.3745 -1.5892
   85MOL   H18727235   3.509   7.567   2.896 -0.6270 -0.6742  0.0800
   85MOL   H18827236   3.754   7.405   2.854  1.7671  1.6334 -1.0393
   85MOL   H18927237   3.411   7.462   2.758  0.7867 -0.4435  1.5284
   85MOL   H19027238   3.277   7.302   2.606 -0.2502 -0.3913 -0.5048
   85MOL   H19127239   3.388   7.092   2.528  0.4588 -0.2294  0.4272
   85MOL   H19227240   3.622   7.047   2.584 -2.9677 -0.4958 -1.5234
   85MOL   H19327241   3.752   7.211   2.717  0.0395 -0.7729 -0.3599
   85MOL   C19427242   3.712   7.572   2.722  0.4110 -0.2013  0.5514
   85MOL   C19527243   3.860   7.617   2.739  0.2063 -0.4922 -0.1239
   85MOL   C19627244   3.958   7.498   2.765 -0.3411 -0.6473  0.2477
   85MOL   C19727245   4.015   7.478   2.894  0.4688 -0.0469  0.8231
   85MOL   C19827246   4.103   7.374   2.918 -0.5410 -0.3366  0.7409
   85MOL   C19927247   4.141   7.283   2.811  0.5244  0.1333  0.5325
   85MOL   C20027248   4.084   7.308   2.680 -0.2294  0.3946 -0.8483
   85MOL   C20127249   3.998   7.415   2.657 -0.4462 -0.7003 -0.5199
   85MOL   H20227250   3.647   7.660   2.726 -1.2958 -1.5020  2.3396
   85MOL   H20327251   3.711   7.536   2.619 -1.0445  0.7864  0.2038
   85MOL   H20427252   3.868   7.672   2.833 -0.0050 -2.9947  1.4417
   85MOL   H20527253   3.996   7.541   2.980 -0.5291 -0.5023  0.9498
   85MOL   H20627254   4.143   7.355   3.017 -0.2526  0.9917  0.8880
   85MOL   H20727255   4.217   7.211   2.836  0.4305 -0.1903 -0.1231
   85MOL   H20827256   4.109   7.241   2.600  2.5529 -1.8688  1.8092
   85MOL   H20927257   3.947   7.437   2.565 -0.7813  1.5203  0.1618
   85MOL   C21027258   3.911   7.712   2.619  0.9331 -0.9978  0.3881
   85MOL   C21127259   4.058   7.768   2.644  0.7663 -0.9943 -0.3497
   85MOL   C21227260   4.121   7.833   2.514  0.0807 -0.2383  0.2819
   85MOL   C21327261   4.051   7.912   2.420  0.3787 -0.1613 -0.2953
   85MOL   C21427262   4.113   7.959   2.304  0.1593  0.0878 -0.3050
   85MOL   C21527263   4.248   7.926   2.276  0.2339  0.8919 -0.0125
   85MOL   C21627264   4.316   7.850   2.364 -0.1953  0.2887  0.0190
   85MOL   C21727265   4.259   7.807   2.487 -0.1724 -0.3579  0.3831
   85MOL   H21827266   3.844   7.796   2.602  2.4388  0.3598  0.9720
   85MOL   H21927267   3.909   7.651   2.529  1.4421  0.4106 -0.5891
   85MOL   H22027268   4.131   7.690   2.669  0.4543 -1.3982 -0.7030
   85MOL   H22127269   3.949   7.940   2.445  0.4092 -1.8473  1.8644
   85MOL   H22227270   4.054   8.021   2.239  0.8687  0.7550 -0.3154
   85MOL   H22327271   4.302   7.959   2.188 -0.0464  1.3659 -0.0047
   85MOL   H22427272   4.419   7.833   2.335 -0.9351 -1.0400 -1.9363
   85MOL   H22527273   4.317   7.751   2.559  1.7585  0.5262 -0.4578
   85MOL   C22627274   4.047   7.870   2.758 -0.5267 -0.1771 -0.3162
   85MOL   C22727275   4.173   7.882   2.847  0.1570  0.3490  0.1094
   85MOL   C22827276   4.186   8.023   2.916 -0.1418 -0.6655 -0.0292
   85MOL   C22927277   4.288   8.111   2.880 -0.0484  0.2131  0.2431
   85MOL   C23027278   4.302   0.120   2.944 -0.4957  0.5322  0.3758
   85MOL   C23127279   4.205   0.162   3.042  0.7866 -0.4108  0.0900
   85MOL   C23227280   4.091   0.081   3.069 -0.4608  0.2580 -0.2406
   85MOL   C23327281   4.080   8.076   3.001  0.0422 -0.4918 -1.2079
   85MOL   H23427282   3.965   7.845   2.825 -1.5540 -0.2621 -1.5746
   85MOL   H23527283   4.032   7.968   2.713  2.4591  0.3282 -0.3221
   85MOL   H23627284   4.262   7.878   2.783 -0.2656  4.3923 -0.8785
   85MOL   H23727285   4.366   8.083   2.811 -1.0242 -1.9796 -0.0293
   85MOL   H23827286   4.387   0.182   2.923  1.0063 -0.5315  3.0375
   85MOL   H23927287   4.215   0.256   3.095  1.4747 -1.0565  1.1266
   85MOL   H24027288   4.013   0.120   3.133 -0.0388 -0.4124  0.6910
   85MOL   H24127289   3.994   8.018   3.030  1.6676 -2.1771  0.3741
   85MOL   C24227290   4.193   7.765   2.938 -0.5645 -0.3932  0.0248
   85MOL   C24327291   4.310   7.790   3.045  0.7285 -0.2335 -0.4939
   85MOL   C24427292   4.247   7.745   3.186  0.9224 -0.2374 -0.5266
   85MOL   C24527293   4.219   7.842   3.281 -0.6743  0.4824  0.0120
   85MOL   C24627294   4.144   7.811   3.395 -0.9488  0.0924 -0.8572
   85MOL   C24727295   4.112   7.675   3.425 -0.1712  0.2689 -0.0734
   85MOL   C24827296   4.157   7.576   3.335  0.0989  0.4124  0.0039
   85MOL   C24927297   4.220   7.608   3.215 -0.0456 -0.5236  0.7816
   85MOL   H25027298   4.204   7.669   2.887 -0.4912 -0.8391  0.8691
   85MOL   H25127299   4.102   7.748   2.996  0.1184 -3.0965  0.3947
   85MOL   H25227300   4.340   7.895   3.056  0.4832 -0.3953  2.1660
   85MOL   H25327301   4.236   7.947   3.260  1.1284 -0.1953 -2.1247
   85MOL   H25427302   4.109   7.885   3.466 -1.8365  0.6737 -1.8805
   85MOL   H25527303   4.059   7.651   3.516 -2.4226  3.2706 -0.4991
   85MOL   H25627304   4.134   7.471   3.345 -0.5343  0.6452  1.1472
   85MOL   H25727305   4.234   7.527   3.145  0.7568 -1.4790  2.0302
   85MOL   C25827306   4.434   7.709   3.013  0.0115  0.0403 -0.2062
   85MOL   C25927307   4.497   7.727   2.869 -0.8519  0.1302 -0.3117
   85MOL   C26027308   4.538   7.872   2.836  0.3645 -0.1129 -0.0735
   85MOL   C26127309   4.602   7.944   2.932 -0.0770 -0.5387  0.1948
   85MOL   C26227310   4.660   8.072   2.905 -1.0530 -0.2450  0.1828
   85MOL   C26327311   4.643   0.009   2.777 -0.0247  0.3550  0.1349
   85MOL   C26427312   4.578   8.055   2.678 -0.1307 -0.4362  0.0318
   85MOL   C26527313   4.529   7.922   2.702 -0.3845 -0.1397  0.1231
   85MOL   H26627314   4.414   7.603   3.030 -1.5908  0.2175 -0.9083
   85MOL   H26727315   4.508   7.732   3.089 -1.5625  0.1641  1.3074
   85MOL   H26827316   4.428   7.710   2.786 -0.0865  1.1188 -1.1636
   85MOL   H26927317   4.610   7.918   3.037  0.1868  1.5901  0.7210
   85MOL   H27027318   4.700   0.022   2.982 -0.4393 -0.7998  0.3325
   85MOL   H27127319   4.689   0.105   2.760 -0.6616  0.3328 -1.8129
   85MOL   H27227320   4.576   8.109   2.585  1.0260 -0.9122 -0.2785
   85MOL   H27327321   4.480   7.881   2.616 -0.5192  2.6691 -1.1993
   85MOL   C27427322   4.615   7.621   2.845 -0.1978  0.2544 -0.3586
   85MOL   C27527323   4.568   7.480   2.794 -0.7230 -0.2339  0.0737
   85MOL   C27627324   4.535   7.497   2.640  0.3511  0.2434  0.4570
   85MOL   C27727325   4.637   7.532   2.544  0.2088  0.3901 -0.3005
   85MOL   C27827326   4.609   7.547   2.407 -0.4862  0.3591 -0.1785
   85MOL   C27927327   4.482   7.516   2.364  0.1442 -0.5490  0.2629
   85MOL   C28027328   4.374   7.489   2.451  0.3910 -1.0842 -0.1819
   85MOL   C28127329   4.408   7.470   2.588 -0.1000  0.1232  0.4608
   85MOL   H28227330   4.673   7.615   2.937 -2.2352 -0.1823  0.9345
   85MOL   H28327331   4.688   7.660   2.774 -0.9071 -1.0208 -1.7973
   85MOL   H28427332   4.479   7.445   2.846  0.9243 -2.1707  1.6867
   85MOL   H28527333   4.732   7.565   2.583 -0.0026 -1.3869  1.7702
   85MOL   H28627334   4.683   7.591   2.343 -1.2774 -0.9974 -2.0771
   85MOL   H28727335   4.463   7.535   2.259  2.7214  0.4619 -0.0582
   85MOL   H28827336   4.271   7.486   2.417  0.3255  0.4177 -0.1708
   85MOL   H28927337   4.325   7.442   2.651 -0.1561  0.1359  0.3930
   85MOL   C29027338   4.670   7.372   2.811  0.2131  0.0393 -0.1235
   85MOL   C29127339   4.690   7.327   2.961  0.5733 -0.0673  0.2019
   85MOL   C29227340   4.561   7.270   3.016 -0.5202  0.0499 -0.2688
   85MOL   C29327341   4.502   7.321   3.131  0.1973 -0.7787 -0.5559
   85MOL   C29427342   4.380   7.271   3.189 -0.4522  0.5666  0.5275
   85MOL   C29527343   4.342   7.143   3.141  0.4593  0.1213  0.4961
   85MOL   C29627344   4.410   7.085   3.030  0.5682  0.0818 -0.2914
   85MOL   C29727345   4.510   7.154   2.960 -0.3620  0.0866 -0.2666
   85MOL   H29827346   4.765   7.414   2.778 -0.3466  2.0872  0.8186
   85MOL   H29927347   4.645   7.283   2.753 -0.1771 -0.0029  0.1033
   85MOL   H30027348   4.714   7.414   3.022 -0.3700 -0.3535  0.9862
   85MOL   H30127349   4.547   7.404   3.183  0.2581 -0.3732 -1.2479
   85MOL   H30227350   4.333   7.322   3.272  2.9091  1.6371  1.8706
   85MOL   H30327351   4.259   7.096   3.191  0.5047 -0.7863 -0.2750
   85MOL   H30427352   4.378   6.990   2.991  2.2292 -0.7133  0.2506
   85MOL   H30527353   4.552   7.111   2.870 -0.2892  0.3525 -0.3596
   85MOL   C30627354   4.806   7.233   2.971  0.0438 -0.3285  0.0710
   85MOL   C30727355   4.842   7.199   3.119  0.0379 -0.1209 -0.5059
   85MOL   C30827356   4.965   7.105   3.118  0.7709  0.3270  0.2142
   85MOL   C30927357   4.947   6.969   3.092 -0.4503  0.0007 -0.4049
   85MOL   C31027358   5.053   6.879   3.085  0.2157  0.2750 -0.3865
   85MOL   C31127359   5.181   6.926   3.088 -0.0761  0.7042  0.0570
   85MOL   C31227360   5.203   7.067   3.095  0.2627  0.7627 -0.5689
   85MOL   C31327361   5.097   7.152   3.125 -0.2029  0.3743 -0.5067
   85MOL   H31427362   4.893   7.272   2.917  1.7367 -1.5943  1.8259
   85MOL   H31527363   4.786   7.138   2.923  1.4875 -0.0358 -1.1313
   85MOL   H31627364   4.761   7.154   3.177 -0.5294  0.2639 -1.0040
   85MOL   H31727365   4.845   6.933   3.088 -0.0653 -1.2044  0.3697
   85MOL   H31827366   5.041   6.773   3.070  0.0201  0.2443 -0.0188
   85MOL   H31927367   5.260   6.855   3.072  0.5792  0.5233  3.5889
   85MOL   H32027368   5.305   7.101   3.108 -0.0835  1.8418 -0.6382
   85MOL   H32127369   5.117   7.255   3.151  2.4554  0.4893 -2.8557
   85MOL   H32227370   4.862   7.292   3.173  2.8933 -0.4912 -0.8309
   86MOL     C127371   2.135   2.015   3.128 -0.0647  0.3059 -0.3334
   86MOL     C227372   2.004   2.004   3.216  0.3797 -0.3893  0.5849
   86MOL     C327373   2.023   1.909   3.330 -0.0319 -0.2838  0.0752
   86MOL     C427374   1.986   1.773   3.322  0.3133  0.0628 -0.4257
   86MOL     C527375   1.985   1.688   3.434  0.1325 -0.1163 -0.5560
   86MOL     C627376   2.023   1.748   3.557 -0.2829  0.5522 -0.8990
   86MOL     C727377   2.065   1.883   3.564  0.4386 -0.2054 -0.6825
   86MOL     C827378   2.075   1.961   3.451  0.8225 -0.6876 -0.1244
   86MOL     H927379   2.126   2.090   3.050  0.7966  0.5926 -0.1595
   86MOL    H1027380   2.215   2.039   3.198 -0.0235  0.2738 -0.3689
   86MOL    H1127381   1.914   1.965   3.170 -0.6252  0.1151  2.1039
   86MOL    H1227382   1.947   1.732   3.230 -2.1407 -0.1380  0.6642
   86MOL    H1327383   1.940   1.591   3.421 -1.9587  0.7614 -0.0443
   86MOL    H1427384   2.023   1.689   3.647 -1.1150 -0.9526 -1.8699
   86MOL    H1527385   2.094   1.913   3.663 -3.7688 -1.4938  1.0328
   86MOL    H1627386   2.106   2.064   3.463  0.9418 -0.6969 -0.3605
   86MOL    H1727387   2.146   1.918   3.077  0.8236  0.4222 -0.3827
   86MOL    C1827388   1.953   2.146   3.251 -0.1072 -0.0772 -0.4294
   86MOL    C1927389   1.854   2.221   3.154 -0.5490 -0.3779 -0.1729
   86MOL    C2027390   1.710   2.163   3.142 -0.1500 -0.9268  0.4168
   86MOL    C2127391   1.660   2.104   3.028  0.0442  0.4428 -0.3909
   86MOL    C2227392   1.538   2.036   3.027  0.2163  0.1100  0.4290
   86MOL    C2327393   1.454   2.029   3.136  0.0582  0.0560 -0.4435
   86MOL    C2427394   1.499   2.088   3.253 -0.0546  0.4188 -0.6881
   86MOL    C2527395   1.624   2.151   3.256 -1.0273 -0.2294 -0.8568
   86MOL    H2627396   2.039   2.210   3.272 -2.2964  1.9901  2.7047
   86MOL    H2727397   1.898   2.143   3.345 -1.3512 -0.5731 -1.1660
   86MOL    H2827398   1.899   2.215   3.055 -0.1079  0.9547 -0.0683
   86MOL    H2927399   1.717   2.109   2.936  1.9221  0.9774  0.7784
   86MOL    H3027400   1.510   1.997   2.930 -0.1025 -0.2128  0.6499
   86MOL    H3127401   1.364   1.970   3.124 -0.5040  0.8840 -0.2822
   86MOL    H3227402   1.458   2.071   3.351  0.8811  0.4858 -0.2756
   86MOL    H3327403   1.666   2.194   3.345 -2.2894 -1.8691  0.5857
   86MOL    C3427404   1.848   2.367   3.189 -0.6746 -0.2403 -0.2034
   86MOL    C3527405   1.965   2.460   3.151  0.2917 -0.1905  0.6750
   86MOL    C3627406   2.007   2.456   3.001 -0.7075  0.3472 -0.4303
   86MOL    C3727407   1.915   2.500   2.908  0.2486 -0.1805 -0.1236
   86MOL    C3827408   1.958   2.497   2.772  0.1143  0.1066 -0.4984
   86MOL    C3927409   2.086   2.457   2.733  0.4338  0.4462  0.3708
   86MOL    C4027410   2.177   2.413   2.829 -0.0100 -0.2102  0.2960
   86MOL    C4127411   2.135   2.412   2.961 -0.5784 -0.6608 -0.1362
   86MOL    H4227412   1.825   2.379   3.295 -2.9623  1.1909 -0.8227
   86MOL    H4327413   1.765   2.406   3.130 -0.4020 -0.1602 -0.5340
   86MOL    H4427414   2.054   2.427   3.203  2.1365  0.7508 -1.8171
   86MOL    H4527415   1.816   2.536   2.934  0.7476  0.0482  1.4771
   86MOL    H4627416   1.893   2.522   2.690 -0.5091 -2.2400 -0.7559
   86MOL    H4727417   2.110   2.448   2.628  2.6069 -0.0542  0.8978
   86MOL    H4827418   2.278   2.386   2.800 -0.0447 -0.1477  0.1160
   86MOL    H4927419   2.203   2.368   3.033 -0.8641 -2.2290 -0.8052
   86MOL    C5027420   1.949   2.605   3.193  0.7911  0.4671  0.4912
   86MOL    C5127421   1.997   2.630   3.339  0.7578 -0.6755  0.5977
   86MOL    C5227422   2.145   2.586   3.358  0.6985  0.2503  0.6501
   86MOL    C5327423   2.246   2.657   3.302 -0.4005 -0.4104 -0.0593
   86MOL    C5427424   2.378   2.612   3.310  0.1578 -0.4044 -0.4348
   86MOL    C5527425   2.407   2.485   3.361 -0.2756  0.3758 -0.3295
   86MOL    C5627426   2.308   2.414   3.434  0.2493  0.0845 -0.4114
   86MOL    C5727427   2.177   2.463   3.431  0.1233 -0.2465 -0.2607
   86MOL    H5827428   1.842   2.625   3.194  0.7686  0.3907 -0.1154
   86MOL    H5927429   2.008   2.674   3.132  1.7579 -1.7420 -1.1023
   86MOL    H6027430   1.937   2.560   3.397 -1.7125 -0.5174 -1.6632
   86MOL    H6127431   2.226   2.750   3.250  0.6948 -0.7598 -1.1148
   86MOL    H6227432   2.464   2.673   3.284 -0.7397  0.5340 -1.2787
   86MOL    H6327433   2.510   2.458   3.377 -0.8975 -0.8173  1.8744
   86MOL    H6427434   2.334   2.321   3.482  0.5016  0.1384 -0.4450
   86MOL    H6527435   2.104   2.401   3.481  0.2300 -0.9493 -0.9721
   86MOL    C6627436   1.976   2.780   3.378 -0.3091 -0.4222  0.7197
   86MOL    C6727437   1.828   2.832   3.386 -0.5821  0.4742  0.2215
   86MOL    C6827438   1.742   2.750   3.479 -0.7724 -0.4596 -0.5155
   86MOL    C6927439   1.787   2.692   3.601 -0.0604  0.0545 -1.1437
   86MOL    C7027440   1.693   2.639   3.687 -0.2118  0.3940 -0.3994
   86MOL    C7127441   1.558   2.637   3.664  0.0688  0.6347  1.0670
   86MOL    C7227442   1.517   2.689   3.541  0.2880 -0.5993  0.0003
   86MOL    C7327443   1.607   2.736   3.449 -0.2022 -0.0908 -0.2280
   86MOL    H7427444   2.028   2.845   3.306 -0.9445 -0.0052  0.6294
   86MOL    H7527445   2.024   2.788   3.475 -0.4933  0.8878  0.7141
   86MOL    H7627446   1.771   2.822   3.293 -0.6155 -1.1919  0.4110
   86MOL    H7727447   1.887   2.706   3.639 -0.8268  1.3929  0.4797
   86MOL    H7827448   1.732   2.600   3.779 -0.9294 -0.8478 -0.6111
   86MOL    H7927449   1.475   2.599   3.721 -1.2186  1.5069 -0.1985
   86MOL    H8027450   1.410   2.690   3.524  0.0114  4.4235  1.3340
   86MOL    H8127451   1.557   2.765   3.358 -0.8842 -2.3885 -0.6191
   86MOL    C8227452   1.836   2.977   3.435 -0.1970  0.6593 -0.1634
   86MOL    C8327453   1.898   3.079   3.338 -0.4170 -0.3294 -0.4354
   86MOL    C8427454   1.841   3.060   3.194  0.2415  0.2187 -0.1059
   86MOL    C8527455   1.704   3.075   3.165 -0.6673 -0.2272  0.6944
   86MOL    C8627456   1.664   3.038   3.036  0.4219 -0.1805 -0.3096
   86MOL    C8727457   1.756   2.988   2.936 -0.5039 -0.5486  0.1824
   86MOL    C8827458   1.887   2.975   2.967 -0.4558 -0.1888  0.0123
   86MOL    C8927459   1.931   3.013   3.092 -0.7442  0.6459 -0.6677
   86MOL    H9027460   1.882   2.982   3.534 -0.0634  2.0564 -0.2779
   86MOL    H9127461   1.736   3.013   3.460 -0.1755  0.1577  0.6753
   86MOL    H9227462   2.006   3.063   3.335 -0.5323 -1.2236 -0.0545
   86MOL    H9327463   1.640   3.134   3.230 -0.5342 -0.7948  1.3499
   86MOL    H9427464   1.565   3.065   3.003 -0.2903 -1.9857  0.2495
   86MOL    H9527465   1.719   2.975   2.836 -2.1065 -1.8242  0.9259
   86MOL    H9627466   1.954   2.927   2.898  2.1502  3.8724 -0.4387
   86MOL    H9727467   2.035   2.996   3.115 -1.2433 -3.3523 -1.0572
   86MOL    C9827468   1.877   3.219   3.396 -0.2490  0.3562  0.1726
   86MOL    C9927469   1.969   3.256   3.523 -0.2171  1.0898  0.5412
   86MOL   C10027470   2.085   3.349   3.472  0.9495 -0.2129 -1.0780
   86MOL   C10127471   2.221   3.315   3.472 -0.1846 -0.3600  0.3174
   86MOL   C10227472   2.324   3.406   3.432  0.6372 -0.5578 -0.2460
   86MOL   C10327473   2.293   3.531   3.383 -0.1082 -0.0343 -0.1576
   86MOL   C10427474   2.156   3.569   3.375 -0.3098 -0.1314  0.4697
   86MOL   C10527475   2.052   3.477   3.423 -1.0859  0.1184  0.0408
   86MOL   H10627476   1.772   3.237   3.420 -0.0152 -0.6597  2.0969
   86MOL   H10727477   1.895   3.281   3.308  2.1908 -1.4443 -0.6663
   86MOL   H10827478   2.013   3.161   3.552  1.1711  1.3579 -0.6817
   86MOL   H10927479   2.245   3.217   3.509 -0.6170 -0.3990  0.5027
   86MOL   H11027480   2.426   3.377   3.452 -0.0205 -3.0625 -0.3919
   86MOL   H11127481   2.376   3.597   3.360  0.7314 -0.7269  0.8555
   86MOL   H11227482   2.131   3.664   3.331  1.1676 -0.4786 -1.1745
   86MOL   H11327483   1.948   3.507   3.424 -1.1186  0.0105 -0.2626
   86MOL   C11427484   1.898   3.317   3.649 -0.3966  0.0333  0.6327
   86MOL   C11527485   1.819   3.217   3.743  0.0421  0.2647  0.3173
   86MOL   C11627486   1.912   3.132   3.832  0.4167 -0.8543  0.6856
   86MOL   C11727487   1.910   2.992   3.824 -0.3393  0.4187 -0.2515
   86MOL   C11827488   1.996   2.921   3.903 -0.1751  0.5287 -0.8369
   86MOL   C11927489   2.082   2.982   3.991 -0.0050  0.3376  0.7098
   86MOL   C12027490   2.077   3.120   4.002 -0.2899 -0.7780  0.5309
   86MOL   C12127491   1.995   3.201   3.925 -1.1002  0.1638 -0.4828
   86MOL   H12227492   1.833   3.401   3.624 -3.0041 -1.4248  2.2806
   86MOL   H12327493   1.975   3.367   3.707  0.1304 -0.7550  0.6218
   86MOL   H12427494   1.750   3.151   3.691  1.0021  0.7171 -1.5536
   86MOL   H12527495   1.836   2.943   3.763  0.4276  0.7440 -1.4872
   86MOL   H12627496   2.003   2.814   3.885  1.1610  0.9275 -3.0051
   86MOL   H12727497   2.149   2.918   4.047  0.4591 -1.1601 -1.4704
   86MOL   H12827498   2.140   3.164   4.077  1.2364 -0.9877 -0.5973
   86MOL   H12927499   2.000   3.307   3.943  1.0713  0.1912 -1.0658
   86MOL   C13027500   1.709   3.292   3.827 -0.5214 -0.0962 -0.6229
   86MOL   C13127501   1.585   3.352   3.761  0.0641  0.5331 -0.0362
   86MOL   C13227502   1.519   3.261   3.658 -0.1158 -0.1387 -0.3212
   86MOL   C13327503   1.483   3.128   3.692  0.2522 -0.4614  0.1711
   86MOL   C13427504   1.418   3.045   3.592  0.4030 -0.6203  0.2496
   86MOL   C13527505   1.395   3.098   3.463 -0.2636  0.9877  0.1479
   86MOL   C13627506   1.434   3.228   3.428 -0.0722  1.0708 -0.2161
   86MOL   C13727507   1.499   3.310   3.525  0.1133 -0.6162 -0.2146
   86MOL   H13827508   1.764   3.358   3.894  2.6838 -1.4056 -1.8863
   86MOL   H13927509   1.670   3.219   3.897  3.4565  1.2975  3.2987
   86MOL   H14027510   1.604   3.444   3.706 -1.4071  0.5609 -0.5392
   86MOL   H14127511   1.509   3.101   3.793  3.5047 -2.2247 -1.0496
   86MOL   H14227512   1.390   2.942   3.607 -1.1666  0.0335  1.9891
   86MOL   H14327513   1.348   3.037   3.387  0.5867  0.6797 -0.1402
   86MOL   H14427514   1.414   3.260   3.327  1.5754 -0.7230 -1.1396
   86MOL   H14527515   1.540   3.406   3.497  2.1386 -0.9662  1.4512
   86MOL   C14627516   1.492   3.403   3.878 -0.0246 -0.0801  0.5044
   86MOL   C14727517   1.369   3.476   3.824 -0.5368  0.2655  0.3930
   86MOL   C14827518   1.250   3.460   3.921  0.1135  0.9488  0.0483
   86MOL   C14927519   1.140   3.374   3.895  0.2596 -0.7500  0.1095
   86MOL   C15027520   1.039   3.365   3.987  0.5707 -0.3957  0.3714
   86MOL   C15127521   1.039   3.441   4.105  0.3680  0.4145  0.2466
   86MOL   C15227522   1.148   3.524   4.133 -0.4134  0.6083  0.0708
   86MOL   C15327523   1.257   3.535   4.042  0.1317 -0.1957 -0.0135
   86MOL   H15427524   1.541   3.463   3.955 -1.4227  0.0316  1.3225
   86MOL   H15527525   1.448   3.311   3.917  1.2106 -1.1696 -0.6094
   86MOL   H15627526   1.331   3.426   3.735  2.2244  2.3904 -2.1089
   86MOL   H15727527   1.145   3.308   3.811 -1.0823 -1.1627  0.3356
   86MOL   H15827528   0.957   3.299   3.966 -0.6127  2.1035 -3.3664
   86MOL   H15927529   0.959   3.424   4.175 -0.7389  0.2759 -1.0404
   86MOL   H16027530   1.155   3.575   4.228  1.3363 -0.0237  0.3202
   86MOL   H16127531   1.337   3.604   4.064  0.4983 -1.3634  2.4927
   86MOL   C16227532   1.394   3.624   3.772  1.1016 -1.0719 -1.3772
   86MOL   C16327533   1.287   3.671   3.671 -0.8155  1.3483  0.7878
   86MOL   C16427534   1.147   3.702   3.733  0.5594  0.2050 -0.8454
   86MOL   C16527535   1.133   3.808   3.823  0.1549 -0.4577  0.5528
   86MOL   C16627536   1.014   3.842   3.887  0.1485  0.3464  0.7465
   86MOL   C16727537   0.907   3.759   3.856  0.7580 -0.1119 -0.7227
   86MOL   C16827538   0.920   3.646   3.770 -0.1817  0.0291 -0.2534
   86MOL   C16927539   1.044   3.612   3.710  0.1101  0.4902  0.7777
   86MOL   H17027540   1.485   3.623   3.713  0.4745  0.5685 -2.4261
   86MOL   H17127541   1.391   3.699   3.852 -1.5519 -1.0043 -1.4883
   86MOL   H17227542   1.271   3.592   3.598 -0.4377  0.4482  1.6654
   86MOL   H17327543   1.216   3.875   3.841  0.2334 -0.0579 -1.1745
   86MOL   H17427544   1.010   3.916   3.966  1.3568  0.6545  0.5278
   86MOL   H17527545   0.814   3.773   3.910  0.2610 -1.9794 -1.0708
   86MOL   H17627546   0.834   3.585   3.750 -1.0854  0.6023  1.7315
   86MOL   H17727547   1.056   3.518   3.659 -0.8326 -0.3435  2.0716
   86MOL   C17827548   1.345   3.791   3.596 -0.1025  0.6010 -0.1612
   86MOL   C17927549   1.284   3.816   3.453  0.1949 -0.0772  0.4166
   86MOL   C18027550   1.278   3.963   3.424 -0.3914  0.6673  0.3440
   86MOL   C18127551   1.386   4.039   3.381  0.4073  0.1102 -0.3026
   86MOL   C18227552   1.377   4.175   3.375 -0.1612 -0.3089  0.5174
   86MOL   C18327553   1.263   4.249   3.419  0.0337 -0.3884  0.2723
   86MOL   C18427554   1.148   4.175   3.457  0.2350 -0.3959 -0.2622
   86MOL   C18527555   1.161   4.032   3.462  0.3055  0.1763 -0.4131
   86MOL   H18627556   1.450   3.769   3.575  0.0021  0.6503  0.3136
   86MOL   H18727557   1.343   3.885   3.650 -2.5653  1.6341 -1.9477
   86MOL   H18827558   1.183   3.778   3.465  0.3086 -1.2473 -2.1508
   86MOL   H18927559   1.469   3.984   3.339 -1.5184 -3.0571 -0.0928
   86MOL   H19027560   1.451   4.242   3.332  0.3019  0.1454  1.9697
   86MOL   H19127561   1.255   4.357   3.421  2.7807 -0.1421  0.3774
   86MOL   H19227562   1.061   4.229   3.489  0.1712 -0.1592 -0.8171
   86MOL   H19327563   1.071   3.981   3.494  0.4887 -0.6964 -1.2740
   86MOL   C19427564   1.358   3.723   3.354  0.7533 -0.2991 -0.0776
   86MOL   C19527565   1.293   3.724   3.209  0.0385 -0.0820  0.1725
   86MOL   C19627566   1.388   3.645   3.114  0.0339 -0.0886  0.0291
   86MOL   C19727567   1.437   3.515   3.138 -0.2270  0.4145 -0.1030
   86MOL   C19827568   1.506   3.435   3.044 -0.2148 -0.4523 -0.2980
   86MOL   C19927569   1.540   3.500   2.926  0.0949  0.2958 -0.3782
   86MOL   C20027570   1.511   3.637   2.905  0.2239  0.7504  0.4236
   86MOL   C20127571   1.433   3.711   2.997 -0.0908  0.2114  0.2144
   86MOL   H20227572   1.347   3.627   3.403 -0.0984  0.5471  1.4031
   86MOL   H20327573   1.465   3.743   3.342  0.5630  1.6211  1.3253
   86MOL   H20427574   1.289   3.829   3.178  1.5464  0.1434  0.7022
   86MOL   H20527575   1.410   3.469   3.232 -0.0979  1.8287  0.6369
   86MOL   H20627576   1.547   3.339   3.069  3.6881  1.4485  1.0150
   86MOL   H20727577   1.605   3.446   2.858  1.2525  2.8356 -1.3435
   86MOL   H20827578   1.538   3.687   2.814  0.8660  4.1159  2.3862
   86MOL   H20927579   1.401   3.811   2.971 -1.4983 -0.9419 -2.8612
   86MOL   C21027580   1.162   3.654   3.199  0.6852  0.0121 -0.1506
   86MOL   C21127581   1.044   3.743   3.160  1.1034  0.0932 -0.5556
   86MOL   C21227582   1.067   3.806   3.022  0.5247 -0.2577 -0.4589
   86MOL   C21327583   1.088   3.733   2.905 -0.3337  0.2116  0.5290
   86MOL   C21427584   1.134   3.802   2.789  0.1918  0.1514 -0.0158
   86MOL   C21527585   1.143   3.945   2.789  0.5301 -0.2228  0.1301
   86MOL   C21627586   1.095   4.014   2.905 -0.1585  0.0895  0.1085
   86MOL   C21727587   1.052   3.946   3.018 -0.0564  0.2456  0.4625
   86MOL   H21827588   1.130   3.593   3.284  0.1200 -1.7804 -1.6192
   86MOL   H21927589   1.166   3.586   3.115 -1.3966  1.4159 -1.4313
   86MOL   H22027590   1.038   3.823   3.234  1.1732 -0.1862 -0.2455
   86MOL   H22127591   1.090   3.625   2.901  1.6305  0.2494 -0.0220
   86MOL   H22227592   1.162   3.752   2.698  0.7527 -0.2383  0.3647
   86MOL   H22327593   1.190   3.997   2.707  2.0884  0.4849  1.4463
   86MOL   H22427594   1.096   4.121   2.919  0.1280  0.0206  0.5956
   86MOL   H22527595   1.019   4.000   3.105 -0.6638 -2.4402  1.9444
   86MOL   C22627596   0.916   3.652   3.162  0.9338 -0.0316  0.3112
   86MOL   C22727597   0.837   3.640   3.297 -0.2557  0.2734 -0.4626
   86MOL   C22827598   0.788   3.779   3.354  0.3091  0.1175 -0.1528
   86MOL   C22927599   0.850   3.839   3.466 -0.0777 -0.1278  0.0273
   86MOL   C23027600   0.817   3.970   3.506  0.0258 -0.7331 -0.2804
   86MOL   C23127601   0.727   4.046   3.432 -0.0376  0.0284  0.4095
   86MOL   C23227602   0.663   3.991   3.319  0.2466  0.3673  0.9971
   86MOL   C23327603   0.700   3.861   3.276 -0.2550  0.2116  0.2801
   86MOL   H23427604   0.933   3.551   3.123 -0.2400  0.2007 -0.8561
   86MOL   H23527605   0.845   3.703   3.097  1.3023 -0.8604 -0.7533
   86MOL   H23627606   0.912   3.599   3.365  0.8680  0.9143 -1.3014
   86MOL   H23727607   0.921   3.780   3.523  0.2857  0.1213 -0.1651
   86MOL   H23827608   0.859   4.032   3.585 -1.8575  0.7400 -0.4020
   86MOL   H23927609   0.700   4.146   3.462 -0.1291  0.1375 -0.0283
   86MOL   H24027610   0.599   4.053   3.258  1.1963  2.5867  2.2231
   86MOL   H24127611   0.659   3.819   3.186 -0.3124  0.5942  0.1298
   86MOL   C24227612   0.714   3.550   3.274 -0.0859 -0.5300 -0.2798
   86MOL   C24327613   0.744   3.398   3.249 -0.4378  0.5082  0.0862
   86MOL   C24427614   0.867   3.346   3.322  0.0526 -0.2786  0.3369
   86MOL   C24527615   0.864   3.340   3.466  0.1190 -0.1823  0.2605
   86MOL   C24627616   0.978   3.296   3.535  0.6522  0.4352 -0.2169
   86MOL   C24727617   1.093   3.259   3.461  0.0485 -0.7194 -0.1073
   86MOL   C24827618   1.094   3.271   3.319 -0.1331 -0.3967 -0.5076
   86MOL   C24927619   0.982   3.316   3.255 -0.0400 -0.5066 -0.1327
   86MOL   H25027620   0.637   3.586   3.206  1.7111  0.9908 -1.5577
   86MOL   H25127621   0.658   3.557   3.368  0.1274  1.3496 -0.2762
   86MOL   H25227622   0.785   3.393   3.148 -0.7753 -0.5657 -0.0041
   86MOL   H25327623   0.773   3.362   3.519 -0.1606 -0.4605 -0.0982
   86MOL   H25427624   0.962   3.279   3.641 -2.0686 -1.2921 -0.8524
   86MOL   H25527625   1.174   3.216   3.517 -1.8059 -0.5337  2.8320
   86MOL   H25627626   1.168   3.235   3.249 -0.7173 -1.6196 -0.5078
   86MOL   H25727627   0.994   3.320   3.148 -0.3582 -0.3985 -0.1637
   86MOL   C25827628   0.618   3.308   3.275 -0.0780  0.9889 -0.0131
   86MOL   C25927629   0.506   3.304   3.172 -0.7997 -0.6302 -0.5408
   86MOL   C26027630   0.561   3.282   3.032  0.7424  0.7838  0.2724
   86MOL   C26127631   0.612   3.157   3.004 -0.4035 -0.1838  0.0129
   86MOL   C26227632   0.666   3.126   2.880  0.1992  0.4944 -0.0699
   86MOL   C26327633   0.681   3.223   2.780  0.4357 -0.4683 -0.1052
   86MOL   C26427634   0.627   3.347   2.806 -0.7868  0.0540 -0.1098
   86MOL   C26527635   0.579   3.380   2.936  0.3286 -0.2385  0.5678
   86MOL   H26627636   0.572   3.329   3.372 -1.9884 -0.0876 -0.6704
   86MOL   H26727637   0.650   3.204   3.277 -0.7109  0.7682 -0.9229
   86MOL   H26827638   0.486   3.411   3.159  4.8959  0.7322  0.7457
   86MOL   H26927639   0.606   3.078   3.077 -2.7346 -0.3267 -0.3176
   86MOL   H27027640   0.707   3.027   2.868 -1.1692  0.2301 -2.8954
   86MOL   H27127641   0.725   3.195   2.685  0.9280 -1.1397  0.3187
   86MOL   H27227642   0.649   3.421   2.730  2.6625  0.1622  0.9314
   86MOL   H27327643   0.552   3.481   2.961 -2.5163 -0.6310 -0.7211
   86MOL   C27427644   0.388   3.219   3.223 -0.6937  0.4898  0.4829
   86MOL   C27527645   0.293   3.142   3.124  0.1677 -0.0970 -1.0819
   86MOL   C27627646   0.186   3.075   3.205  0.3326  0.2189  0.3989
   86MOL   C27727647   0.086   3.152   3.256 -0.4984 -0.0724 -0.1436
   86MOL   C27827648   8.090   3.091   3.321 -0.0196 -0.1513  0.6757
   86MOL   C27927649   8.077   2.951   3.322 -0.0966  0.2253 -0.4780
   86MOL   C28027650   0.062   2.867   3.257  0.3457 -0.3297 -1.1640
   86MOL   C28127651   0.171   2.931   3.203 -0.7495  0.3531  0.0588
   86MOL   H28227652   0.323   3.288   3.276 -0.5416  2.3394 -1.6795
   86MOL   H28327653   0.425   3.141   3.290 -0.2832 -0.6131 -1.0086
   86MOL   H28427654   0.361   3.066   3.086  1.1514  0.5180 -0.5626
   86MOL   H28527655   0.083   3.260   3.254 -0.4229 -0.0803 -0.8619
   86MOL   H28627656   8.012   3.150   3.367 -0.3126 -0.4331  0.5438
   86MOL   H28727657   7.992   2.910   3.374 -1.4494  1.9041 -1.3232
   86MOL   H28827658   0.043   2.761   3.267 -0.3798  0.0198  1.9453
   86MOL   H28927659   0.248   2.878   3.148  0.3562  3.6873 -1.7724
   86MOL   C29027660   0.237   3.236   3.016  0.4243  0.2517  0.2005
   86MOL   C29127661   0.126   3.180   2.920 -0.8042 -0.0273 -0.6279
   86MOL   C29227662   0.047   3.303   2.860 -0.5677  0.7088 -1.0626
   86MOL   C29327663   0.119   3.402   2.789 -0.5747 -0.1662  0.1627
   86MOL   C29427664   0.049   3.504   2.729 -0.2685 -0.5677 -0.2031
   86MOL   C29527665   8.023   3.508   2.732 -0.2786 -0.1217  0.2339
   86MOL   C29627666   7.952   3.399   2.790 -0.4224  0.0896  0.3388
   86MOL   C29727667   8.021   3.301   2.865  0.4102 -0.2223 -0.1134
   86MOL   H29827668   0.323   3.274   2.961 -0.5374  1.0081 -0.8096
   86MOL   H29927669   0.205   3.327   3.066 -0.3780  1.0059 -1.6416
   86MOL   H30027670   0.056   3.130   2.986 -1.2187 -0.8946 -1.6985
   86MOL   H30127671   0.225   3.395   2.773 -0.5995  0.0045 -0.0910
   86MOL   H30227672   0.105   3.583   2.679  0.1874 -0.9806 -0.3506
   86MOL   H30327673   7.973   3.593   2.689  2.5630  2.1716  1.3206
   86MOL   H30427674   7.844   3.398   2.782 -0.6468  0.0151  3.1008
   86MOL   H30527675   7.977   3.220   2.921 -2.5269  1.4274  0.0868
   86MOL   C30627676   0.184   3.075   2.822 -0.2927 -0.3568 -0.1919
   86MOL   C30727677   0.083   2.977   2.750  0.2521 -0.3477 -0.3649
   86MOL   C30827678   0.103   2.826   2.757  0.4980 -0.4889  0.5863
   86MOL   C30927679   0.085   2.743   2.644 -0.9219 -0.6094  0.5289
   86MOL   C31027680   0.113   2.608   2.649  0.2579 -0.7179 -0.3182
   86MOL   C31127681   0.146   2.550   2.771 -0.0073 -0.0619 -0.2261
   86MOL   C31227682   0.154   2.623   2.889 -0.2619 -0.1175  0.4197
   86MOL   C31327683   0.137   2.763   2.885 -0.2779  0.1179 -0.2728
   86MOL   H31427684   0.237   3.016   2.897  1.5925 -0.2915 -1.4598
   86MOL   H31527685   0.259   3.119   2.757 -0.4556  0.2395  0.0212
   86MOL   H31627686   0.084   3.011   2.647  0.5491 -2.0340 -0.9346
   86MOL   H31727687   0.063   2.786   2.547 -0.0619  0.4522  0.7941
   86MOL   H31827688   0.101   2.553   2.556 -0.6895  2.6310 -2.2732
   86MOL   H31927689   0.159   2.443   2.773  2.6365  0.1746 -1.8874
   86MOL   H32027690   0.182   2.574   2.981  1.3900 -0.5787 -0.3200
   86MOL   H32127691   0.156   2.827   2.970  0.6244  0.5678 -0.8110
   86MOL   H32227692   8.097   2.995   2.790  1.5365 -0.2466  2.9930
   87MOL     C127693   2.306   3.541   5.746 -0.4941 -0.1722 -0.2424
   87MOL     C227694   2.266   3.397   5.712  0.4408  0.3156 -0.3796
   87MOL     C327695   2.141   3.365   5.793  0.0653 -0.0447 -0.7538
   87MOL     C427696   2.143   3.254   5.880 -0.2537  0.1833 -0.4140
   87MOL     C527697   2.046   3.229   5.974  0.1000  0.3074 -0.4358
   87MOL     C627698   1.926   3.306   5.967 -0.0425 -0.1991  1.0781
   87MOL     C727699   1.912   3.410   5.870 -0.0734 -0.2855  0.1023
   87MOL     C827700   2.022   3.445   5.790  0.4390 -0.6469 -0.0555
   87MOL     H927701   2.404   3.574   5.711  0.3071  1.6415  3.5358
   87MOL    H1027702   2.236   3.609   5.698 -0.9047 -1.1879 -1.1110
   87MOL    H1127703   2.350   3.336   5.746  0.3458 -0.1406 -0.9476
   87MOL    H1227704   2.226   3.184   5.872  0.3821  0.6961  1.3606
   87MOL    H1327705   2.056   3.149   6.046 -0.9347  1.0617  0.5634
   87MOL    H1427706   1.838   3.294   6.028 -2.0349  3.0275 -1.0428
   87MOL    H1527707   1.821   3.467   5.866  0.3090  0.2232 -1.3594
   87MOL    H1627708   2.010   3.522   5.716  1.5779  0.7191  1.1590
   87MOL    H1727709   2.312   3.558   5.853 -3.3894 -0.0874 -0.0352
   87MOL    C1827710   2.248   3.374   5.569  0.2280  0.2781  0.0121
   87MOL    C1927711   2.218   3.224   5.535  0.0557  0.0108 -0.4627
   87MOL    C2027712   2.162   3.217   5.393 -0.4986  0.1944 -0.0680
   87MOL    C2127713   2.034   3.166   5.368  0.2431 -0.6726 -0.8428
   87MOL    C2227714   1.979   3.173   5.235  0.2356 -0.5766  0.0188
   87MOL    C2327715   2.045   3.233   5.129 -0.5035  0.2556  0.2391
   87MOL    C2427716   2.172   3.283   5.151  0.1751  0.0815 -0.2291
   87MOL    C2527717   2.234   3.269   5.277 -0.0708  0.2291  0.4809
   87MOL    H2627718   2.338   3.398   5.512  0.7673  0.2505  0.8401
   87MOL    H2727719   2.165   3.442   5.549  0.6247  0.6178 -0.5047
   87MOL    H2827720   2.135   3.186   5.594  0.3836 -1.8334 -1.1396
   87MOL    H2927721   1.965   3.135   5.445  1.7409  3.4649  2.3589
   87MOL    H3027722   1.876   3.142   5.221 -0.1735  0.7621 -0.0549
   87MOL    H3127723   1.992   3.237   5.035  1.4016  2.8061 -0.7947
   87MOL    H3227724   2.224   3.331   5.069  0.7281  0.5509  0.3931
   87MOL    H3327725   2.329   3.319   5.282 -0.4092  0.8778  0.5189
   87MOL    C3427726   2.340   3.128   5.549  0.1338  0.0405 -0.7195
   87MOL    C3527727   2.310   2.980   5.540  0.6157 -0.0915 -0.4987
   87MOL    C3627728   2.440   2.907   5.504  0.4342 -0.0398 -0.5876
   87MOL    C3727729   2.531   2.880   5.604  0.0188 -0.4350  0.1589
   87MOL    C3827730   2.641   2.795   5.577 -0.6413  0.6281  0.9342
   87MOL    C3927731   2.661   2.748   5.451  0.0380 -0.0158  0.1969
   87MOL    C4027732   2.570   2.779   5.349 -0.6302  0.0918  0.1304
   87MOL    C4127733   2.462   2.861   5.374  0.4329  0.0824 -0.2224
   87MOL    H4227734   2.383   3.145   5.648 -0.8341 -1.9094  0.0569
   87MOL    H4327735   2.420   3.170   5.488  0.9813  0.6948  0.8099
   87MOL    H4427736   2.246   2.964   5.453  1.7375 -0.4078 -1.2793
   87MOL    H4527737   2.503   2.914   5.703 -1.8447 -0.3911 -0.3478
   87MOL    H4627738   2.707   2.775   5.661  0.2993  1.3558  0.3720
   87MOL    H4727739   2.739   2.678   5.423  1.1673  1.8475 -1.5293
   87MOL    H4827740   2.585   2.742   5.249 -1.9375  1.9356 -0.7669
   87MOL    H4927741   2.390   2.868   5.294  0.3370 -0.5476 -0.1967
   87MOL    C5027742   2.227   2.925   5.663  0.3070 -0.2615 -0.6160
   87MOL    C5127743   2.200   2.773   5.682 -0.6111  0.1904 -0.2944
   87MOL    C5227744   2.225   2.734   5.824  0.0974  0.6759 -0.6990
   87MOL    C5327745   2.340   2.659   5.857 -0.7078  0.1911  0.0394
   87MOL    C5427746   2.348   2.607   5.989  0.8046 -0.7730 -0.2859
   87MOL    C5527747   2.247   2.624   6.088  0.6424 -0.7105  0.1385
   87MOL    C5627748   2.135   2.707   6.055 -0.8192  0.8827 -0.0179
   87MOL    C5727749   2.119   2.756   5.927  0.0271 -0.3597  0.7735
   87MOL    H5827750   2.136   2.981   5.683  0.4043 -0.1630 -0.4464
   87MOL    H5927751   2.289   2.954   5.748  0.1168  0.3974 -0.7009
   87MOL    H6027752   2.270   2.723   5.615  0.4090 -1.4198  1.8982
   87MOL    H6127753   2.419   2.655   5.783 -1.0613 -1.7592 -0.2589
   87MOL    H6227754   2.432   2.541   6.006 -0.2339 -1.4204  2.6250
   87MOL    H6327755   2.249   2.570   6.181 -2.1298  1.0118  1.2863
   87MOL    H6427756   2.060   2.719   6.131 -1.1558 -2.8088  0.3382
   87MOL    H6527757   2.033   2.818   5.911  0.4338 -0.4468 -2.0407
   87MOL    C6627758   2.058   2.733   5.625  0.5102 -0.3062  0.8085
   87MOL    C6727759   2.013   2.777   5.478 -0.7472  0.4481 -0.5924
   87MOL    C6827760   2.097   2.731   5.361 -0.3403 -1.1173  0.6865
   87MOL    C6927761   2.077   2.791   5.237  0.4816  0.0127  0.5546
   87MOL    C7027762   2.145   2.750   5.123  0.0667  0.4675 -0.0996
   87MOL    C7127763   2.241   2.646   5.125 -0.9289  0.2934 -0.4311
   87MOL    C7227764   2.263   2.583   5.252 -0.5114 -0.2006  0.9352
   87MOL    C7327765   2.194   2.629   5.367  0.4622  0.3654 -0.7733
   87MOL    H7427766   1.994   2.787   5.695  0.3286  0.7139 -0.1254
   87MOL    H7527767   2.044   2.625   5.632  1.3199 -0.4907 -0.4117
   87MOL    H7627768   2.026   2.885   5.472 -1.8728  0.6672  0.7833
   87MOL    H7727769   2.011   2.876   5.236 -1.7116 -1.6498 -2.0030
   87MOL    H7827770   2.133   2.803   5.030  0.0382 -1.2364 -1.0889
   87MOL    H7927771   2.293   2.619   5.035 -0.6387 -1.8740  0.3632
   87MOL    H8027772   2.336   2.505   5.259  0.5381  0.7701  0.9333
   87MOL    H8127773   2.214   2.573   5.457 -0.6964 -1.2307 -1.4730
   87MOL    C8227774   1.862   2.738   5.452 -0.6339  0.3364  0.4756
   87MOL    C8327775   1.756   2.801   5.547 -0.0989 -0.2642  0.2598
   87MOL    C8427776   1.755   2.954   5.533  0.1129 -0.3767 -0.6934
   87MOL    C8527777   1.797   3.034   5.641  0.5614  0.7519 -0.5129
   87MOL    C8627778   1.783   3.171   5.645 -0.4196  0.0165  0.1182
   87MOL    C8727779   1.729   3.239   5.536  0.0503  0.9589 -0.5855
   87MOL    C8827780   1.699   3.162   5.419 -0.3697  0.1994  0.3989
   87MOL    C8927781   1.705   3.023   5.417  0.4736  0.3795  0.0817
   87MOL    H9027782   1.846   2.632   5.436  0.0345  0.2203  0.5527
   87MOL    H9127783   1.844   2.779   5.353  1.9318  0.5907  0.0603
   87MOL    H9227784   1.776   2.800   5.654 -1.5675 -0.2814  0.5427
   87MOL    H9327785   1.837   3.003   5.737  1.8895  1.7992 -0.7108
   87MOL    H9427786   1.811   3.226   5.733 -0.0001 -1.8331  1.1610
   87MOL    H9527787   1.711   3.345   5.544  1.1361  1.1816 -0.9191
   87MOL    H9627788   1.680   3.225   5.333 -0.6220  0.5041  0.6759
   87MOL    H9727789   1.675   2.958   5.336 -2.1786  1.3026  0.2588
   87MOL    C9827790   1.610   2.739   5.547 -0.4569 -0.0607 -0.0370
   87MOL    C9927791   1.584   2.597   5.612  0.2027 -0.5138  0.2224
   87MOL   C10027792   1.687   2.568   5.725  0.4162  0.0460 -0.7549
   87MOL   C10127793   1.665   2.616   5.856  0.0422 -0.0750 -0.2127
   87MOL   C10227794   1.758   2.574   5.956  0.4049  0.0338  1.0314
   87MOL   C10327795   1.873   2.498   5.925  0.3526 -0.0463  0.0965
   87MOL   C10427796   1.890   2.459   5.795 -0.1880  0.3940 -0.0350
   87MOL   C10527797   1.798   2.493   5.694  0.0959 -0.0332 -0.2552
   87MOL   H10627798   1.558   2.751   5.453  0.1250 -0.0001 -0.3552
   87MOL   H10727799   1.556   2.801   5.618 -0.4959 -0.1987  0.0536
   87MOL   H10827800   1.605   2.524   5.534 -1.5687 -0.8097 -0.0025
   87MOL   H10927801   1.576   2.669   5.885 -0.5866 -0.2992 -1.7198
   87MOL   H11027802   1.741   2.609   6.057 -0.1057 -1.1463  1.3689
   87MOL   H11127803   1.947   2.485   6.002 -0.0124 -0.6384  0.3547
   87MOL   H11227804   1.974   2.404   5.755  0.1337 -0.9161  2.3312
   87MOL   H11327805   1.820   2.454   5.596 -1.2117  3.2974 -1.9643
   87MOL   C11427806   1.436   2.577   5.642  0.3537 -0.4079 -0.9605
   87MOL   C11527807   1.402   2.436   5.696 -0.0476  0.1247  0.0800
   87MOL   C11627808   1.280   2.437   5.788  0.2198  0.1541  0.4396
   87MOL   C11727809   1.286   2.408   5.924 -0.3053 -0.7218  0.0438
   87MOL   C11827810   1.170   2.404   6.003  0.2225  0.0541  0.1600
   87MOL   C11927811   1.041   2.424   5.944  0.2042 -0.6589 -0.4315
   87MOL   C12027812   1.038   2.457   5.808 -0.1716 -0.1512 -0.0486
   87MOL   C12127813   1.151   2.460   5.729 -0.2044  0.1494  0.0828
   87MOL   H12227814   1.379   2.594   5.550  1.0394  0.6337 -1.2016
   87MOL   H12327815   1.401   2.653   5.711  2.5120  0.2272 -0.5142
   87MOL   H12427816   1.490   2.410   5.755  1.1119  0.4806 -1.4597
   87MOL   H12527817   1.375   2.378   5.977 -0.4917  1.1268  1.4619
   87MOL   H12627818   1.183   2.371   6.105 -0.1288 -0.2092  0.1202
   87MOL   H12727819   0.955   2.423   6.009 -0.4576 -1.2282 -1.2953
   87MOL   H12827820   0.946   2.491   5.764 -0.8468  0.0082  1.4712
   87MOL   H12927821   1.143   2.481   5.623 -0.8414 -3.2771 -0.6078
   87MOL   C13027822   1.387   2.338   5.583  0.1291 -0.0293  0.0319
   87MOL   C13127823   1.351   2.193   5.630 -0.6355  0.1243  0.1212
   87MOL   C13227824   1.231   2.150   5.541  0.5097  0.3349  0.0874
   87MOL   C13327825   1.106   2.124   5.598 -0.3733 -0.2072  0.5898
   87MOL   C13427826   1.000   2.087   5.511 -0.4176 -0.1608 -0.1571
   87MOL   C13527827   1.014   2.070   5.369 -0.7529  0.0025 -0.2406
   87MOL   C13627828   1.134   2.107   5.313  0.4737  0.1533 -0.1782
   87MOL   C13727829   1.243   2.149   5.399  0.8803 -0.1794  0.4414
   87MOL   H13827830   1.478   2.337   5.522 -0.4053  0.2017 -0.7783
   87MOL   H13927831   1.310   2.371   5.513  1.5047  1.1919 -0.9399
   87MOL   H14027832   1.319   2.188   5.734  0.4716 -1.4542  0.4140
   87MOL   H14127833   1.093   2.136   5.704 -1.3865 -0.9635  0.5569
   87MOL   H14227834   0.897   2.072   5.540 -1.3387  1.4167 -2.3626
   87MOL   H14327835   0.925   2.034   5.318 -1.7496  1.4425  0.4525
   87MOL   H14427836   1.142   2.096   5.206  2.2730 -1.5801  0.1154
   87MOL   H14527837   1.342   2.177   5.366  1.0903  0.0637  1.2668
   87MOL   C14627838   1.468   2.093   5.613  0.2530  0.0206 -0.6061
   87MOL   C14727839   1.602   2.136   5.684  0.7299 -0.0774 -1.3131
   87MOL   C14827840   1.584   2.128   5.836 -0.0106  1.1530 -0.6253
   87MOL   C14927841   1.629   2.230   5.919  0.8267 -0.0870 -0.5139
   87MOL   C15027842   1.614   2.233   6.062 -0.3368  0.3682  0.3762
   87MOL   C15127843   1.563   2.119   6.124  0.6539  0.4926 -0.1168
   87MOL   C15227844   1.526   2.010   6.042 -0.6098 -0.3059 -0.7215
   87MOL   C15327845   1.531   2.018   5.906 -0.6232  0.7115 -0.0361
   87MOL   H15427846   1.483   2.081   5.505 -0.0311 -1.2109 -0.5200
   87MOL   H15527847   1.440   1.990   5.637 -1.4777  0.8403  0.9845
   87MOL   H15627848   1.628   2.238   5.659  1.6317 -0.6587 -2.7520
   87MOL   H15727849   1.660   2.323   5.874  3.4961 -1.2674 -1.1845
   87MOL   H15827850   1.646   2.326   6.108 -0.6041  0.8475 -0.3961
   87MOL   H15927851   1.547   2.119   6.231  0.4171 -0.6821 -0.1482
   87MOL   H16027852   1.482   1.922   6.087 -0.1148  0.1406  0.6815
   87MOL   H16127853   1.494   1.932   5.852 -0.8741  0.0783  1.1414
   87MOL   C16227854   1.716   2.036   5.647  0.2575  0.0455 -0.1461
   87MOL   C16327855   1.760   2.020   5.497 -0.3774  0.2933 -0.3245
   87MOL   C16427856   1.804   2.151   5.432  0.8677 -0.4889 -0.0471
   87MOL   C16527857   1.724   2.225   5.339  0.0511  0.7704 -0.0306
   87MOL   C16627858   1.773   2.341   5.277  1.1446  0.4518 -0.0991
   87MOL   C16727859   1.903   2.385   5.316 -0.1809  0.5643 -0.6338
   87MOL   C16827860   1.978   2.324   5.419 -0.1542 -0.1940 -0.2172
   87MOL   C16927861   1.928   2.202   5.470 -0.7608 -0.0048 -0.4994
   87MOL   H17027862   1.694   1.939   5.691  0.3102  0.5053  0.9010
   87MOL   H17127863   1.802   2.055   5.711 -0.4541 -1.6915  1.3783
   87MOL   H17227864   1.668   2.002   5.442 -0.5894  0.9504 -0.1925
   87MOL   H17327865   1.626   2.188   5.309 -1.1106  1.1359  3.0615
   87MOL   H17427866   1.719   2.397   5.202 -0.3951  0.4889  1.0074
   87MOL   H17527867   1.936   2.483   5.284 -1.2646  1.2754  0.3656
   87MOL   H17627868   2.076   2.355   5.450 -0.7001 -0.1530  1.5162
   87MOL   H17727869   1.984   2.145   5.542 -1.2875 -0.3297 -0.3412
   87MOL   C17827870   1.858   1.907   5.476 -0.0028 -0.1732 -0.6200
   87MOL   C17927871   1.807   1.761   5.507 -0.0562  0.3726  0.2726
   87MOL   C18027872   1.669   1.738   5.440 -1.3460  0.0599 -0.4753
   87MOL   C18127873   1.657   1.729   5.297 -0.3876 -0.0157 -0.8527
   87MOL   C18227874   1.529   1.730   5.233 -0.3511 -0.3278  0.0556
   87MOL   C18327875   1.412   1.745   5.314  0.0766  1.1028 -0.3590
   87MOL   C18427876   1.427   1.755   5.454 -0.7534  0.0931 -0.3900
   87MOL   C18527877   1.552   1.741   5.518 -0.6441  0.0580  0.7187
   87MOL   H18627878   1.953   1.934   5.522  0.3165 -1.0678 -0.7454
   87MOL   H18727879   1.883   1.904   5.370  0.5530 -0.8852 -0.4781
   87MOL   H18827880   1.797   1.741   5.614  3.1749  0.4098  0.6090
   87MOL   H18927881   1.752   1.713   5.249  0.6715  0.2020  1.1182
   87MOL   H19027882   1.531   1.713   5.127  2.1693 -0.4920  0.0791
   87MOL   H19127883   1.313   1.755   5.273 -0.0726  1.8865  0.1818
   87MOL   H19227884   1.348   1.795   5.517  0.8934 -0.8528  2.3584
   87MOL   H19327885   1.569   1.755   5.624 -0.2437  0.7640  0.5571
   87MOL   C19427886   1.919   1.665   5.461  0.7005  0.4783  0.2469
   87MOL   C19527887   2.028   1.642   5.568 -0.0342 -0.2366  0.6976
   87MOL   C19627888   1.969   1.563   5.686  0.4372  0.4476 -0.2086
   87MOL   C19727889   1.950   1.426   5.688 -0.7474  0.3818  0.0517
   87MOL   C19827890   1.866   1.364   5.783  0.3497  0.2787 -0.6715
   87MOL   C19927891   1.814   1.444   5.885 -0.2636  0.2398 -0.1768
   87MOL   C20027892   1.849   1.580   5.892  0.4284 -0.2579 -0.2306
   87MOL   C20127893   1.920   1.645   5.791 -0.3045  0.0640  0.2340
   87MOL   H20227894   1.956   1.688   5.361 -0.6089  0.8220 -0.1613
   87MOL   H20327895   1.877   1.565   5.449 -0.7092  0.9377  1.2970
   87MOL   H20427896   2.061   1.741   5.601  1.0195 -0.5006  0.4476
   87MOL   H20527897   2.001   1.364   5.616  2.7001  0.6279  2.1502
   87MOL   H20627898   1.852   1.257   5.794  1.7654  0.1456 -0.0233
   87MOL   H20727899   1.753   1.398   5.962  1.1432 -1.3194  0.0445
   87MOL   H20827900   1.812   1.639   5.976 -0.3681  0.5744 -1.1498
   87MOL   H20927901   1.921   1.753   5.786  0.9123  0.0240 -0.5822
   87MOL   C21027902   2.154   1.563   5.512  0.1982 -0.3706  0.4500
   87MOL   C21127903   2.233   1.633   5.396  0.4727  0.9368 -0.1404
   87MOL   C21227904   2.254   1.778   5.425  0.2208  0.0226  0.8698
   87MOL   C21327905   2.344   1.817   5.525  0.1798  0.8646 -0.6327
   87MOL   C21427906   2.392   1.950   5.540  0.6162 -0.0506  0.4101
   87MOL   C21527907   2.337   2.057   5.458 -0.0599 -0.2645  0.3558
   87MOL   C21627908   2.235   2.022   5.362 -0.3369  0.4323 -0.4625
   87MOL   C21727909   2.200   1.886   5.346 -0.2657 -0.5134 -0.6246
   87MOL   H21827910   2.112   1.482   5.453  0.6436  2.2383 -3.6591
   87MOL   H21927911   2.212   1.524   5.596 -0.1529 -1.1934  0.3083
   87MOL   H22027912   2.164   1.623   5.312  1.2417 -1.5871 -0.5231
   87MOL   H22127913   2.408   1.748   5.578  0.7262  1.6942 -0.2114
   87MOL   H22227914   2.477   1.969   5.603  0.4294  2.6691 -0.1031
   87MOL   H22327915   2.379   2.156   5.470  0.9511 -0.8485  1.7319
   87MOL   H22427916   2.193   2.086   5.286  0.9971 -1.2401 -2.6666
   87MOL   H22527917   2.139   1.856   5.262  0.6796 -0.5406 -1.3021
   87MOL   C22627918   2.359   1.545   5.359 -0.3166  0.2179  0.0328
   87MOL   C22727919   2.426   1.584   5.229 -0.4102  0.2259 -0.2785
   87MOL   C22827920   2.572   1.629   5.248  0.0761  0.2315  0.6346
   87MOL   C22927921   2.613   1.750   5.191 -0.6001  0.2453 -0.2355
   87MOL   C23027922   2.743   1.792   5.218  0.5226  0.4125  0.1080
   87MOL   C23127923   2.832   1.716   5.300 -0.0319  0.1837  0.8420
   87MOL   C23227924   2.793   1.591   5.343  0.4334  0.8903 -0.4245
   87MOL   C23327925   2.662   1.547   5.319 -0.2586  0.6970  0.3455
   87MOL   H23427926   2.329   1.441   5.352  1.0681 -0.0778 -2.2593
   87MOL   H23527927   2.431   1.555   5.441 -0.3313 -1.5040  0.2638
   87MOL   H23627928   2.368   1.663   5.181 -0.2381  0.4612 -0.1050
   87MOL   H23727929   2.547   1.812   5.132  0.1791  2.2841  0.9701
   87MOL   H23827930   2.777   1.886   5.175  1.0995  0.4367  0.6144
   87MOL   H23927931   2.927   1.758   5.330  0.1260  0.9720 -0.6930
   87MOL   H24027932   2.851   1.537   5.416 -1.9119  0.8114  1.4204
   87MOL   H24127933   2.618   1.462   5.368  1.6329  0.1235  1.0905
   87MOL   C24227934   2.425   1.467   5.121 -0.5753  0.1529  0.2331
   87MOL   C24327935   2.294   1.421   5.073 -0.4141 -0.2114  0.2365
   87MOL   C24427936   2.231   1.532   4.994  0.1797 -0.5626  0.2037
   87MOL   C24527937   2.107   1.584   5.040 -0.5062 -0.1884 -0.3788
   87MOL   C24627938   2.050   1.697   4.970  0.0886 -0.0802  1.2668
   87MOL   C24727939   2.115   1.759   4.860 -0.1134 -0.5971  0.5855
   87MOL   C24827940   2.230   1.692   4.807  0.1192 -0.3305  0.0933
   87MOL   C24927941   2.289   1.586   4.877  0.4330 -0.2616 -0.1801
   87MOL   H25027942   2.487   1.382   5.149 -1.6899 -0.3902  1.0958
   87MOL   H25127943   2.482   1.504   5.035 -0.1963  1.2338  0.9442
   87MOL   H25227944   2.230   1.411   5.161 -2.1440 -1.3015 -1.1072
   87MOL   H25327945   2.061   1.537   5.126 -1.8579 -0.9205 -1.4766
   87MOL   H25427946   1.951   1.728   5.000 -0.4958 -0.4926 -0.1846
   87MOL   H25527947   2.077   1.850   4.817 -0.1413 -0.1008  1.6400
   87MOL   H25627948   2.276   1.727   4.716  0.6556 -2.3291 -0.4265
   87MOL   H25727949   2.379   1.543   4.837  0.3841 -1.9448  1.4083
   87MOL   C25827950   2.292   1.294   4.994  0.1075 -0.1283  0.0452
   87MOL   C25927951   2.289   1.166   5.083 -0.0171  0.0263  0.7752
   87MOL   C26027952   2.171   1.156   5.177  0.2481  0.0760  0.0198
   87MOL   C26127953   2.191   1.125   5.314  0.7253  0.3227  0.6041
   87MOL   C26227954   2.085   1.121   5.405 -1.2667 -0.4435  0.6172
   87MOL   C26327955   1.956   1.131   5.355  0.1508 -0.1049 -0.2831
   87MOL   C26427956   1.939   1.146   5.212  0.0546 -0.1196 -0.1958
   87MOL   C26527957   2.043   1.161   5.123 -0.0142 -0.2235 -0.7083
   87MOL   H26627958   2.374   1.280   4.924  0.4887  2.1304 -0.0066
   87MOL   H26727959   2.195   1.289   4.944 -0.1638  0.6786  0.4731
   87MOL   H26827960   2.380   1.165   5.143  0.0318 -1.6426  0.6953
   87MOL   H26927961   2.293   1.112   5.348  0.6213 -0.9514  0.4660
   87MOL   H27027962   2.105   1.107   5.510  1.6997  1.1630  0.3209
   87MOL   H27127963   1.873   1.116   5.422 -0.9695  2.3250 -1.0699
   87MOL   H27227964   1.838   1.149   5.174  1.0890 -0.0896 -3.0791
   87MOL   H27327965   2.035   1.198   5.022  0.4773  1.5784 -0.1012
   87MOL   C27427966   2.307   1.040   4.994 -0.1223  0.2086 -0.4175
   87MOL   C27527967   2.331   0.903   5.058  1.3488  0.2957 -0.0980
   87MOL   C27627968   2.443   0.920   5.162 -0.1005 -0.3142 -0.4628
   87MOL   C27727969   2.567   0.963   5.119  0.4469  0.5733  0.0344
   87MOL   C27827970   2.672   0.977   5.205 -0.0620 -0.1849 -0.3488
   87MOL   C27927971   2.664   0.939   5.338  0.2327  0.3580  0.6825
   87MOL   C28027972   2.537   0.891   5.383  0.4887  0.6446  0.4228
   87MOL   C28127973   2.426   0.882   5.299  0.6698 -0.8127  0.4314
   87MOL   H28227974   2.398   1.055   4.936 -0.7614  0.9698 -1.2310
   87MOL   H28327975   2.218   1.018   4.934  0.1835 -1.7340 -0.1961
   87MOL   H28427976   2.384   0.842   4.985 -2.4499 -0.3040 -2.4830
   87MOL   H28527977   2.579   0.997   5.017 -1.7169 -0.7916 -0.7379
   87MOL   H28627978   2.765   1.017   5.168  0.6474 -2.1623 -0.7364
   87MOL   H28727979   2.752   0.958   5.398  1.1305 -0.5538 -0.3147
   87MOL   H28827980   2.521   0.872   5.488 -2.3993  1.1046  0.1146
   87MOL   H28927981   2.329   0.870   5.345  0.6085  0.1313  0.5601
   87MOL   C29027982   2.205   0.827   5.111 -0.3064  0.1345 -0.2246
   87MOL   C29127983   2.082   0.803   5.006  0.0240  0.0195  0.5670
   87MOL   C29227984   2.118   0.764   4.862  0.5467 -0.1833  0.1075
   87MOL   C29327985   2.088   0.840   4.748  0.1163 -0.4577 -0.6796
   87MOL   C29427986   2.124   0.799   4.624 -0.0963 -0.3039 -0.4415
   87MOL   C29527987   2.169   0.665   4.604  0.3445 -0.9295  0.5897
   87MOL   C29627988   2.179   0.577   4.717 -0.3211 -0.1687 -0.2883
   87MOL   C29727989   2.164   0.634   4.845 -0.0925  0.4293 -0.1220
   87MOL   H29827990   2.167   0.879   5.199 -0.5628  1.6268 -1.1915
   87MOL   H29927991   2.235   0.728   5.145 -1.2601  0.5191  1.8543
   87MOL   H30027992   2.031   0.898   4.987 -0.7032 -0.8379 -1.9429
   87MOL   H30127993   2.052   0.942   4.749  0.4579 -0.3375 -0.3642
   87MOL   H30227994   2.110   0.860   4.536  0.1941  1.0837  0.4472
   87MOL   H30327995   2.196   0.629   4.506 -0.5824  0.6207 -0.2579
   87MOL   H30427996   2.221   0.478   4.711 -1.1234 -0.6382  1.7334
   87MOL   H30527997   2.192   0.574   4.931  0.2619  2.1888  1.0377
   87MOL   C30627998   1.975   0.707   5.066  0.3358  0.7043 -0.2587
   87MOL   C30727999   1.836   0.729   4.999 -0.4718  0.8797  0.0604
   87MOL   C30828000   1.728   0.634   5.056 -0.1678 -0.8512 -0.1335
   87MOL   C30928001   1.672   0.662   5.178 -0.0104  0.2082 -0.8369
   87MOL   C31028002   1.576   0.578   5.240  0.7401 -0.0319  0.2840
   87MOL   C31128003   1.534   0.461   5.165  0.3694  0.5900  0.1179
   87MOL   C31228004   1.593   0.430   5.041 -0.5027 -0.4956 -0.2086
   87MOL   C31328005   1.686   0.521   4.984  0.7613  0.2193  0.0737
   87MOL   H31428006   1.960   0.712   5.174 -2.7782  2.0298 -0.6963
   87MOL   H31528007   2.000   0.604   5.044 -0.3227  1.0753 -2.9233
   87MOL   H31628008   1.845   0.724   4.890 -1.8864  0.0838 -0.0358
   87MOL   H31728009   1.708   0.748   5.233  1.0817 -2.2789  2.4735
   87MOL   H31828010   1.539   0.607   5.337 -1.2800  3.1750 -1.3451
   87MOL   H31928011   1.456   0.398   5.203  1.5520 -0.2573  1.1887
   87MOL   H32028012   1.552   0.345   4.988 -1.7574  0.2588 -0.4756
   87MOL   H32128013   1.735   0.500   4.890  2.9679  1.4124  0.9220
   87MOL   H32228014   1.810   0.834   5.007 -1.4906  0.6509 -0.2031
   88MOL     C128015   7.203   7.529   6.503 -0.3272 -0.0889 -0.1198
   88MOL     C228016   7.157   7.606   6.370  0.2964  0.2480 -0.9551
   88MOL     C328017   7.095   7.519   6.268  0.6360  0.8039  0.2772
   88MOL     C428018   6.980   7.446   6.296  0.6551  0.6013 -0.0453
   88MOL     C528019   6.897   7.402   6.190 -0.3586 -0.1657 -0.9233
   88MOL     C628020   6.940   7.410   6.055 -0.0565  0.4835 -0.3484
   88MOL     C728021   7.063   7.466   6.024 -0.5508 -0.4650 -0.5528
   88MOL     C828022   7.139   7.528   6.133  0.1906  0.3899 -0.1580
   88MOL     H928023   7.263   7.590   6.571  0.4801  1.4911 -2.1727
   88MOL    H1028024   7.115   7.498   6.558 -0.8449 -0.1869 -1.0060
   88MOL    H1128025   7.252   7.639   6.327  0.2737  0.2596 -0.9963
   88MOL    H1228026   6.940   7.437   6.396 -1.6123  0.0985 -0.9551
   88MOL    H1328027   6.798   7.360   6.206 -0.0730 -0.3517  0.4040
   88MOL    H1428028   6.880   7.373   5.973  0.8647 -1.0708 -0.3374
   88MOL    H1528029   7.099   7.461   5.923  1.1713  0.8049 -0.0409
   88MOL    H1628030   7.236   7.565   6.105  0.3686  0.3618  0.4274
   88MOL    H1728031   7.263   7.442   6.477  0.1149  0.6825 -1.7205
   88MOL    C1828032   7.069   7.736   6.393  0.0022  1.1946  0.2728
   88MOL    C1928033   7.145   7.848   6.463  0.0958  0.4989 -0.1644
   88MOL    C2028034   7.265   7.894   6.384  0.3012 -0.0582  0.8064
   88MOL    C2128035   7.262   7.966   6.263 -0.1240 -0.3367 -0.1205
   88MOL    C2228036   7.375   8.005   6.194 -0.4504  0.5887 -0.2575
   88MOL    C2328037   7.503   7.981   6.257  0.2287  0.1358 -0.4816
   88MOL    C2428038   7.510   7.923   6.381  0.1500  0.6377 -0.1580
   88MOL    C2528039   7.390   7.874   6.440 -1.2039 -0.1299 -0.0486
   88MOL    H2628040   6.988   7.706   6.460  1.4676 -1.2337  1.0428
   88MOL    H2728041   7.018   7.773   6.305  0.8359  0.4311 -0.5432
   88MOL    H2828042   7.174   7.813   6.561 -1.4687  1.1929  0.5699
   88MOL    H2928043   7.170   7.997   6.214 -0.6038 -2.2426 -0.4665
   88MOL    H3028044   7.348   8.053   6.101 -0.4908  0.8018 -0.1345
   88MOL    H3128045   7.588   8.015   6.200  0.1627 -0.2068 -0.7879
   88MOL    H3228046   7.607   7.898   6.421  0.4063 -0.1973 -1.2537
   88MOL    H3328047   7.411   7.821   6.531  1.9870 -1.3593 -1.4217
   88MOL    C3428048   7.041   7.962   6.485 -0.4290 -0.6496  0.0588
   88MOL    C3528049   7.089   8.072   6.586  0.4634  0.0867  0.0253
   88MOL    C3628050   7.174   0.072   6.531  0.1395  0.2857  0.0789
   88MOL    C3728051   7.116   0.170   6.448 -0.8252  0.3979  0.2396
   88MOL    C3828052   7.188   0.284   6.402 -0.1377  0.0325 -0.4493
   88MOL    C3928053   7.328   0.287   6.426  0.1170  0.3811 -0.2329
   88MOL    C4028054   7.390   0.189   6.504 -0.1949  0.3349  0.3962
   88MOL    C4128055   7.315   0.084   6.553  0.3079 -0.0999 -0.2674
   88MOL    H4228056   6.945   7.921   6.517 -0.7700 -0.3129 -0.5161
   88MOL    H4328057   7.020   8.012   6.390  1.1684  2.8337  1.4346
   88MOL    H4428058   7.162   8.024   6.651  0.1000 -1.6847 -0.8420
   88MOL    H4528059   7.011   0.164   6.424 -0.5846  1.2401 -1.0526
   88MOL    H4628060   7.134   0.357   6.344 -1.2185 -0.6036 -0.2574
   88MOL    H4728061   7.378   0.375   6.386  0.2692 -0.3719 -1.7476
   88MOL    H4828062   7.496   0.205   6.518  0.3848 -2.5072 -0.4223
   88MOL    H4928063   7.375   0.011   6.605 -0.2193 -1.3328 -1.3731
   88MOL    C5028064   6.980   0.003   6.683 -0.0285 -0.3465 -0.1092
   88MOL    C5128065   7.022   0.099   6.792 -1.0012 -0.5469 -0.1133
   88MOL    C5228066   6.910   0.183   6.858  0.7596  0.2192  0.0386
   88MOL    C5328067   6.936   0.320   6.876  0.4893 -0.4449  0.0633
   88MOL    C5428068   6.839   0.402   6.943  0.8482  0.4435 -1.0018
   88MOL    C5528069   6.718   0.346   6.992  0.0702  0.4620 -0.3573
   88MOL    C5628070   6.694   0.207   6.972  0.2631  0.7142  0.0128
   88MOL    C5728071   6.790   0.130   6.908 -0.5767 -0.4660 -0.1518
   88MOL    H5828072   6.936   8.034   6.736 -0.4737  0.3789  0.6881
   88MOL    H5928073   6.891   0.047   6.637 -2.1409 -1.9353  2.3131
   88MOL    H6028074   7.081   0.179   6.747 -2.8394  1.5004  0.9643
   88MOL    H6128075   7.024   0.368   6.837 -0.3045  1.1227  0.1571
   88MOL    H6228076   6.854   0.509   6.946 -1.0487  0.7063 -0.5637
   88MOL    H6328077   6.642   0.404   7.042 -0.2790  0.9603 -1.4411
   88MOL    H6428078   6.603   0.156   7.001  1.6900 -1.3389  1.0090
   88MOL    H6528079   6.766   0.025   6.908 -0.6342 -0.4534  0.1187
   88MOL    C6628080   7.107   0.018   6.902  0.2575  0.5212 -0.0202
   88MOL    C6728081   7.193   0.112   6.992  0.3640 -0.1658 -0.4615
   88MOL    C6828082   7.251   0.025   7.112 -0.5818 -0.0492 -0.2510
   88MOL    C6928083   7.388   8.099   7.113 -1.2913 -0.1818 -0.0403
   88MOL    C7028084   7.446   8.040   7.228 -0.1355  0.0792  0.9021
   88MOL    C7128085   7.365   8.012   7.335 -0.1982 -0.4154 -0.3557
   88MOL    C7228086   7.230   8.041   7.340 -0.0660 -0.4011  0.6323
   88MOL    C7328087   7.175   8.107   7.225  0.4928 -0.3572 -0.2099
   88MOL    H7428088   7.187   8.069   6.864  0.0670  0.6264 -0.6131
   88MOL    H7528089   7.039   8.080   6.968 -1.3772  2.6503  0.0673
   88MOL    H7628090   7.122   0.183   7.035 -0.8231 -2.1897  1.0178
   88MOL    H7728091   7.456   0.013   7.035  2.8771 -1.7851  2.8350
   88MOL    H7828092   7.552   8.025   7.236 -0.2002 -0.2203  1.2078
   88MOL    H7928093   7.407   7.955   7.417  1.4544  1.2870  0.0279
   88MOL    H8028094   7.159   8.016   7.417  0.2618 -0.8707  0.7818
   88MOL    H8128095   7.068   0.006   7.221  0.2193 -1.7773  1.7317
   88MOL    C8228096   7.304   0.195   6.919  0.4336 -0.5380  0.3452
   88MOL    C8328097   7.386   0.292   7.008  0.0834 -0.3487 -0.5538
   88MOL    C8428098   7.511   0.333   6.934  0.6225 -0.2750  0.3889
   88MOL    C8528099   7.632   0.302   6.999  0.4146 -0.4825 -0.3381
   88MOL    C8628100   7.750   0.335   6.931  0.1931  0.2013 -0.3177
   88MOL    C8728101   7.752   0.399   6.805  0.4558 -0.5422  0.2677
   88MOL    C8828102   7.632   0.440   6.749 -0.3745 -0.6494  1.2593
   88MOL    C8928103   7.515   0.409   6.815  0.5383 -0.1469 -0.6228
   88MOL    H9028104   7.274   0.249   6.830  0.9891 -1.8420 -0.6454
   88MOL    H9128105   7.381   0.134   6.872  0.6888  0.7845 -0.9744
   88MOL    H9228106   7.409   0.227   7.092 -0.8676  0.1886  0.1414
   88MOL    H9328107   7.637   0.244   7.090  4.4842  0.2193  0.0108
   88MOL    H9428108   7.843   0.300   6.972 -0.9180 -1.1164  1.0928
   88MOL    H9528109   7.845   0.421   6.754 -0.1281  0.1951 -0.5099
   88MOL    H9628110   7.636   0.491   6.654  3.2550 -1.4080  0.9020
   88MOL    H9728111   7.426   0.448   6.769  1.2018  0.9347 -0.9941
   88MOL    C9828112   7.307   0.413   7.055  0.0848  0.7252  0.4155
   88MOL    C9928113   7.382   0.529   7.124  0.2477  0.2956 -0.2251
   88MOL   C10028114   7.416   0.650   7.031  0.0841  0.3975  0.3948
   88MOL   C10128115   7.316   0.737   6.979  0.1600  0.2864 -0.9972
   88MOL   C10228116   7.344   0.859   6.912  0.4061  0.6320 -0.3697
   88MOL   C10328117   7.478   0.887   6.894 -0.7128 -0.6312 -0.8127
   88MOL   C10428118   7.580   0.811   6.957 -0.2554 -0.3102 -0.4699
   88MOL   C10528119   7.545   0.694   7.019 -0.0036  0.3820  0.2653
   88MOL   H10628120   7.242   0.368   7.131  1.5168  0.5466  1.5484
   88MOL   H10728121   7.247   0.454   6.974 -0.6956 -0.5757  0.3237
   88MOL   H10828122   7.481   0.489   7.144  0.3561 -0.5744 -2.3421
   88MOL   H10928123   7.213   0.706   6.995  0.4132 -0.5364 -0.9321
   88MOL   H11028124   7.262   0.917   6.873 -0.1898  1.9179  2.6810
   88MOL   H11128125   7.509   0.980   6.847 -1.7822  0.1593  0.0296
   88MOL   H11228126   7.680   0.850   6.954 -0.1216 -0.6359 -0.3251
   88MOL   H11328127   7.625   0.640   7.067  1.5606  2.2194 -0.1892
   88MOL   C11428128   7.317   0.573   7.256  0.6464 -0.1015 -0.1105
   88MOL   C11528129   7.314   0.476   7.371 -0.3003  0.7986 -0.3989
   88MOL   C11628130   7.451   0.420   7.414 -0.0099 -0.2393 -0.3485
   88MOL   C11728131   7.476   0.280   7.419 -0.6420 -0.4201 -0.0293
   88MOL   C11828132   7.594   0.220   7.464 -0.0643 -0.2419  0.3387
   88MOL   C11928133   7.694   0.296   7.522  0.4079 -0.0620 -0.1454
   88MOL   C12028134   7.678   0.440   7.526  0.4899  0.5006  0.2931
   88MOL   C12128135   7.557   0.498   7.470  1.5130  0.2301 -0.3548
   88MOL   H12228136   7.216   0.599   7.223  1.7824  2.8444 -1.4434
   88MOL   H12328137   7.367   0.665   7.288 -0.0616  0.5224 -0.7537
   88MOL   H12428138   7.253   0.390   7.346  1.1200 -0.8709  1.7572
   88MOL   H12528139   7.402   0.209   7.385  1.3144 -1.3446 -2.5834
   88MOL   H12628140   7.591   0.113   7.472  2.4310 -0.3002  0.8088
   88MOL   H12728141   7.777   0.244   7.567 -0.1259 -1.5232 -0.8078
   88MOL   H12828142   7.749   0.509   7.569 -1.0438  2.6361 -0.4820
   88MOL   H12928143   7.551   0.606   7.472  0.9308  0.1976  0.0376
   88MOL   C13028144   7.248   0.542   7.497 -0.1623 -0.2767  1.0424
   88MOL   C13128145   7.096   0.557   7.479  0.2018  0.7857  0.3945
   88MOL   C13228146   7.036   0.419   7.458 -0.1774  0.3620 -1.1419
   88MOL   C13328147   7.027   0.329   7.566  0.4130  0.7751  0.6607
   88MOL   C13428148   6.966   0.202   7.545 -0.4161  0.3902  0.0299
   88MOL   C13528149   6.905   0.176   7.425 -0.0609 -0.8051 -0.3290
   88MOL   C13628150   6.910   0.266   7.319  0.1946 -0.3429 -0.1728
   88MOL   C13728151   6.984   0.387   7.331  0.2488  0.3436  0.6990
   88MOL   H13828152   7.294   0.638   7.520  2.1529 -1.4122  1.2880
   88MOL   H13928153   7.271   0.489   7.589  3.5537 -0.8984 -0.1703
   88MOL   H14028154   7.078   0.612   7.387  4.1750  0.8109 -0.4524
   88MOL   H14128155   7.053   0.351   7.669 -0.9732 -1.8438  1.6087
   88MOL   H14228156   6.965   0.127   7.623 -0.5880  0.3017 -0.0568
   88MOL   H14328157   6.840   0.089   7.422 -1.3165  0.0547  1.1980
   88MOL   H14428158   6.859   0.241   7.227  0.3853 -0.0690 -0.3502
   88MOL   H14528159   6.999   0.463   7.256  0.6941 -0.5950 -0.1972
   88MOL   C14628160   7.029   0.632   7.587 -0.7312 -0.9972  0.3065
   88MOL   C14728161   7.082   0.780   7.605  0.3808  0.2647 -0.2544
   88MOL   C14828162   7.053   0.861   7.482 -0.1889 -0.8255 -0.6427
   88MOL   C14928163   6.920   0.888   7.439  0.4167 -0.1517  1.0021
   88MOL   C15028164   6.883   0.956   7.323 -0.2831  0.8704 -0.4083
   88MOL   C15128165   6.990   0.977   7.229 -0.1155 -0.1363 -0.3111
   88MOL   C15228166   7.125   0.947   7.265  0.0602  1.0457  1.0059
   88MOL   C15328167   7.156   0.895   7.390 -0.2130 -0.9131 -0.3083
   88MOL   H15428168   7.029   0.585   7.686 -0.6072  2.4701  2.0537
   88MOL   H15528169   6.922   0.642   7.565 -0.7040  0.8451  0.8707
   88MOL   H15628170   7.190   0.783   7.621 -0.1859  2.8654  3.6240
   88MOL   H15728171   6.846   0.857   7.512  0.2758  0.6686  1.2152
   88MOL   H15828172   6.781   0.975   7.295 -0.0252  2.2281 -0.5050
   88MOL   H15928173   6.968   1.020   7.133  0.4786 -0.8140 -0.7502
   88MOL   H16028174   7.193   0.952   7.182  0.8552  0.7742  1.6348
   88MOL   H16128175   7.252   0.859   7.423 -1.3444 -2.5880  1.2423
   88MOL   C16228176   7.035   0.839   7.734  0.0874  0.3062  0.3925
   88MOL   C16328177   7.081   0.981   7.764  0.4630  1.0888 -0.6796
   88MOL   C16428178   7.000   1.039   7.876 -0.0917  0.3819 -0.2255
   88MOL   C16528179   7.018   1.001   8.014 -0.3517  0.0899  0.0146
   88MOL   C16628180   6.951   1.063   0.003 -0.4567 -0.1802  0.0007
   88MOL   C16728181   6.850   1.158   8.085  0.0741  0.2341 -0.1376
   88MOL   C16828182   6.839   1.204   7.953 -0.7558  0.0162 -0.0770
   88MOL   C16928183   6.917   1.151   7.849 -0.2906  0.5230  0.8543
   88MOL   H17028184   7.064   0.771   7.814  0.4773 -1.3433 -1.1092
   88MOL   H17128185   6.926   0.834   7.725  0.2432  0.5846 -1.7740
   88MOL   H17228186   7.051   1.034   7.673 -4.0235 -0.6405 -0.3350
   88MOL   H17328187   7.098   0.932   8.036 -0.8004 -0.4865 -0.1547
   88MOL   H17428188   6.970   1.034   0.105 -0.4102  4.2534  1.3737
   88MOL   H17528189   6.787   1.198   0.048 -1.8219  2.4671 -2.6831
   88MOL   H17628190   6.764   1.277   7.925  2.3464  2.1714 -3.2658
   88MOL   H17728191   6.903   1.201   7.755 -1.3781 -1.5882 -0.1428
   88MOL   C17828192   7.236   1.003   7.786 -0.0907  0.5459  0.4800
   88MOL   C17928193   7.280   1.139   7.842  0.3836  0.1135 -0.2825
   88MOL   C18028194   7.341   1.125   7.976  0.0590 -0.3590  0.4588
   88MOL   C18128195   7.454   1.050   8.000 -0.1070 -0.4555  0.7197
   88MOL   C18228196   7.508   1.035   0.017 -0.2601  0.0916  0.1220
   88MOL   C18328197   7.455   1.116   0.115 -0.6216  0.1105 -0.5294
   88MOL   C18428198   7.340   1.199   0.095 -0.0939  0.3710 -0.1507
   88MOL   C18528199   7.280   1.195   8.082  0.7712 -0.2381  0.6749
   88MOL   H18628200   7.289   0.984   7.693 -0.0053  1.1977  0.3884
   88MOL   H18728201   7.277   0.921   7.844  2.2038  1.1651 -0.2016
   88MOL   H18828202   7.189   1.199   7.844  0.7283  0.6352 -0.2209
   88MOL   H18928203   7.505   0.997   7.920  1.0031 -0.9289  1.7390
   88MOL   H19028204   7.594   0.971   0.024 -2.4286 -2.8217  1.0073
   88MOL   H19128205   7.500   1.106   0.213 -3.1825  2.1814  0.9179
   88MOL   H19228206   7.294   1.260   0.172 -1.8864 -0.9052 -0.1798
   88MOL   H19328207   7.190   1.252   8.066 -0.0845 -1.1205  2.1664
   88MOL   C19428208   7.382   1.215   7.748 -0.0287 -0.3636 -0.2147
   88MOL   C19528209   7.348   1.237   7.599 -0.2044  0.2616  0.3925
   88MOL   C19628210   7.218   1.311   7.581 -0.2237  0.0264 -0.3192
   88MOL   C19728211   7.198   1.432   7.647 -0.4314  0.1630  1.1965
   88MOL   C19828212   7.089   1.514   7.623 -1.3291  1.1004  0.1395
   88MOL   C19928213   6.990   1.471   7.535 -0.3902 -0.2844 -0.0202
   88MOL   C20028214   7.000   1.338   7.486 -0.3270  0.1082 -0.3826
   88MOL   C20128215   7.115   1.261   7.505 -0.2296 -1.1711  0.4353
   88MOL   H20228216   7.478   1.166   7.759  0.2540  0.5531  1.4996
   88MOL   H20328217   7.394   1.316   7.787  2.8489  0.4019 -2.8595
   88MOL   H20428218   7.335   1.147   7.538  0.7462 -2.0051  3.3819
   88MOL   H20528219   7.284   1.459   7.706 -0.1574 -1.5969  1.6147
   88MOL   H20628220   7.073   1.604   7.679  1.3105  0.5413  1.8814
   88MOL   H20728221   6.903   1.525   7.500 -0.4632 -0.5577 -0.2640
   88MOL   H20828222   6.918   1.307   7.424 -0.8117 -0.4183  0.5178
   88MOL   H20928223   7.122   1.161   7.466  0.0067 -1.0032  0.0484
   88MOL   C21028224   7.446   1.321   7.531 -0.3805  0.4913  0.0220
   88MOL   C21128225   7.584   1.253   7.514 -0.2504 -0.3990 -0.2398
   88MOL   C21228226   7.586   1.114   7.446  0.0077  0.2758 -0.1226
   88MOL   C21328227   7.648   1.003   7.507 -0.8064 -1.0448 -0.2951
   88MOL   C21428228   7.646   0.877   7.440  0.7390  0.0591 -0.0232
   88MOL   C21528229   7.582   0.859   7.319  0.1504 -0.0677 -0.4997
   88MOL   C21628230   7.530   0.972   7.256 -0.1059  0.1491 -0.6366
   88MOL   C21728231   7.523   1.098   7.322 -0.8288  0.7533 -0.4886
   88MOL   H21828232   7.460   1.416   7.582  1.0049  0.4207 -0.1971
   88MOL   H21928233   7.415   1.345   7.429  0.8960 -0.5411 -0.6273
   88MOL   H22028234   7.623   1.245   7.615 -0.5535  1.2803  0.0345
   88MOL   H22128235   7.688   1.006   7.608  0.0619 -4.2036 -0.4916
   88MOL   H22228236   7.686   0.790   7.491 -0.1484 -0.7111 -0.6394
   88MOL   H22328237   7.580   0.764   7.269  2.8830 -1.0037  1.0308
   88MOL   H22428238   7.484   0.958   7.159  1.6276 -0.0982 -1.4281
   88MOL   H22528239   7.486   1.183   7.265  0.4367  1.5717 -0.1171
   88MOL   C22628240   7.675   1.350   7.439  0.0927 -0.1165 -0.0242
   88MOL   C22728241   7.825   1.300   7.429 -0.1462 -0.0936 -0.7445
   88MOL   C22828242   7.887   1.343   7.294  0.4801 -0.2411 -0.4041
   88MOL   C22928243   7.915   1.242   7.206 -0.1169  0.4096 -0.3625
   88MOL   C23028244   7.998   1.267   7.091  0.4356  0.0997  0.2526
   88MOL   C23128245   8.036   1.398   7.064  0.3494 -0.6492 -0.1059
   88MOL   C23228246   7.994   1.506   7.145  0.2100 -0.0420  0.5588
   88MOL   C23328247   7.930   1.477   7.266  0.3802 -0.2114 -0.1626
   88MOL   H23428248   7.665   1.444   7.494 -0.1353 -0.5217  0.6398
   88MOL   H23528249   7.629   1.364   7.341 -0.8476 -0.7833  0.3149
   88MOL   H23628250   7.828   1.191   7.435  0.9786 -0.0326 -0.0952
   88MOL   H23728251   7.886   1.142   7.234  0.7632  0.5622  1.1466
   88MOL   H23828252   8.019   1.187   7.022 -0.4190  0.7433 -0.7784
   88MOL   H23928253   8.083   1.416   6.969 -0.5819  1.7112 -0.1640
   88MOL   H24028254   8.013   1.608   7.114 -1.3340 -0.3323 -1.4521
   88MOL   H24128255   7.908   1.555   7.337 -0.6829 -1.4192  0.8647
   88MOL   C24228256   7.916   1.338   7.551 -0.4777 -0.4575  0.1354
   88MOL   C24328257   8.053   1.261   7.561  0.1112 -0.5645 -0.0595
   88MOL   C24428258   0.051   1.365   7.530  0.1523 -0.1744  0.0747
   88MOL   C24528259   0.081   1.475   7.620  0.3598  0.3714  0.5498
   88MOL   C24628260   0.178   1.566   7.594 -0.5250 -0.0349  0.2589
   88MOL   C24728261   0.233   1.573   7.462  0.2414  0.5915  0.3164
   88MOL   C24828262   0.195   1.477   7.366  0.2994  0.5112 -0.3720
   88MOL   C24928263   0.109   1.373   7.401 -0.6225 -0.2784  0.2990
   88MOL   H25028264   7.863   1.318   7.643  1.0274 -0.9335  0.9168
   88MOL   H25128265   7.942   1.444   7.549  1.5514 -0.9439 -1.6506
   88MOL   H25228266   8.059   1.185   7.483 -2.6327 -0.0896 -0.7748
   88MOL   H25328267   0.033   1.478   7.717 -1.4248 -0.3754 -0.2844
   88MOL   H25428268   0.218   1.637   7.665  1.4804 -0.0768 -0.7889
   88MOL   H25528269   0.306   1.646   7.431  2.4315 -0.7599  2.0837
   88MOL   H25628270   0.234   1.480   7.265  0.9995  1.0908 -0.0831
   88MOL   H25728271   0.107   1.289   7.332 -0.4626 -0.8779  1.0180
   88MOL   C25828272   8.072   1.189   7.701  0.5523 -0.1336 -0.6160
   88MOL   C25928273   8.018   1.048   7.710 -0.0516  0.3598  0.1899
   88MOL   C26028274   8.094   0.954   7.621  0.9062  0.5841 -0.4980
   88MOL   C26128275   8.031   0.907   7.503  0.4526 -1.0038  0.8059
   88MOL   C26228276   8.088   0.813   7.417 -0.7728  0.0798 -0.9354
   88MOL   C26328277   0.098   0.755   7.456  0.2022 -0.6988 -0.8206
   88MOL   C26428278   0.165   0.808   7.569  0.4565  0.3835  0.0137
   88MOL   C26528279   0.111   0.910   7.649 -0.2045  0.1084  0.1975
   88MOL   H26628280   8.031   1.246   7.784 -0.9029 -2.5996  0.3898
   88MOL   H26728281   0.063   1.190   7.726  0.3649 -1.9605  0.3092
   88MOL   H26828282   7.915   1.047   7.675 -0.2924  2.3602  0.8042
   88MOL   H26928283   7.930   0.939   7.482  0.8153 -0.0419  0.5294
   88MOL   H27028284   8.040   0.788   7.324 -1.3669  3.0878 -1.5034
   88MOL   H27128285   0.149   0.677   7.401 -0.1722 -0.3945 -1.6094
   88MOL   H27228286   0.262   0.766   7.588  0.8775  0.4852 -1.8200
   88MOL   H27328287   0.164   0.931   7.741  0.8719 -1.7089  0.0264
   88MOL   C27428288   8.020   1.014   7.863 -0.3521 -0.6083 -0.0451
   88MOL   C27528289   8.001   0.867   7.907  0.1675 -0.2432  0.6074
   88MOL   C27628290   8.047   0.832   8.048 -0.2024  0.1833 -0.4416
   88MOL   C27728291   0.021   0.720   8.067 -0.0874 -1.0554  0.0007
   88MOL   C27828292   0.045   0.674   0.085 -0.1267 -0.5648 -0.8419
   88MOL   C27928293   8.104   0.750   0.199 -0.3654  0.7112  0.2541
   88MOL   C28028294   8.030   0.868   0.174 -0.3223 -0.2661 -0.7818
   88MOL   C28128295   7.998   0.901   0.042 -0.7844  0.1134 -0.4424
   88MOL   H28228296   7.953   1.084   7.912 -0.0783  0.8977 -1.7599
   88MOL   H28328297   0.003   1.049   7.896 -1.3320  1.4474  0.7910
   88MOL   H28428298   8.080   0.819   7.849  1.2814  1.8407  0.3425
   88MOL   H28528299   0.056   0.654   7.989  0.5352 -1.1622  0.3664
   88MOL   H28628300   0.107   0.588   0.102 -0.5916 -1.0474 -1.5811
   88MOL   H28728301   0.007   0.710   0.298 -0.4558  0.7732  0.2948
   88MOL   H28828302   8.006   0.937   0.253  1.9875  0.5004 -0.7071
   88MOL   H28928303   7.929   0.982   0.022  1.8483  2.3356 -0.8174
   88MOL   C29028304   7.861   0.817   7.858  0.6257 -0.5415 -0.3022
   88MOL   C29128305   7.803   0.694   7.932  0.5357 -0.1570 -0.1885
   88MOL   C29228306   7.652   0.697   7.928 -0.4458  0.0394 -0.1295
   88MOL   C29328307   7.581   0.671   7.809  0.3444 -0.8335  0.3397
   88MOL   C29428308   7.445   0.653   7.807 -0.2857  0.0105  0.4243
   88MOL   C29528309   7.367   0.672   7.926 -0.6897 -0.3405  0.3191
   88MOL   C29628310   7.435   0.697   8.045 -0.1310 -0.6009  0.4861
   88MOL   C29728311   7.580   0.703   8.050 -0.5994 -0.2371  0.1837
   88MOL   H29828312   7.860   0.798   7.751  1.0175  0.2762 -0.4557
   88MOL   H29928313   7.794   0.902   7.871  1.8018  0.9892 -3.5901
   88MOL   H30028314   7.831   0.699   8.037  0.8734 -1.1451 -0.2218
   88MOL   H30128315   7.634   0.667   7.715 -1.2771  1.3277 -0.6925
   88MOL   H30228316   7.393   0.648   7.713 -3.3640  1.9768  1.9439
   88MOL   H30328317   7.259   0.666   7.917 -0.6285 -0.9997  0.0671
   88MOL   H30428318   7.371   0.709   0.017  0.7025  2.9953  0.6577
   88MOL   H30528319   7.626   0.718   0.032 -0.4463  1.3793 -0.1244
   88MOL   C30628320   7.859   0.560   7.888 -0.2022 -0.3224  0.1935
   88MOL   C30728321   7.838   0.439   7.978 -0.0345  0.4803  0.6819
   88MOL   C30828322   7.870   0.309   7.905 -0.6433  0.3115 -0.5304
   88MOL   C30928323   7.769   0.204   7.890  0.5094  0.1058  0.1745
   88MOL   C31028324   7.791   0.092   7.810 -0.1107 -0.2436  0.6936
   88MOL   C31128325   7.922   0.066   7.765 -0.6850  0.7491 -0.0630
   88MOL   C31228326   8.028   0.159   7.780 -0.4539  0.7536 -0.6818
   88MOL   C31328327   8.005   0.282   7.853  0.5000 -0.2769  0.0343
   88MOL   H31428328   7.967   0.568   7.877 -0.5095  1.8522 -1.6677
   88MOL   H31528329   7.825   0.536   7.787  1.3380  0.5666 -0.5557
   88MOL   H31628330   7.733   0.440   8.007 -0.5232 -1.0464 -0.9226
   88MOL   H31728331   7.670   0.228   7.925  1.3765  1.5121  1.7512
   88MOL   H31828332   7.721   0.015   7.781  0.6671 -0.5535 -0.3861
   88MOL   H31928333   7.946   8.098   7.701  0.1401  0.7333  0.2558
   88MOL   H32028334   0.012   0.140   7.739 -0.2874 -1.1982  0.5878
   88MOL   H32128335   8.084   0.355   7.855  1.2882 -1.0493 -2.1800
   88MOL   H32228336   7.901   0.456   8.065  0.0786  0.8319  0.5313
   89MOL     C128337   2.784   8.109   7.559  0.0450 -0.0885 -0.4794
   89MOL     C228338   2.774   0.112   7.648  0.1209  0.3045 -0.2802
   89MOL     C328339   2.899   0.200   7.631 -0.1050  0.2557 -0.6655
   89MOL     C428340   2.915   0.281   7.513  0.2641  0.3537 -0.0556
   89MOL     C528341   3.012   0.383   7.520 -0.4593 -0.0011  0.1730
   89MOL     C628342   3.099   0.402   7.622  0.0722 -0.3572 -0.3649
   89MOL     C728343   3.097   0.306   7.721 -0.3071 -0.2029 -0.2640
   89MOL     C828344   2.997   0.208   7.734 -0.2969  0.4151 -0.2866
   89MOL     H928345   2.706   8.037   7.580  3.3812 -3.3450  1.3643
   89MOL    H1028346   2.780   0.008   7.451  0.6886  2.2841 -0.2336
   89MOL    H1128347   2.768   0.071   7.749 -1.1069  0.6047 -0.2156
   89MOL    H1228348   2.841   0.274   7.435 -0.9421 -2.2991  1.2480
   89MOL    H1328349   3.011   0.452   7.437 -0.8482  0.6980  0.7551
   89MOL    H1428350   3.175   0.479   7.619 -1.5192  1.2414 -0.5463
   89MOL    H1528351   3.174   0.315   7.796  1.0967 -0.0232 -1.6879
   89MOL    H1628352   2.987   0.146   7.822  2.4668 -1.5577 -1.2980
   89MOL    H1728353   2.871   8.047   7.580  0.5039  0.4759 -0.6899
   89MOL    C1828354   2.637   0.184   7.619 -0.2241 -0.5263  0.6835
   89MOL    C1928355   2.554   0.219   7.735  0.6712 -0.7585 -0.2058
   89MOL    C2028356   2.436   0.304   7.698 -0.1807 -0.0042 -0.3753
   89MOL    C2128357   2.426   0.431   7.749 -0.7525  0.1662  0.1977
   89MOL    C2228358   2.312   0.510   7.723  0.0575 -0.2903 -0.1170
   89MOL    C2328359   2.201   0.451   7.661  0.0206 -0.1468  0.8533
   89MOL    C2428360   2.219   0.328   7.591 -0.0579  0.0870 -0.3293
   89MOL    C2528361   2.339   0.254   7.609 -0.3756  0.0589 -0.2353
   89MOL    H2628362   2.576   0.120   7.556 -1.2619 -0.6336  1.7697
   89MOL    H2728363   2.659   0.277   7.566 -0.1966 -0.5400  0.6707
   89MOL    H2828364   2.620   0.280   7.797 -0.4434  0.3336 -0.0624
   89MOL    H2928365   2.498   0.481   7.811 -3.0530  1.1218  2.1613
   89MOL    H3028366   2.295   0.607   7.769  0.2521 -0.5090  0.4190
   89MOL    H3128367   2.108   0.504   7.650  0.7124  0.5764 -1.9706
   89MOL    H3228368   2.145   0.285   7.525 -0.0151 -0.3358 -0.1056
   89MOL    H3328369   2.356   0.160   7.559  0.9614  0.2005 -0.0712
   89MOL    C3428370   2.508   0.096   7.823 -0.1271 -0.5217 -0.3252
   89MOL    C3528371   2.524   0.090   7.975  0.4383 -0.3767  0.0861
   89MOL    C3628372   2.448   0.202   8.038 -0.4648 -0.5578 -0.2423
   89MOL    C3728373   2.318   0.219   8.010  0.4632 -0.0710  0.1196
   89MOL    C3828374   2.243   0.333   8.059  0.3584 -0.1910 -0.2661
   89MOL    C3928375   2.312   0.428   0.020 -0.2955 -0.4787  0.1766
   89MOL    C4028376   2.449   0.408   0.054  0.5665  0.0026  0.4968
   89MOL    C4128377   2.520   0.296   0.002  0.5150 -0.1382  0.4089
   89MOL    H4228378   2.573   0.018   7.781  0.5286  0.7567 -1.7416
   89MOL    H4328379   2.405   0.066   7.806 -0.1548 -0.8737  0.4365
   89MOL    H4428380   2.628   0.108   8.002  0.1158  1.3456  0.2589
   89MOL    H4528381   2.272   0.139   7.955 -1.1570  1.1630 -0.3588
   89MOL    H4628382   2.137   0.330   8.038 -0.1470  1.6243  1.8237
   89MOL    H4728383   2.256   0.512   0.059 -1.4320 -0.7706 -0.8154
   89MOL    H4828384   2.496   0.486   0.112  2.7282 -0.3300 -0.7621
   89MOL    H4928385   2.628   0.295   0.011  0.8136  1.7666 -2.1728
   89MOL    C5028386   2.480   8.066   8.026  1.3732 -0.4738 -0.9133
   89MOL    C5128387   2.521   8.026   0.058  0.1951  0.7990  0.0864
   89MOL    C5228388   2.672   7.992   0.076  0.1614 -0.1673  0.8059
   89MOL    C5328389   2.762   8.096   0.101  0.2519 -0.0855  0.0906
   89MOL    C5428390   2.901   8.061   0.121 -0.4282  0.1671 -0.3532
   89MOL    C5528391   2.944   7.926   0.121  0.1186 -0.8800 -0.6225
   89MOL    C5628392   2.849   7.825   0.108  0.2183 -0.1621  0.9574
   89MOL    C5728393   2.717   7.861   0.071 -0.3176  0.2399  0.2072
   89MOL    H5828394   2.521   7.985   7.965  0.9365 -0.5864 -1.0545
   89MOL    H5928395   2.373   8.049   8.015  1.4895 -1.5240 -0.5181
   89MOL    H6028396   2.484   7.928   0.086 -2.0350  0.7870 -2.7028
   89MOL    H6128397   2.718   0.079   0.109 -0.8261 -0.4627 -1.0745
   89MOL    H6228398   2.970   0.024   0.150 -1.1468  0.2193  1.2949
   89MOL    H6328399   3.045   7.894   0.146 -0.2198 -1.7921 -0.3999
   89MOL    H6428400   2.876   7.721   0.108 -0.5979 -0.4024 -1.7848
   89MOL    H6528401   2.648   7.779   0.054  2.4234 -2.2010  0.4645
   89MOL    C6628402   2.466   8.112   0.174  0.6350  0.3051  0.0429
   89MOL    C6728403   2.312   8.110   0.205 -0.5595 -0.3379 -1.0805
   89MOL    C6828404   2.262   7.969   0.249 -0.0420 -0.0100  0.2464
   89MOL    C6928405   2.169   7.895   0.169  0.0254 -0.3441 -0.0062
   89MOL    C7028406   2.124   7.768   0.211  0.3871 -0.2591 -0.2802
   89MOL    C7128407   2.180   7.707   0.324 -0.6548  0.2473 -0.6633
   89MOL    C7228408   2.282   7.777   0.395  0.0049 -0.3077  0.0266
   89MOL    C7328409   2.324   7.904   0.361  0.1411 -0.7495  0.1474
   89MOL    H7428410   2.505   0.099   0.164 -0.5490  0.8828  1.2027
   89MOL    H7528411   2.515   8.077   0.265  3.7458 -2.1432 -2.4820
   89MOL    H7628412   2.246   0.006   0.120 -0.9622  2.7004 -0.4385
   89MOL    H7728413   2.117   7.953   0.095 -4.2689 -2.6329  1.0645
   89MOL    H7828414   2.039   7.723   0.161 -0.4049  0.0393  0.7884
   89MOL    H7928415   2.151   7.605   0.340 -2.3848  1.0071  1.3227
   89MOL    H8028416   2.335   7.723   0.473  1.1854 -0.6798 -1.0315
   89MOL    H8128417   2.392   7.967   0.416  0.2377 -0.7674  0.0501
   89MOL    C8228418   2.277   0.109   0.307 -0.6780  0.6850  0.9014
   89MOL    C8328419   2.182   0.088   0.421  0.1398  0.0725 -0.1582
   89MOL    C8428420   2.175   0.212   0.510  0.3542  0.3089  0.6600
   89MOL    C8528421   2.088   0.324   0.481 -0.1698 -0.4334  0.6031
   89MOL    C8628422   2.103   0.439   0.564  0.3468  0.0130  0.3830
   89MOL    C8728423   2.194   0.445   0.665 -0.5890 -0.3056 -0.0309
   89MOL    C8828424   2.276   0.330   0.693  0.4438  0.6250 -0.0459
   89MOL    C8928425   2.269   0.213   0.616  0.1419  0.1657  0.0457
   89MOL    H9028426   2.248   0.199   0.253 -1.6090 -0.2605 -0.1944
   89MOL    H9128427   2.371   0.143   0.351  0.5620 -1.6787  0.1245
   89MOL    H9228428   2.232   0.011   0.480 -0.2620  1.1003  1.5462
   89MOL    H9328429   2.011   0.331   0.406  0.4464  0.2086  0.0176
   89MOL    H9428430   2.057   0.534   0.540  1.2770  0.3369 -0.1411
   89MOL    H9528431   2.198   0.540   0.715  1.5053 -0.6810  0.5564
   89MOL    H9628432   2.343   0.332   0.778 -0.3743 -0.2805  0.6306
   89MOL    H9728433   2.330   0.130   0.647  2.1795  1.4253 -0.5294
   89MOL    C9828434   2.041   0.040   0.377  1.2950 -0.1180  0.3556
   89MOL    C9928435   1.947   0.024   0.499  0.3524 -0.0280  0.0088
   89MOL   C10028436   1.808   0.003   0.446  0.7307  0.0257 -0.8131
   89MOL   C10128437   1.740   0.122   0.415  0.0656  0.9893  0.0830
   89MOL   C10228438   1.606   0.109   0.371 -0.2053  0.5018 -0.5008
   89MOL   C10328439   1.551   8.103   0.350 -0.1610 -0.3851  0.2471
   89MOL   C10428440   1.623   7.984   0.369 -0.3946  0.0344 -0.1772
   89MOL   C10528441   1.756   7.987   0.411 -0.1679  0.1636 -0.0663
   89MOL   H10628442   2.020   8.062   0.323 -1.6374 -0.0044  1.1934
   89MOL   H10728443   2.002   0.117   0.311  0.1094  1.0263  2.3211
   89MOL   H10828444   1.956   0.117   0.555 -1.2220  0.0839  0.0818
   89MOL   H10928445   1.777   0.222   0.429  0.0294  0.8351  1.3410
   89MOL   H11028446   1.552   0.201   0.358 -0.2915  0.2622 -1.9050
   89MOL   H11128447   1.454   8.108   0.303  0.5538 -2.1732 -1.4992
   89MOL   H11228448   1.579   7.886   0.364  1.3819 -0.9589  2.4649
   89MOL   H11328449   1.817   7.899   0.421 -0.4872 -0.1829 -1.0679
   89MOL   C11428450   1.991   8.028   0.596 -0.4413 -0.5811 -0.7722
   89MOL   C11528451   1.920   8.026   0.732 -1.0734  0.0378  0.7492
   89MOL   C11628452   1.904   7.887   0.781 -0.2070 -0.2187 -0.1990
   89MOL   C11728453   1.774   7.828   0.793 -0.0439  0.3848  0.2666
   89MOL   C11828454   1.751   7.707   0.858 -0.1089  0.1300  0.9485
   89MOL   C11928455   1.861   7.629   0.898 -0.1406 -0.0941 -0.4546
   89MOL   C12028456   1.993   7.683   0.886 -0.1820 -0.0510  0.0597
   89MOL   C12128457   2.013   7.809   0.828 -0.4731 -0.1740  0.3993
   89MOL   H12228458   2.098   8.035   0.612 -0.6043 -1.0474  0.5122
   89MOL   H12328459   1.979   7.927   0.557  3.2930 -1.5881  0.5257
   89MOL   H12428460   1.819   8.067   0.732 -1.9664 -2.0056 -1.5521
   89MOL   H12528461   1.695   7.882   0.743 -1.8026 -1.6436  0.7981
   89MOL   H12628462   1.650   7.671   0.867 -0.3801  0.4019 -0.7253
   89MOL   H12728463   1.837   7.539   0.953 -2.2631 -0.2736 -1.6408
   89MOL   H12828464   2.067   7.614   0.922 -0.9551 -0.7281  0.3649
   89MOL   H12928465   2.111   7.852   0.812 -0.8166  0.1374 -0.9062
   89MOL   C13028466   1.990   0.003   0.838  0.5710  0.3274 -0.3813
   89MOL   C13128467   1.957   8.108   0.986 -0.5858 -0.0722  0.5619
   89MOL   C13228468   2.046   0.090   1.065  0.1397  0.0334 -0.3072
   89MOL   C13328469   2.033   0.231   1.057 -0.1067  0.7153 -0.9819
   89MOL   C13428470   2.102   0.318   1.144  0.1483  0.3037  0.3812
   89MOL   C13528471   2.207   0.269   1.227 -0.0673 -0.5604 -0.6002
   89MOL   C13628472   2.232   0.130   1.227 -0.2835 -0.4703  0.4320
   89MOL   C13728473   2.151   0.042   1.157 -0.6728  0.3601 -0.5469
   89MOL   H13828474   1.974   0.108   0.811  1.3721  1.2754  2.7102
   89MOL   H13928475   2.097   8.109   0.819  0.6636 -1.2948  0.8267
   89MOL   H14028476   1.982   8.009   1.024  0.0415  0.0150  0.3927
   89MOL   H14128477   1.957   0.272   0.992 -2.5341 -0.5353  0.9616
   89MOL   H14228478   2.098   0.424   1.126 -0.8795  0.1793 -0.1961
   89MOL   H14328479   2.271   0.333   1.284 -0.4534 -1.0120  0.3470
   89MOL   H14428480   2.317   0.098   1.285 -1.9701 -2.1909  2.0201
   89MOL   H14528481   2.159   8.049   1.168  1.5530  0.5055 -0.4948
   89MOL   C14628482   1.806   0.010   1.019  0.0929 -0.5410  0.4848
   89MOL   C14728483   1.753   8.076   1.155 -0.0540 -0.2504 -0.2552
   89MOL   C14828484   1.601   0.000   1.171 -0.2029  0.5046 -0.9205
   89MOL   C14928485   1.559   0.086   1.277  0.3710  0.2040 -0.2671
   89MOL   C15028486   1.435   0.151   1.261 -0.1461 -0.5869 -0.2234
   89MOL   C15128487   1.346   0.122   1.157 -0.2354  0.3472 -0.1312
   89MOL   C15228488   1.383   0.024   1.065  0.6313  0.0710  0.0136
   89MOL   C15328489   1.508   8.075   1.069 -0.8897 -0.0893 -0.0170
   89MOL   H15428490   1.747   8.079   0.940  1.1649  0.4007 -0.8753
   89MOL   H15528491   1.783   0.116   1.012  2.3159  0.0275  1.2171
   89MOL   H15628492   1.807   0.018   1.231  0.2684  1.7986 -1.9678
   89MOL   H15728493   1.631   0.123   1.349  2.0103 -2.3307 -0.5267
   89MOL   H15828494   1.406   0.230   1.328 -0.1827 -0.6278 -0.1909
   89MOL   H15928495   1.249   0.168   1.146  0.3044  1.8295  1.1202
   89MOL   H16028496   1.317   8.103   0.988 -1.9200  3.3651  0.5192
   89MOL   H16128497   1.530   8.009   0.987 -1.3346  1.2415 -1.2340
   89MOL   C16228498   1.782   7.919   1.171 -0.5324 -0.3482 -0.1556
   89MOL   C16328499   1.717   7.841   1.282  0.3667  0.0860  0.5947
   89MOL   C16428500   1.759   7.688   1.285 -0.1445  0.5678 -0.3465
   89MOL   C16528501   1.893   7.641   1.271 -0.3819 -0.0285  0.2637
   89MOL   C16628502   1.925   7.504   1.280 -0.0658 -0.2380 -0.2352
   89MOL   C16728503   1.820   7.410   1.279 -0.3012 -0.0938 -0.3122
   89MOL   C16828504   1.689   7.455   1.292  0.2456  0.4438  0.6126
   89MOL   C16928505   1.659   7.595   1.300 -0.7259 -0.7941 -0.1483
   89MOL   H17028506   1.889   7.920   1.191 -0.6524 -1.1723  0.5800
   89MOL   H17128507   1.766   7.869   1.075  1.3853 -0.3765 -0.4675
   89MOL   H17228508   1.611   7.849   1.256  0.5935  2.4783  0.2855
   89MOL   H17328509   1.976   7.709   1.258  0.8805 -1.3677  1.2758
   89MOL   H17428510   2.026   7.468   1.295  0.8038  1.8684 -0.7968
   89MOL   H17528511   1.840   7.304   1.281 -1.4682 -0.3095  0.5305
   89MOL   H17628512   1.603   7.389   1.298 -0.1968  1.0160  0.5857
   89MOL   H17728513   1.556   7.626   1.310 -0.5686 -0.3164  0.0246
   89MOL   C17828514   1.738   7.901   1.429 -0.0795  0.2055  0.4237
   89MOL   C17928515   1.620   7.873   1.533  0.2504  0.2796 -0.4377
   89MOL   C18028516   1.674   7.926   1.663  0.4011 -0.8895  0.2147
   89MOL   C18128517   1.690   7.849   1.779  0.0984  0.0856 -0.0757
   89MOL   C18228518   1.737   7.905   1.903 -0.4041 -0.6713 -0.8658
   89MOL   C18328519   1.756   8.044   1.911 -0.4712  0.1900 -0.4335
   89MOL   C18428520   1.748   0.010   1.793  0.3825  0.3268 -0.1989
   89MOL   C18528521   1.701   8.063   1.673  0.9906 -0.0563  0.6550
   89MOL   H18628522   1.757   8.008   1.440 -0.2801  0.1209  1.7204
   89MOL   H18728523   1.826   7.854   1.473 -1.8987 -3.4293  0.3338
   89MOL   H18828524   1.607   7.765   1.528 -1.8515  0.3914  1.7644
   89MOL   H18928525   1.667   7.744   1.768 -3.0297  0.8466 -1.4367
   89MOL   H19028526   1.745   7.841   1.990  0.8808  0.2079 -0.3217
   89MOL   H19128527   1.785   8.095   2.002 -0.1574 -0.7504  0.0026
   89MOL   H19228528   1.770   0.116   1.786 -2.7023  1.0991  1.0400
   89MOL   H19328529   1.674   0.012   1.591 -0.4575  0.1387  1.2592
   89MOL   C19428530   1.477   7.933   1.496 -0.6191  0.2230  0.5251
   89MOL   C19528531   1.367   7.922   1.606 -0.6408  0.6022 -0.5241
   89MOL   C19628532   1.355   8.059   1.665 -0.2276 -0.3099 -0.4820
   89MOL   C19728533   1.408   8.088   1.792  0.1413  0.1319  0.4824
   89MOL   C19828534   1.373   0.089   1.854  0.3710  0.3190  0.3430
   89MOL   C19928535   1.296   0.181   1.794 -0.2069  0.0973 -1.0146
   89MOL   C20028536   1.258   0.167   1.656  0.0629  0.2038 -0.3817
   89MOL   C20128537   1.288   0.044   1.591 -0.9756 -0.4839 -0.4988
   89MOL   H20228538   1.446   7.876   1.408 -0.7621 -0.6225  1.1166
   89MOL   H20328539   1.491   8.036   1.466  3.3088 -0.2589  0.5366
   89MOL   H20428540   1.395   7.859   1.690  0.4478  1.7112 -0.0413
   89MOL   H20528541   1.473   8.017   1.842 -0.6014 -0.7131  0.2698
   89MOL   H20628542   1.404   0.092   1.957  1.4573 -0.9417  0.0721
   89MOL   H20728543   1.272   0.271   1.848  0.3529  2.1364 -3.9855
   89MOL   H20828544   1.201   0.238   1.599  0.6406  0.3204 -0.8201
   89MOL   H20928545   1.263   0.021   1.488 -1.5384 -0.1372 -0.4395
   89MOL   C21028546   1.230   7.865   1.552 -0.3493  0.3785 -0.2381
   89MOL   C21128547   1.227   7.706   1.533 -1.0779  0.7043  0.5732
   89MOL   C21228548   1.231   7.628   1.667  0.1253  0.8804 -1.0120
   89MOL   C21328549   1.114   7.612   1.742  0.4909  0.2679 -0.3761
   89MOL   C21428550   1.113   7.539   1.859  0.2300 -0.2884 -0.2528
   89MOL   C21528551   1.229   7.477   1.901  0.0505 -0.0548  0.7306
   89MOL   C21628552   1.348   7.490   1.824  0.0636  0.4071  0.1920
   89MOL   C21728553   1.348   7.564   1.706  0.7210  0.1328  0.1501
   89MOL   H21828554   1.195   7.906   1.457  0.4929 -0.7595 -1.0618
   89MOL   H21928555   1.165   7.891   1.635 -0.3581  1.2816 -0.5195
   89MOL   H22028556   1.319   7.679   1.480 -2.3142 -0.7194 -0.9091
   89MOL   H22128557   1.025   7.667   1.716  0.2568  0.0006 -0.1426
   89MOL   H22228558   1.023   7.525   1.917  0.7419 -1.4206  0.2833
   89MOL   H22328559   1.227   7.423   1.995 -1.5880 -1.4689 -0.0927
   89MOL   H22428560   1.432   7.441   1.871  0.4320  1.2073  0.3917
   89MOL   H22528561   1.439   7.587   1.653 -0.5874 -2.5942 -3.4783
   89MOL   C22628562   1.100   7.668   1.456  0.1792 -0.1561 -0.7014
   89MOL   C22728563   1.105   7.698   1.303 -0.7730 -0.6544  0.1284
   89MOL   C22828564   1.211   7.622   1.222  0.1613  0.4103  0.3440
   89MOL   C22928565   1.291   7.688   1.122  0.2312  0.0203 -0.0862
   89MOL   C23028566   1.375   7.611   1.044 -0.4192 -0.2906  0.0050
   89MOL   C23128567   1.397   7.469   1.067 -0.5593  0.2608  0.1646
   89MOL   C23228568   1.318   7.407   1.173  0.0118 -0.1654  0.4437
   89MOL   C23328569   1.226   7.486   1.244 -0.3260  0.2188  0.2891
   89MOL   H23428570   1.026   7.735   1.501 -1.4012 -1.2728 -1.5941
   89MOL   H23528571   1.073   7.565   1.477 -0.0466  0.1925  0.8017
   89MOL   H23628572   1.137   7.801   1.288 -1.4873 -0.4604 -0.0871
   89MOL   H23728573   1.291   7.795   1.113  1.6613  0.1898  1.6561
   89MOL   H23828574   1.432   7.669   0.974  0.4469  0.7156  1.5155
   89MOL   H23928575   1.462   7.404   1.011 -1.3636  1.1831 -1.8646
   89MOL   H24028576   1.339   7.304   1.200  1.1627  0.7119  3.1326
   89MOL   H24128577   1.164   7.444   1.322  0.1688  0.6537  0.9180
   89MOL   C24228578   0.965   7.670   1.230 -1.1899  0.4112 -0.1686
   89MOL   C24328579   0.850   7.760   1.283  0.0016 -0.3298 -0.0166
   89MOL   C24428580   0.889   7.908   1.274 -0.1955  0.1767  0.0707
   89MOL   C24528581   0.910   7.981   1.391 -0.7431 -0.4977 -0.4061
   89MOL   C24628582   0.972   8.108   1.375 -0.2272  0.1182 -0.5674
   89MOL   C24728583   0.981   0.063   1.257  0.2745 -0.2477 -0.0634
   89MOL   C24828584   0.959   8.098   1.144  0.2921 -0.2810  0.2657
   89MOL   C24928585   0.918   7.965   1.146  0.1253 -0.1826 -0.0747
   89MOL   H25028586   0.928   7.568   1.233 -0.7967  0.2935  0.7991
   89MOL   H25128587   0.997   7.695   1.129 -1.2079 -0.7521 -0.4724
   89MOL   H25228588   0.837   7.734   1.388 -0.2258 -3.1760 -0.7001
   89MOL   H25328589   0.903   7.946   1.493  1.4336  1.2480  0.3746
   89MOL   H25428590   1.006   0.042   1.465  2.8297  0.3164 -1.7889
   89MOL   H25528591   1.029   0.159   1.254  1.0428 -0.6165  0.3355
   89MOL   H25628592   0.989   0.014   1.045 -0.7729  1.1213  0.3618
   89MOL   H25728593   0.900   7.914   1.052 -3.9381 -1.0689  1.0903
   89MOL   C25828594   0.728   7.733   1.193  1.0407  0.7161  0.0817
   89MOL   C25928595   0.603   7.819   1.207  0.4633  0.4937 -0.2484
   89MOL   C26028596   0.490   7.777   1.107  0.4844  0.2159 -1.0227
   89MOL   C26128597   0.426   7.875   1.026 -0.3730  0.1101 -0.0166
   89MOL   C26228598   0.322   7.842   0.935  1.4369  0.2483  0.3473
   89MOL   C26328599   0.282   7.703   0.931  0.0367  0.7250 -0.0666
   89MOL   C26428600   0.337   7.606   1.017  0.5185  0.2127 -0.3986
   89MOL   C26528601   0.442   7.643   1.107 -0.1118  1.2831  0.2631
   89MOL   H26628602   0.700   7.629   1.213 -0.2011  0.5110 -2.5139
   89MOL   H26728603   0.767   7.735   1.091  0.5820 -0.9160 -0.1539
   89MOL   H26828604   0.631   7.923   1.189  0.5964  0.4150 -0.5116
   89MOL   H26928605   0.465   7.976   1.022  3.0214 -1.1354  0.4137
   89MOL   H27028606   0.291   7.914   0.860 -2.4644 -0.7774  0.8648
   89MOL   H27128607   0.210   7.672   0.857 -0.5925 -2.6449  1.8686
   89MOL   H27228608   0.296   7.506   1.023  0.9036  0.1161  0.7970
   89MOL   H27328609   0.495   7.571   1.168  1.3730  1.8974 -0.2637
   89MOL   C27428610   0.553   7.813   1.357  0.2950  0.7260 -0.6451
   89MOL   C27528611   0.476   7.941   1.400  0.8139  0.1961 -0.3783
   89MOL   C27628612   0.398   7.929   1.536 -0.3943  0.0719 -0.7491
   89MOL   C27728613   0.258   7.961   1.539  0.1560  0.4598  0.0669
   89MOL   C27828614   0.189   7.958   1.656 -0.0090 -0.7408 -0.6917
   89MOL   C27928615   0.255   7.925   1.778 -0.4945  0.0814  0.6496
   89MOL   C28028616   0.398   7.900   1.775 -0.6630  0.5838  0.5701
   89MOL   C28128617   0.470   7.898   1.653 -0.0631 -0.6009 -0.4056
   89MOL   H28228618   0.637   7.787   1.422 -0.6130  0.7521  0.5400
   89MOL   H28328619   0.485   7.728   1.365  0.3616  0.5244 -2.0698
   89MOL   H28428620   0.405   7.969   1.322 -0.6042  2.5555  1.6704
   89MOL   H28528621   0.212   7.991   1.446  0.9673 -0.2104 -0.5551
   89MOL   H28628622   0.085   7.988   1.651  0.3343  0.1305 -3.6986
   89MOL   H28728623   0.198   7.915   1.870 -0.3439 -0.4514  0.6831
   89MOL   H28828624   0.449   7.896   1.870 -0.0325 -0.2711  0.2091
   89MOL   H28928625   0.574   7.870   1.663  0.4878  1.4410 -0.1146
   89MOL   C29028626   0.579   8.066   1.414  0.4773  0.7069 -0.6842
   89MOL   C29128627   0.507   0.083   1.446 -0.9107 -0.3388  0.7762
   89MOL   C29228628   0.578   0.183   1.541  0.4864 -0.5849 -0.7531
   89MOL   C29328629   0.711   0.206   1.515 -0.1733 -0.6941  0.5787
   89MOL   C29428630   0.786   0.294   1.596 -0.5674 -0.0863 -0.2247
   89MOL   C29528631   0.721   0.347   1.709  0.4644  0.1088  0.5534
   89MOL   C29628632   0.585   0.314   1.745 -0.7658 -0.2340 -0.1640
   89MOL   C29728633   0.515   0.231   1.655 -0.6361 -0.1616  0.3843
   89MOL   H29828634   0.641   8.081   1.326  0.6039  2.3778 -0.3346
   89MOL   H29928635   0.655   8.037   1.487 -0.4122  3.2944  1.3613
   89MOL   H30028636   0.418   0.055   1.502 -0.8000 -3.7148 -0.6067
   89MOL   H30128637   0.758   0.164   1.427 -0.2503  2.1211 -0.8546
   89MOL   H30228638   0.885   0.329   1.571 -0.8835  2.0242  1.3319
   89MOL   H30328639   0.772   0.422   1.768 -1.2949  1.1401  0.7864
   89MOL   H30428640   0.551   0.361   1.836 -2.1562 -1.4994 -0.0074
   89MOL   H30528641   0.417   0.193   1.679 -0.8560  0.8300  1.0905
   89MOL   C30628642   0.457   0.162   1.322  0.8620  0.5584 -0.8330
   89MOL   C30728643   0.564   0.231   1.228 -0.1412 -0.1990  0.7410
   89MOL   C30828644   0.510   0.277   1.092 -0.2717  0.1103 -0.4431
   89MOL   C30928645   0.557   0.215   0.976 -0.1177  0.4716 -0.0264
   89MOL   C31028646   0.507   0.261   0.856  0.8689  0.4524  0.6438
   89MOL   C31128647   0.416   0.370   0.849  0.2134  0.3118  0.8598
   89MOL   C31228648   0.364   0.424   0.966 -0.0078 -0.2787 -0.9772
   89MOL   C31328649   0.416   0.382   1.089  0.0401 -0.6330 -0.1812
   89MOL   H31428650   0.370   0.224   1.344 -0.7362 -1.0493 -2.5384
   89MOL   H31528651   0.404   0.085   1.266  0.0604 -1.0235  2.0260
   89MOL   H31628652   0.649   0.164   1.214  1.0113  1.3491  0.1423
   89MOL   H31728653   0.624   0.131   0.980 -1.6136 -0.6548  2.6856
   89MOL   H31828654   0.541   0.209   0.768  0.8195  0.6167  0.5265
   89MOL   H31928655   0.379   0.404   0.753 -1.0951  0.5096  1.4328
   89MOL   H32028656   0.290   0.502   0.966 -1.7540 -1.9010 -0.8657
   89MOL   H32128657   0.404   0.441   1.178 -0.3624  0.0075 -0.6570
   89MOL   H32228658   0.589   0.324   1.279 -2.4710  0.6389  0.3829
   90MOL     C128659   3.497   5.106   4.833  0.4442 -0.1241 -0.6464
   90MOL     C228660   3.470   5.109   4.990 -0.2062  0.0595  0.0917
   90MOL     C328661   3.517   4.980   5.062 -0.0513  0.0138 -0.4635
   90MOL     C428662   3.423   4.893   5.123 -0.0675  0.3080  0.5181
   90MOL     C528663   3.458   4.770   5.181  0.1521  0.2968 -0.3282
   90MOL     C628664   3.599   4.739   5.187  0.2555  0.6518  0.5290
   90MOL     C728665   3.694   4.826   5.124  0.3209 -0.6568 -0.2904
   90MOL     C828666   3.652   4.946   5.063 -0.1409 -0.7966  0.2048
   90MOL     H928667   3.481   5.208   4.797 -1.1312  0.0475  0.5202
   90MOL    H1028668   3.603   5.096   4.810 -0.0560 -1.0971 -2.6637
   90MOL    H1128669   3.361   5.108   4.998 -0.2595  2.4125 -0.0905
   90MOL    H1228670   3.317   4.912   5.115 -0.1319  0.8255  2.4272
   90MOL    H1328671   3.382   4.704   5.218 -0.7181  1.7587  0.5381
   90MOL    H1428672   3.637   4.647   5.229  1.2338  1.6856  1.9813
   90MOL    H1528673   3.799   4.803   5.129  0.4849  0.3448  1.4649
   90MOL    H1628674   3.723   5.020   5.027  0.9444 -2.0820 -0.3366
   90MOL    H1728675   3.446   5.034   4.770  0.6352 -0.3212 -0.5774
   90MOL    C1828676   3.524   5.231   5.064  0.7216 -0.1036  0.3602
   90MOL    C1928677   3.468   5.367   5.027  0.6222  0.1734 -0.3846
   90MOL    C2028678   3.312   5.376   5.019  0.0240  0.3042  0.8325
   90MOL    C2128679   3.253   5.442   4.912 -0.1953  0.6879 -0.1929
   90MOL    C2228680   3.112   5.445   4.905 -0.3451  0.2422 -0.8438
   90MOL    C2328681   3.034   5.386   5.005  0.8941  0.9769  0.2350
   90MOL    C2428682   3.090   5.319   5.113 -0.0657  0.5996 -0.2196
   90MOL    C2528683   3.227   5.319   5.120 -0.2913  0.4231  0.2905
   90MOL    H2628684   3.632   5.227   5.062  0.6855 -0.7618 -1.3780
   90MOL    H2728685   3.491   5.213   5.166 -0.3175 -0.5490 -0.0402
   90MOL    H2828686   3.508   5.397   4.930  2.4948  1.2625  0.6735
   90MOL    H2928687   3.314   5.481   4.831  3.2357 -0.4321  1.7691
   90MOL    H3028688   3.059   5.488   4.822 -2.0802 -1.7397 -0.8059
   90MOL    H3128689   2.927   5.400   5.001  0.9569  1.2950 -0.2642
   90MOL    H3228690   3.033   5.257   5.181 -0.2807  0.3725 -0.6085
   90MOL    H3328691   3.268   5.271   5.208 -1.5361  0.2397  0.7710
   90MOL    C3428692   3.522   5.484   5.112  0.4047  0.0778 -0.2167
   90MOL    C3528693   3.558   5.469   5.262  0.3438 -0.3473 -0.1888
   90MOL    C3628694   3.645   5.583   5.311 -0.2729  0.4258 -0.0676
   90MOL    C3728695   3.763   5.548   5.381 -0.6978 -0.4890 -0.2882
   90MOL    C3828696   3.840   5.649   5.440  0.7977  0.3215 -0.3683
   90MOL    C3928697   3.804   5.785   5.415  0.0641 -0.5188  0.4594
   90MOL    C4028698   3.697   5.820   5.336 -0.7542 -0.2879 -0.1179
   90MOL    C4128699   3.614   5.716   5.293 -0.4337 -0.3309 -0.7966
   90MOL    H4228700   3.462   5.575   5.103  0.2850  0.0116 -0.0947
   90MOL    H4328701   3.612   5.518   5.061 -0.5800  0.1894 -1.9357
   90MOL    H4428702   3.622   5.382   5.272  3.8009  2.0027 -0.7259
   90MOL    H4528703   3.783   5.448   5.419 -0.9343 -0.1163  0.8435
   90MOL    H4628704   3.920   5.628   5.510 -1.2230 -0.0416  1.8943
   90MOL    H4728705   3.867   5.859   5.463 -0.7521  0.3134  0.2646
   90MOL    H4828706   3.675   5.923   5.311 -1.4284 -0.6173 -0.8887
   90MOL    H4928707   3.522   5.742   5.242  0.2547  1.1933 -1.2556
   90MOL    C5028708   3.431   5.466   5.360  0.0365 -0.0257 -0.0253
   90MOL    C5128709   3.440   5.394   5.499  0.5870  0.3098 -0.5976
   90MOL    C5228710   3.309   5.401   5.574  0.0322  0.2241 -0.6592
   90MOL    C5328711   3.199   5.327   5.535  0.6983  0.1477  0.1076
   90MOL    C5428712   3.075   5.338   5.601  0.1947  1.3583  0.0805
   90MOL    C5528713   3.062   5.431   5.709  0.9735  0.3592 -0.3995
   90MOL    C5628714   3.175   5.499   5.759  1.0651 -0.1573  0.2522
   90MOL    C5728715   3.297   5.489   5.682  1.5494 -0.8583  0.2485
   90MOL    H5828716   3.346   5.413   5.318  1.1767 -1.5698 -0.4294
   90MOL    H5928717   3.393   5.564   5.389 -1.1306 -0.8882  1.4514
   90MOL    H6028718   3.515   5.436   5.567  2.2460 -0.1870 -2.0661
   90MOL    H6128719   3.199   5.275   5.440  0.1118 -3.2786  1.9176
   90MOL    H6228720   2.984   5.296   5.562  1.0030  0.3527 -0.7830
   90MOL    H6328721   2.970   5.450   5.760  1.2018 -0.4224  0.3040
   90MOL    H6428722   3.174   5.562   5.846  1.0206 -1.5272  1.2658
   90MOL    H6528723   3.381   5.549   5.715  0.9006 -0.1674  0.6723
   90MOL    C6628724   3.483   5.242   5.478  0.9976 -0.0486  0.2143
   90MOL    C6728725   3.496   5.149   5.608  0.4426  0.1219 -0.1568
   90MOL    C6828726   3.389   5.038   5.619 -1.0930 -0.1644  0.0714
   90MOL    C6928727   3.281   5.050   5.709  0.6561 -0.6990 -0.4836
   90MOL    C7028728   3.192   4.939   5.722  0.3571 -0.4068 -0.0153
   90MOL    C7128729   3.211   4.828   5.643 -0.9129  0.0679 -0.2953
   90MOL    C7228730   3.306   4.829   5.542 -1.1998 -0.0021 -0.5824
   90MOL    C7328731   3.395   4.932   5.534 -0.4585 -0.0232  0.0703
   90MOL    H7428732   3.582   5.240   5.431  0.9398 -0.9562  0.1434
   90MOL    H7528733   3.420   5.195   5.404  0.1841 -1.3085  1.6738
   90MOL    H7628734   3.475   5.227   5.681 -0.0558  0.5481 -0.7467
   90MOL    H7728735   3.277   5.136   5.774  0.7735  0.9572 -2.6182
   90MOL    H7828736   3.112   4.938   5.795  0.8392  1.6368  0.5675
   90MOL    H7928737   3.143   4.745   5.647  2.8534 -3.2731 -2.5399
   90MOL    H8028738   3.309   4.745   5.474  1.6330  0.7793 -1.5080
   90MOL    H8128739   3.469   4.922   5.455  0.8514  1.6004  1.0376
   90MOL    C8228740   3.631   5.094   5.647  0.5993  0.6439 -0.0838
   90MOL    C8328741   3.746   5.195   5.653  0.4934 -0.5345  0.1981
   90MOL    C8428742   3.720   5.307   5.752 -0.4547 -0.3830 -0.2328
   90MOL    C8528743   3.796   5.426   5.734  0.3317 -0.4239  0.2681
   90MOL    C8628744   3.769   5.533   5.827 -0.4968 -0.2135  0.9416
   90MOL    C8728745   3.679   5.514   5.937 -0.4184  0.1497  0.2097
   90MOL    C8828746   3.648   5.388   5.975  0.2751  0.2602  0.0684
   90MOL    C8928747   3.659   5.284   5.881  0.3703  0.0824 -1.2047
   90MOL    H9028748   3.648   5.032   5.559 -1.7146 -0.7576  0.4066
   90MOL    H9128749   3.622   5.029   5.734  0.0102  1.9925  0.8703
   90MOL    H9228750   3.757   5.249   5.558 -0.1126  1.0431  1.0084
   90MOL    H9328751   3.853   5.445   5.645 -2.6728  0.6932 -1.4766
   90MOL    H9428752   3.793   5.636   5.807  0.5549 -0.6751 -0.2967
   90MOL    H9528753   3.652   5.604   5.991 -0.8092  0.7854 -1.0434
   90MOL    H9628754   3.590   5.378   6.066 -0.0758 -1.3508 -0.3287
   90MOL    H9728755   3.627   5.184   5.905 -0.6278  0.7472  0.2511
   90MOL    C9828756   3.879   5.124   5.691  0.8136 -0.4339  0.3245
   90MOL    C9928757   3.930   5.033   5.572  0.7107 -0.4610 -0.5219
   90MOL   C10028758   3.977   5.115   5.452 -0.1503  0.2077 -0.3176
   90MOL   C10128759   3.891   5.137   5.341  0.1736  0.8786 -0.0850
   90MOL   C10228760   3.934   5.213   5.230  0.0878  0.3583 -0.2802
   90MOL   C10328761   4.070   5.250   5.224  0.4030 -0.2781  0.2123
   90MOL   C10428762   4.151   5.234   5.334  0.4631  0.6794  0.4049
   90MOL   C10528763   4.104   5.171   5.452  0.0762 -0.2744 -0.0491
   90MOL   H10628764   3.863   5.073   5.786  0.2328  0.5520  0.7652
   90MOL   H10728765   3.959   5.194   5.713  0.2592  0.9555 -1.9409
   90MOL   H10828766   3.850   4.971   5.530 -0.6449  0.8267  0.0972
   90MOL   H10928767   3.793   5.092   5.353  0.4960  0.1391 -0.1762
   90MOL   H11028768   3.861   5.233   5.154 -0.3562  0.1691  0.0918
   90MOL   H11128769   4.107   5.316   5.147  1.4382 -1.1027 -0.0169
   90MOL   H11228770   4.249   5.278   5.331  0.3911  0.7480 -2.2379
   90MOL   H11328771   4.171   5.171   5.537  1.8246  2.9641 -1.3170
   90MOL   C11428772   4.040   4.936   5.626 -0.2398  0.4574 -0.1306
   90MOL   C11528773   3.999   4.822   5.715 -0.1949 -0.6062 -0.6639
   90MOL   C11628774   3.892   4.734   5.650  0.0718 -0.7908 -0.8703
   90MOL   C11728775   3.929   4.635   5.556  0.0071 -0.1570 -0.1542
   90MOL   C11828776   3.838   4.555   5.490 -0.2141 -0.8369  0.7292
   90MOL   C11928777   3.700   4.570   5.516  1.1054 -0.5770 -0.1064
   90MOL   C12028778   3.663   4.659   5.616 -0.0756 -0.1844  0.1670
   90MOL   C12128779   3.761   4.732   5.687 -0.3340 -0.3807 -0.7665
   90MOL   H12228780   4.124   4.990   5.669 -0.6314  0.1267  1.0891
   90MOL   H12328781   4.078   4.892   5.534  2.0808  0.6765  0.6888
   90MOL   H12428782   3.946   4.860   5.803 -1.5564 -0.6442 -1.4459
   90MOL   H12528783   4.034   4.627   5.533  0.6235  1.9548  1.6487
   90MOL   H12628784   3.878   4.499   5.407  1.3982 -0.9979  1.6157
   90MOL   H12728785   3.638   4.493   5.472  0.4794 -0.0224 -0.2010
   90MOL   H12828786   3.560   4.651   5.647 -0.9125  3.0434 -1.5539
   90MOL   H12928787   3.731   4.791   5.772 -2.6382 -2.9320  0.2453
   90MOL   C13028788   4.114   4.744   5.774 -0.7095  0.3835  0.2944
   90MOL   C13128789   4.091   4.629   5.866  0.4074 -0.1402  0.3783
   90MOL   C13228790   4.218   4.543   5.885 -0.2557  0.3108 -0.1456
   90MOL   C13328791   4.344   4.603   5.922  0.4770 -0.3727  0.3972
   90MOL   C13428792   4.462   4.525   5.919 -0.4192 -0.5040  0.0389
   90MOL   C13528793   4.458   4.387   5.891  0.5181 -0.1235  0.3884
   90MOL   C13628794   4.332   4.327   5.858  0.2337 -0.0912  0.3606
   90MOL   C13728795   4.217   4.404   5.852 -0.0291 -0.9311 -0.1183
   90MOL   H13828796   4.178   4.815   5.827  0.9918 -0.7316 -0.2370
   90MOL   H13928797   4.166   4.711   5.684  2.0732  0.3541  1.8425
   90MOL   H14028798   4.021   4.564   5.814  0.3380 -0.2025  0.5480
   90MOL   H14128799   4.352   4.710   5.934 -1.4889 -0.0754 -0.8655
   90MOL   H14228800   4.562   4.567   5.923 -0.6944 -0.0419  3.6339
   90MOL   H14328801   4.554   4.338   5.880  0.8957  0.9681 -1.3915
   90MOL   H14428802   4.328   4.221   5.833  1.9040  0.2610 -1.5105
   90MOL   H14528803   4.120   4.359   5.834  0.0984 -0.0612 -3.2487
   90MOL   C14628804   4.034   4.665   6.006  0.2340 -0.4735  0.3448
   90MOL   C14728805   3.894   4.604   6.054 -0.4887  0.0626  0.0954
   90MOL   C14828806   3.895   4.453   6.033  0.4759 -0.0493 -0.1795
   90MOL   C14928807   3.965   4.374   6.123  0.1854  0.3350  0.5108
   90MOL   C15028808   3.955   4.234   6.110 -0.1457 -0.1404  0.3720
   90MOL   C15128809   3.893   4.179   5.996 -0.0708 -0.1480 -0.1048
   90MOL   C15228810   3.834   4.261   5.900  0.5960  0.4744 -0.4513
   90MOL   C15328811   3.837   4.403   5.915 -0.8279  0.3600  0.5028
   90MOL   H15428812   4.013   4.772   6.004  0.0031 -0.4984  1.1771
   90MOL   H15528813   4.109   4.654   6.084 -1.1632 -0.1039  1.7711
   90MOL   H15628814   3.817   4.647   5.991 -0.7697  0.5912  0.7984
   90MOL   H15728815   4.012   4.425   6.206 -0.0835  2.9721 -0.9338
   90MOL   H15828816   3.991   4.165   6.185 -0.0706 -0.8140 -0.2812
   90MOL   H15928817   3.888   4.072   5.989  0.9788 -0.4093  2.5854
   90MOL   H16028818   3.791   4.218   5.810 -0.7552 -0.8568  0.7983
   90MOL   H16128819   3.791   4.472   5.845 -2.8635  0.4083  1.8480
   90MOL   C16228820   3.865   4.638   6.205 -0.4656 -0.5125  0.6393
   90MOL   C16328821   3.785   4.766   6.229  0.8814  0.7612 -0.7115
   90MOL   C16428822   3.656   4.753   6.146 -0.2645 -0.6018 -0.5493
   90MOL   C16528823   3.569   4.647   6.183 -0.7755 -0.2134  0.4103
   90MOL   C16628824   3.444   4.634   6.116  0.0157  0.2413  0.2430
   90MOL   C16728825   3.415   4.719   6.010  0.1853 -0.2516  0.0742
   90MOL   C16828826   3.509   4.813   5.968 -0.8054  0.1219 -1.0689
   90MOL   C16928827   3.626   4.835   6.039  0.5925  0.2724 -0.7026
   90MOL   H17028828   3.962   4.640   6.254  0.4892  0.8037 -1.2323
   90MOL   H17128829   3.802   4.559   6.246 -0.7135 -0.8950 -0.4572
   90MOL   H17228830   3.846   4.847   6.187  3.0914  0.0619  1.0399
   90MOL   H17328831   3.591   4.594   6.274 -0.5191  1.5647  1.4024
   90MOL   H17428832   3.372   4.563   6.153 -1.3376  1.5879  0.2687
   90MOL   H17528833   3.326   4.701   5.951  0.3097  2.1329 -0.9019
   90MOL   H17628834   3.479   4.881   5.889 -1.4523  2.1978  0.9154
   90MOL   H17728835   3.694   4.913   6.009 -0.4514  1.2812 -0.4959
   90MOL   C17828836   3.765   4.792   6.380 -0.4186 -0.8538 -0.4976
   90MOL   C17928837   3.731   4.935   6.414 -0.0384  0.0606  0.7377
   90MOL   C18028838   3.584   4.967   6.382 -0.1204 -0.0832 -0.1157
   90MOL   C18128839   3.555   5.085   6.308 -0.1939  0.6306 -0.5229
   90MOL   C18228840   3.422   5.130   6.297  0.0897  0.2284 -0.5187
   90MOL   C18328841   3.323   5.053   6.360  0.0822  0.1185  0.8429
   90MOL   C18428842   3.350   4.929   6.424 -0.8538  0.8068 -0.0052
   90MOL   C18528843   3.486   4.882   6.438  0.6380  0.7274 -0.0559
   90MOL   H18628844   3.868   4.778   6.413 -0.9599 -1.1864  1.1232
   90MOL   H18728845   3.689   4.728   6.426 -1.9457  1.7815  0.7349
   90MOL   H18828846   3.780   5.006   6.348 -1.6041 -1.7521 -2.4783
   90MOL   H18928847   3.640   5.138   6.267 -0.0314  0.6078 -0.2111
   90MOL   H19028848   3.410   5.221   6.241  0.5529 -0.0776 -1.1216
   90MOL   H19128849   3.223   5.092   6.347  0.0410 -0.2735 -0.0357
   90MOL   H19228850   3.274   4.868   6.470  0.4005 -0.6595  0.1930
   90MOL   H19328851   3.508   4.794   6.498  2.8686  2.3050  1.5034
   90MOL   C19428852   3.769   4.971   6.564 -0.1411  0.2314  0.6901
   90MOL   C19528853   3.891   5.072   6.564  0.2620 -0.2096  0.3815
   90MOL   C19628854   3.849   5.207   6.498  0.7253 -0.1412  0.0785
   90MOL   C19728855   3.739   5.278   6.544 -0.3373 -0.3721  0.9630
   90MOL   C19828856   3.698   5.394   6.473 -0.2019 -0.6929 -0.5378
   90MOL   C19928857   3.768   5.441   6.361  0.0084 -0.6495 -0.1349
   90MOL   C20028858   3.889   5.373   6.326 -0.2211 -0.5661  0.4805
   90MOL   C20128859   3.934   5.259   6.399 -0.8355 -0.3617 -0.2130
   90MOL   H20228860   3.795   4.880   6.617  0.7243  0.7296  1.1388
   90MOL   H20328861   3.675   4.999   6.612 -1.6453  0.1805 -2.1168
   90MOL   H20428862   3.963   5.030   6.495 -2.1625 -2.2235 -0.9854
   90MOL   H20528863   3.691   5.248   6.636  0.6050  0.2341  1.6597
   90MOL   H20628864   3.605   5.443   6.499  1.6121  1.7955  1.5169
   90MOL   H20728865   3.723   5.520   6.301  1.1061  0.3853  0.3858
   90MOL   H20828866   3.954   5.410   6.249 -0.8438  0.7155  0.5546
   90MOL   H20928867   4.031   5.217   6.378  0.2252  2.3209 -0.8795
   90MOL   C21028868   3.958   5.091   6.704  0.3186 -0.1542 -0.0673
   90MOL   C21128869   4.081   5.180   6.701  0.0290 -0.5766 -0.9166
   90MOL   C21228870   4.120   5.226   6.845  0.1733  0.7211  0.1932
   90MOL   C21328871   4.151   5.362   6.884 -0.7192 -0.6300 -0.1236
   90MOL   C21428872   4.194   5.392   7.016  0.0905  0.2330  0.5308
   90MOL   C21528873   4.202   5.285   7.112  0.2583 -0.5742 -0.0842
   90MOL   C21628874   4.153   5.160   7.077  0.1873 -0.0933  0.0502
   90MOL   C21728875   4.122   5.131   6.948 -0.1035  0.0529  0.2021
   90MOL   H21828876   3.972   5.001   6.762  0.4006  0.3485  0.7020
   90MOL   H21928877   3.887   5.140   6.770 -2.3386 -0.6209 -2.4462
   90MOL   H22028878   4.040   5.266   6.647 -0.2891  0.3907  0.8245
   90MOL   H22128879   4.152   5.447   6.817 -0.3499 -0.2766  0.3270
   90MOL   H22228880   4.234   5.491   7.033  2.5540 -0.8563  1.3595
   90MOL   H22328881   4.236   5.301   7.213  2.9131 -1.1961 -0.8565
   90MOL   H22428882   4.152   5.083   7.153 -0.9277 -0.3863 -0.2468
   90MOL   H22528883   4.101   5.031   6.916 -0.0051 -0.2451  1.0427
   90MOL   C22628884   4.199   5.142   6.607  0.5400  0.3073 -0.6820
   90MOL   C22728885   4.335   5.215   6.626  0.4867  0.2138 -0.2301
   90MOL   C22828886   4.426   5.164   6.736 -0.2952  1.0515 -0.3176
   90MOL   C22928887   4.474   5.029   6.730  0.8672 -0.0570 -0.1103
   90MOL   C23028888   4.559   4.984   6.827  0.2385  0.4376 -0.2836
   90MOL   C23128889   4.596   5.067   6.938  0.1195  0.4509  0.2975
   90MOL   C23228890   4.549   5.200   6.943  0.1317 -0.1017  0.7560
   90MOL   C23328891   4.472   5.249   6.833 -0.4898 -0.3865  0.0486
   90MOL   H23428892   4.179   5.140   6.499 -1.5411  0.5145 -0.3146
   90MOL   H23528893   4.222   5.037   6.626 -1.1691  0.1085  0.3930
   90MOL   H23628894   4.311   5.316   6.659  3.1193  0.6685  0.4018
   90MOL   H23728895   4.439   4.975   6.644 -2.2474 -1.2872  1.8131
   90MOL   H23828896   4.593   4.882   6.814  0.5449  0.6886 -1.4714
   90MOL   H23928897   4.660   5.025   7.014  0.7845  2.1674  0.6986
   90MOL   H24028898   4.580   5.267   7.022  1.0962  0.1517  0.1705
   90MOL   H24128899   4.446   5.354   6.838 -1.8132 -0.7043 -0.0471
   90MOL   C24228900   4.409   5.240   6.493 -0.0847  0.0921 -0.0759
   90MOL   C24328901   4.353   5.346   6.398  0.6511  0.4380 -0.4948
   90MOL   C24428902   4.319   5.480   6.463 -0.4539 -0.3797  0.0661
   90MOL   C24528903   4.193   5.533   6.451 -0.6428 -0.0769  0.4035
   90MOL   C24628904   4.155   5.640   6.532 -0.0862  0.5758 -0.6693
   90MOL   C24728905   4.247   5.702   6.620 -0.2304  0.0713 -0.0147
   90MOL   C24828906   4.378   5.657   6.624  0.1513 -0.2995  0.5599
   90MOL   C24928907   4.408   5.544   6.544 -0.1724 -0.5295  0.3328
   90MOL   H25028908   4.412   5.143   6.443 -0.7058  0.4702 -0.8435
   90MOL   H25128909   4.511   5.271   6.518 -0.4618  0.8605  0.5162
   90MOL   H25228910   4.254   5.318   6.361  1.9069 -2.1784 -1.9731
   90MOL   H25328911   4.120   5.482   6.389  2.1991 -1.7295 -1.7738
   90MOL   H25428912   4.052   5.669   6.522 -0.6952 -0.1468  3.0345
   90MOL   H25528913   4.204   5.784   6.677 -0.1611 -0.2300  0.4702
   90MOL   H25628914   4.461   5.691   6.685  0.0536 -1.0790  1.1393
   90MOL   H25728915   4.504   5.496   6.561 -1.2514 -2.6415  0.6260
   90MOL   C25828916   4.435   5.354   6.266 -0.5527  0.0757 -0.2355
   90MOL   C25928917   4.412   5.234   6.162 -0.2951 -0.5754  0.2130
   90MOL   C26028918   4.266   5.226   6.117 -0.4957 -0.1748 -0.6818
   90MOL   C26128919   4.205   5.325   6.033 -0.6994  0.8487  0.8366
   90MOL   C26228920   4.073   5.318   5.995  0.1453  0.0190 -0.0198
   90MOL   C26328921   3.993   5.219   6.045  0.8592  0.7563  0.1539
   90MOL   C26428922   4.053   5.108   6.117  0.1334 -0.5722 -0.9749
   90MOL   C26528923   4.188   5.116   6.150 -0.0722 -0.2217 -0.4223
   90MOL   H26628924   4.536   5.376   6.301 -1.3179  0.7099  1.6285
   90MOL   H26728925   4.398   5.439   6.209 -0.8667  0.3598  0.3841
   90MOL   H26828926   4.455   5.141   6.199  2.9668  0.3681 -1.0955
   90MOL   H26928927   4.264   5.409   6.000  0.6635  0.5233  2.4012
   90MOL   H27028928   4.023   5.405   5.955 -0.2480 -1.2526 -2.3672
   90MOL   H27128929   3.885   5.216   6.043  0.9149 -1.6686 -0.8279
   90MOL   H27228930   3.997   5.024   6.155 -0.3865 -0.3627 -1.2643
   90MOL   H27328931   4.241   5.040   6.205 -3.3087 -0.4767  2.5897
   90MOL   C27428932   4.507   5.261   6.046  0.0353  0.2746  0.0717
   90MOL   C27528933   4.657   5.229   6.070 -0.4308 -0.0864 -0.2753
   90MOL   C27628934   4.676   5.095   6.136 -0.3193  0.8381 -0.9576
   90MOL   C27728935   4.613   4.981   6.074  0.4325  0.5980  0.3451
   90MOL   C27828936   4.632   4.849   6.128  0.0638  0.5327 -0.2602
   90MOL   C27928937   4.717   4.841   6.237 -0.3326  0.0231 -0.2124
   90MOL   C28028938   4.781   4.954   6.293  0.0705 -0.5361 -0.6012
   90MOL   C28128939   4.755   5.082   6.249  0.1397  0.3190 -0.1457
   90MOL   H28228940   4.494   5.366   6.020 -0.7305 -0.0800 -1.0142
   90MOL   H28328941   4.472   5.225   5.949  1.5298 -2.0749  0.3723
   90MOL   H28428942   4.702   5.310   6.127 -0.1291 -0.8045  0.5145
   90MOL   H28528943   4.546   4.984   5.989  0.2797 -1.8556  0.3502
   90MOL   H28628944   4.576   4.768   6.085  0.0651  0.3192  0.1389
   90MOL   H28728945   4.725   4.743   6.281 -3.7196 -0.0901  0.2248
   90MOL   H28828946   4.840   4.948   6.383 -0.5988 -1.1772 -0.1929
   90MOL   H28928947   4.808   5.166   6.292  2.0581 -0.7543 -0.3617
   90MOL   C29028948   4.744   5.228   5.934 -0.2583  0.2989 -0.9174
   90MOL   C29128949   4.776   5.361   5.851  0.1495  0.7321 -0.3193
   90MOL   C29228950   4.828   5.463   5.953 -0.5116 -0.1125  0.3573
   90MOL   C29328951   4.955   5.446   6.021  0.8372  0.0192  0.5079
   90MOL   C29428952   4.993   5.547   6.110  0.2390  0.0398  0.5332
   90MOL   C29528953   4.924   5.672   6.133  0.8434  0.4725 -0.1116
   90MOL   C29628954   4.798   5.678   6.069 -0.9205 -0.4300  0.2321
   90MOL   C29728955   4.754   5.583   5.976 -0.2000 -0.0720  0.2907
   90MOL   H29828956   4.700   5.155   5.867 -0.6119  1.4332 -1.9300
   90MOL   H29928957   4.843   5.188   5.958  0.3664  1.8245 -0.8809
   90MOL   H30028958   4.684   5.402   5.808 -1.1999 -1.8379  0.0200
   90MOL   H30128959   5.018   5.360   6.001  0.7577  0.2371 -0.7014
   90MOL   H30228960   5.081   5.530   6.171  0.5853 -0.1161 -0.0074
   90MOL   H30328961   4.970   5.744   6.198  4.0957 -1.7332  0.1357
   90MOL   H30428962   4.738   5.768   6.068 -1.1891 -0.6103  0.0266
   90MOL   H30528963   4.665   5.598   5.917 -0.2878 -1.5141  0.0354
   90MOL   C30628964   4.875   5.332   5.735 -0.8178 -1.2814 -0.3023
   90MOL   C30728965   4.812   5.258   5.619  0.3152 -0.3092  0.0105
   90MOL   C30828966   4.721   5.343   5.539  1.1019  0.0947 -0.1462
   90MOL   C30928967   4.769   5.455   5.465  0.3755  0.7356 -0.3265
   90MOL   C31028968   4.683   5.548   5.414  0.4143  0.0996  0.0724
   90MOL   C31128969   4.543   5.522   5.424 -0.1924  0.1110  0.0202
   90MOL   C31228970   4.492   5.402   5.478  0.1194 -0.3908 -0.7567
   90MOL   C31328971   4.582   5.312   5.543  0.9803 -0.1653  0.9970
   90MOL   H31428972   4.953   5.271   5.783  0.6065  1.0695  0.4610
   90MOL   H31528973   4.934   5.418   5.702  0.2620 -1.4491  1.0905
   90MOL   H31628974   4.776   5.160   5.650  0.6027  0.3909  2.6976
   90MOL   H31728975   4.877   5.460   5.458  0.3797  1.3444  0.0594
   90MOL   H31828976   4.719   5.636   5.363  0.4927  1.6027  2.6090
   90MOL   H31928977   4.472   5.595   5.389 -0.2837 -0.2372 -0.5215
   90MOL   H32028978   4.385   5.386   5.471 -0.2649  1.0965  1.3495
   90MOL   H32128979   4.543   5.225   5.594 -0.0311 -0.5537 -0.3924
   90MOL   H32228980   4.891   5.236   5.547  0.3633 -0.5951  0.1526
   91MOL     C128981   7.803   3.868   5.306 -0.5696 -0.3958  0.4497
   91MOL     C228982   7.809   3.813   5.158 -0.1987 -0.2653  0.0275
   91MOL     C328983   7.928   3.889   5.096  0.8482  0.4891  0.1879
   91MOL     C428984   8.055   3.892   5.147 -0.6708 -0.2790  0.3574
   91MOL     C528985   0.042   3.967   5.084  0.6375  0.0010  0.0596
   91MOL     C628986   0.014   4.050   4.972  0.6479  0.1214  0.2977
   91MOL     C728987   8.000   4.047   4.917 -0.0768 -0.0642 -0.0015
   91MOL     C828988   7.905   3.958   4.971  0.6954  0.5813 -0.5362
   91MOL     H928989   7.715   3.826   5.357  1.0792 -1.9752  2.0823
   91MOL    H1028990   7.888   3.836   5.366  1.7624 -1.0386 -3.1023
   91MOL    H1128991   7.711   3.835   5.115 -0.3851 -2.3193 -0.6508
   91MOL    H1228992   8.082   3.827   5.229 -0.6344 -0.5027  0.1691
   91MOL    H1328993   0.143   3.943   5.114  0.2402  0.8295  2.1420
   91MOL    H1428994   0.092   4.104   4.922  0.0375 -0.1742 -0.9864
   91MOL    H1528995   7.979   4.111   4.833  0.6969  2.3055  1.5582
   91MOL    H1628996   7.809   3.949   4.921 -0.6841 -1.6349  2.3537
   91MOL    H1728997   7.778   3.974   5.307 -1.6013 -0.6200 -0.2296
   91MOL    C1828998   7.827   3.654   5.156 -0.7036  0.2133  0.5497
   91MOL    C1928999   7.841   3.590   5.017  0.4412 -0.7164  0.3486
   91MOL    C2029000   7.865   3.440   5.022 -0.5081 -0.3849 -0.2162
   91MOL    C2129001   7.766   3.354   5.074  0.2680  0.8174 -0.1124
   91MOL    C2229002   7.792   3.214   5.063  0.0661 -0.0900  0.2336
   91MOL    C2329003   7.913   3.161   5.015 -0.5402  0.0932  0.4623
   91MOL    C2429004   8.011   3.250   4.972  0.2516  0.2253 -0.1169
   91MOL    C2529005   7.988   3.389   4.982  0.8370  0.2280 -0.0163
   91MOL    H2629006   7.741   3.609   5.207 -2.6614 -1.6620 -4.1187
   91MOL    H2729007   7.916   3.624   5.210  2.6247  2.9502 -3.1856
   91MOL    H2829008   7.932   3.629   4.971 -0.6485  2.3763  0.6839
   91MOL    H2929009   7.674   3.389   5.117 -1.2972 -0.6601 -2.1597
   91MOL    H3029010   7.718   3.148   5.106 -0.9310  0.0562 -1.2270
   91MOL    H3129011   7.931   3.055   5.014  0.8960  0.3162  1.3395
   91MOL    H3229012   8.095   3.203   4.923 -0.3336 -1.3719  0.3706
   91MOL    H3329013   8.065   3.455   4.943 -0.0836  1.6364  0.5077
   91MOL    C3429014   7.725   3.626   4.924  0.4976 -0.0924 -0.2673
   91MOL    C3529015   7.726   3.562   4.784  0.1219 -0.8003  0.3833
   91MOL    C3629016   7.590   3.580   4.714  0.4980  0.2338 -0.7896
   91MOL    C3729017   7.514   3.468   4.668 -0.3794  0.1277  0.2799
   91MOL    C3829018   7.394   3.495   4.592 -0.0121 -0.0570  0.1979
   91MOL    C3929019   7.355   3.630   4.568 -0.0503 -0.1493  0.5975
   91MOL    C4029020   7.429   3.744   4.613  0.1866  0.3614  0.1090
   91MOL    C4129021   7.545   3.709   4.686  0.6169  0.1510 -0.3438
   91MOL    H4229022   7.707   3.733   4.913 -3.3410 -0.7402 -1.0421
   91MOL    H4329023   7.634   3.581   4.965  0.8618  0.3664  1.0866
   91MOL    H4429024   7.736   3.454   4.796  0.4507 -1.0081 -1.5642
   91MOL    H4529025   7.552   3.368   4.683  0.1832  0.3895  0.6179
   91MOL    H4629026   7.342   3.409   4.555 -1.3566  0.6426  0.4268
   91MOL    H4729027   7.271   3.637   4.500  0.0630  2.7255  0.6720
   91MOL    H4829028   7.396   3.845   4.591  1.7850  1.4705  2.6518
   91MOL    H4929029   7.609   3.784   4.731  1.1931 -2.2069  3.0002
   91MOL    C5029030   7.844   3.620   4.710  0.3347  0.3783 -0.0833
   91MOL    C5129031   7.872   3.534   4.580 -0.4870 -0.8207  0.2084
   91MOL    C5229032   7.930   3.618   4.464  0.1689 -0.3435 -0.6122
   91MOL    C5329033   8.062   3.669   4.467 -0.0269 -0.3027 -0.1389
   91MOL    C5429034   0.008   3.722   4.353  0.6999 -0.2063 -0.0657
   91MOL    C5529035   8.050   3.743   4.233  0.4606  0.3529  0.2335
   91MOL    C5629036   7.920   3.686   4.221 -0.2828 -0.0653 -0.6624
   91MOL    C5729037   7.860   3.626   4.339 -0.1614 -0.2062 -0.6287
   91MOL    H5829038   7.936   3.618   4.769 -0.9863 -0.3010  2.0008
   91MOL    H5929039   7.816   3.724   4.690 -1.7420 -0.3220 -0.9311
   91MOL    H6029040   7.776   3.507   4.536  0.3606  0.2070 -2.3680
   91MOL    H6129041   0.010   3.662   4.554 -0.1522 -2.0729 -0.1692
   91MOL    H6229042   0.109   3.759   4.365  0.1341  0.9946  1.1318
   91MOL    H6329043   8.090   3.798   4.149 -1.0100  0.3865 -0.4722
   91MOL    H6429044   7.862   3.705   4.132 -2.4402 -0.8730  0.5404
   91MOL    H6529045   7.754   3.609   4.340 -0.6023  2.2842  1.9578
   91MOL    C6629046   7.955   3.402   4.609  0.1557  0.1726  0.5299
   91MOL    C6729047   8.000   3.316   4.490  0.4735 -0.3232 -0.4852
   91MOL    C6829048   0.009   3.238   4.521  0.5762 -1.0221  0.5604
   91MOL    C6929049   0.009   3.145   4.627  0.7561 -0.4247 -0.4510
   91MOL    C7029050   0.124   3.062   4.636 -0.2733  0.4375  0.2862
   91MOL    C7129051   0.236   3.083   4.556 -0.0930  0.0951 -0.5232
   91MOL    C7229052   0.243   3.188   4.467  0.0285 -0.2204 -0.2205
   91MOL    C7329053   0.126   3.260   4.446  0.4430  0.6837  0.6444
   91MOL    H7429054   7.909   3.339   4.685 -1.5068  1.1566  0.3575
   91MOL    H7529055   8.049   3.441   4.649  0.5229  0.7779 -0.8768
   91MOL    H7629056   8.045   3.374   4.409 -2.0390  1.2798 -0.7797
   91MOL    H7729057   8.041   3.149   4.696  1.3949  0.8151  0.2712
   91MOL    H7829058   0.120   2.974   4.699  1.3437  0.9230  1.0860
   91MOL    H7929059   0.322   3.019   4.562 -0.8830 -0.7768  2.1479
   91MOL    H8029060   0.334   3.202   4.411 -1.7168  1.0697 -2.8225
   91MOL    H8129061   0.124   3.337   4.370  0.2236 -0.5972 -0.6594
   91MOL    C8229062   7.893   3.230   4.426 -0.3619 -0.4348  0.4195
   91MOL    C8329063   7.934   3.190   4.279 -0.6775  0.8444  0.3874
   91MOL    C8429064   7.868   3.058   4.242  0.2987 -0.5573  0.0259
   91MOL    C8529065   7.941   2.945   4.201  0.5038 -0.2598 -0.3804
   91MOL    C8629066   7.882   2.824   4.158  0.5246 -0.2697 -0.1576
   91MOL    C8729067   7.739   2.815   4.163 -0.3312  0.0561 -0.3413
   91MOL    C8829068   7.663   2.926   4.200  0.2253  0.3783  0.5779
   91MOL    C8929069   7.728   3.048   4.246  0.7625  0.4828 -0.4298
   91MOL    H9029070   7.798   3.283   4.422 -0.8585 -1.4291 -1.8997
   91MOL    H9129071   7.882   3.144   4.493 -0.3471 -0.5814  0.2347
   91MOL    H9229072   8.041   3.174   4.279 -0.5544  1.5629 -0.8415
   91MOL    H9329073   8.049   2.947   4.188  0.9324  0.0074  2.7415
   91MOL    H9429074   7.946   2.743   4.128  1.1935 -0.7324  2.3936
   91MOL    H9529075   7.687   2.723   4.139  2.3095 -1.0744 -1.8591
   91MOL    H9629076   7.556   2.921   4.201  0.3340 -2.7732  2.5715
   91MOL    H9729077   7.674   3.133   4.285  0.9233 -0.8535  2.8283
   91MOL    C9829078   7.902   3.291   4.173 -0.1262  0.2874  0.6778
   91MOL    C9929079   7.979   3.285   4.035 -0.3938 -0.5009 -0.2251
   91MOL   C10029080   7.878   3.314   3.921 -0.5087 -0.0009  1.1368
   91MOL   C10129081   7.865   3.209   3.823  0.2759 -0.3942  0.4222
   91MOL   C10229082   7.810   3.238   3.696  0.1243 -0.1914 -0.5402
   91MOL   C10329083   7.756   3.366   3.673 -0.6860 -0.1105 -0.1441
   91MOL   C10429084   7.756   3.465   3.773 -0.0947  0.2573 -0.1241
   91MOL   C10529085   7.820   3.441   3.895 -0.5914  0.6627  0.7504
   91MOL   H10629086   7.922   3.393   4.207 -1.4170  0.7327  0.1699
   91MOL   H10729087   7.795   3.289   4.152  0.1258 -1.2364 -0.5405
   91MOL   H10829088   8.008   3.181   4.027 -0.0825 -0.2930 -1.8668
   91MOL   H10929089   7.898   3.107   3.840  3.7416  0.4974 -0.4708
   91MOL   H11029090   7.799   3.167   3.615 -1.8963 -0.0015 -0.4713
   91MOL   H11129091   7.706   3.381   3.578  1.2718 -0.3662 -1.2455
   91MOL   H11229092   7.704   3.557   3.753  0.4553  0.0811 -2.5379
   91MOL   H11329093   7.840   3.522   3.964 -2.7532  0.7613  1.2792
   91MOL   C11429094   8.108   3.373   4.027 -0.2566 -0.2819  0.6756
   91MOL   C11529095   0.097   3.317   3.919 -0.4356  0.1255  0.1368
   91MOL   C11629096   0.139   3.171   3.956  0.3186  0.0475 -0.3358
   91MOL   C11729097   0.240   3.152   4.050 -0.0791 -0.7847  0.1669
   91MOL   C11829098   0.289   3.022   4.074 -0.3795  0.0858 -0.5837
   91MOL   C11929099   0.235   2.912   4.010  1.0174 -0.1829 -0.4682
   91MOL   C12029100   0.139   2.927   3.909  0.6599 -0.3097  0.0211
   91MOL   C12129101   0.096   3.061   3.882 -0.1215  0.1542  0.4872
   91MOL   H12229102   0.040   3.390   4.124  0.0622  1.2133  0.2700
   91MOL   H12329103   8.078   3.473   3.996 -1.9620 -0.8719  0.3581
   91MOL   H12429104   0.187   3.366   3.955  0.2821 -0.5432 -0.7034
   91MOL   H12529105   0.267   3.233   4.116 -2.6893 -0.0144  0.3376
   91MOL   H12629106   0.357   3.003   4.156  2.3381 -1.1158 -3.0108
   91MOL   H12729107   0.274   2.812   4.027 -0.6935 -0.9415 -0.8777
   91MOL   H12829108   0.103   2.845   3.850 -1.3342  0.3968  0.2235
   91MOL   H12929109   0.020   3.069   3.805  0.3088  0.5085  0.0948
   91MOL   C13029110   0.076   3.362   3.775  0.0930 -0.4931 -0.1863
   91MOL   C13129111   0.197   3.443   3.709  0.3671 -0.1728  0.6529
   91MOL   C13229112   0.326   3.358   3.715  0.0987  0.3506 -0.3345
   91MOL   C13329113   0.328   3.231   3.650  0.1968 -0.0054 -0.0171
   91MOL   C13429114   0.449   3.161   3.654 -0.1154  0.0274 -0.0717
   91MOL   C13529115   0.559   3.207   3.728 -0.6084  0.3188 -0.4828
   91MOL   C13629116   0.557   3.335   3.788  0.1026 -0.7919 -0.1795
   91MOL   C13729117   0.441   3.414   3.780 -0.1255 -1.1282 -0.4553
   91MOL   H13829118   8.098   3.419   3.768 -0.3948 -1.3111 -0.4047
   91MOL   H13929119   0.058   3.275   3.712  0.0979 -0.4721 -0.2159
   91MOL   H14029120   0.208   3.530   3.774  1.7591 -0.2645  0.5518
   91MOL   H14129121   0.247   3.197   3.588 -0.1358  0.3420  0.2241
   91MOL   H14229122   0.458   3.064   3.607  0.7423 -0.7487  1.6458
   91MOL   H14329123   0.648   3.147   3.728  0.3743  1.7257  0.8239
   91MOL   H14429124   0.646   3.381   3.830 -0.8322 -0.9836  2.0717
   91MOL   H14529125   0.443   3.517   3.811 -0.1033 -1.5635  1.0390
   91MOL   C14629126   0.161   3.487   3.567 -0.6744 -0.1416 -0.1330
   91MOL   C14729127   0.274   3.543   3.482 -0.5186 -0.4304 -0.3858
   91MOL   C14829128   0.231   3.585   3.346  0.4364 -0.2517  0.0225
   91MOL   C14929129   0.095   3.583   3.309 -0.5089 -0.0603 -0.4452
   91MOL   C15029130   0.060   3.599   3.177 -0.5414  0.0583  0.3763
   91MOL   C15129131   0.161   3.622   3.082 -0.1840 -0.2404  0.5230
   91MOL   C15229132   0.297   3.629   3.111  1.0162  0.4616 -0.2920
   91MOL   C15329133   0.331   3.606   3.247  1.3780  0.3587  0.4015
   91MOL   H15429134   0.085   3.564   3.580 -1.5702 -1.2803  1.6103
   91MOL   H15529135   0.114   3.404   3.514 -0.1379 -1.2877  1.1665
   91MOL   H15629136   0.342   3.458   3.476 -1.7751 -1.5082  0.3526
   91MOL   H15729137   0.012   3.561   3.374 -1.7630  1.0982 -1.6479
   91MOL   H15829138   8.070   3.586   3.152 -1.0129  0.6578  1.9787
   91MOL   H15929139   0.133   3.627   2.978  0.0222 -0.9210  0.4309
   91MOL   H16029140   0.376   3.630   3.038 -0.9582 -0.3063 -2.5202
   91MOL   H16129141   0.439   3.605   3.255  1.3930  0.3121  0.1961
   91MOL   C16229142   0.363   3.648   3.552  0.3128  0.6940 -0.0984
   91MOL   C16329143   0.309   3.799   3.562  0.3904  0.6615  0.2449
   91MOL   C16429144   0.185   3.809   3.639 -0.1797  0.2222 -0.4234
   91MOL   C16529145   0.064   3.835   3.574 -0.4839  0.0237  0.3104
   91MOL   C16629146   8.057   3.848   3.647 -0.0749  0.1884  0.1231
   91MOL   C16729147   8.055   3.818   3.782  0.1493  1.0642  0.8540
   91MOL   C16829148   0.064   3.806   3.852  0.0401  0.7663  1.1719
   91MOL   C16929149   0.184   3.796   3.778 -0.0762 -0.5964  0.1715
   91MOL   H17029150   0.455   3.658   3.494  0.4801 -0.5441 -0.0563
   91MOL   H17129151   0.398   3.617   3.650 -0.9697 -0.8514 -0.1043
   91MOL   H17229152   0.295   3.835   3.460 -1.8654 -2.3736 -0.5922
   91MOL   H17329153   0.074   3.842   3.467  0.1631 -1.2023  0.2764
   91MOL   H17429154   7.968   3.864   3.587 -0.7160  1.8317  1.4779
   91MOL   H17529155   7.956   3.809   3.824  0.4092  3.0313  1.8966
   91MOL   H17629156   0.066   3.784   3.957 -1.2050 -0.4709  0.9481
   91MOL   H17729157   0.276   3.797   3.835  0.0731 -1.7686 -0.0380
   91MOL   C17829158   0.432   3.876   3.615  0.4296  0.6710 -0.4347
   91MOL   C17929159   0.406   4.021   3.662 -0.0400  0.7581 -1.1527
   91MOL   C18029160   0.531   4.080   3.733  0.2555  0.6423 -0.5116
   91MOL   C18129161   0.612   4.189   3.691  0.1477 -0.2862 -0.1689
   91MOL   C18229162   0.727   4.233   3.763 -0.2409  0.0411  1.1440
   91MOL   C18329163   0.764   4.174   3.884 -0.7656  0.6105  0.7908
   91MOL   C18429164   0.694   4.052   3.919  0.4973 -0.1234 -0.2853
   91MOL   C18529165   0.576   4.013   3.851 -0.0671 -0.1777 -0.2724
   91MOL   H18629166   0.514   3.868   3.543 -1.4557  0.9566 -2.6840
   91MOL   H18729167   0.470   3.816   3.698  0.3748  0.8714 -0.2640
   91MOL   H18829168   0.331   4.009   3.739  1.2299 -0.1174 -0.0364
   91MOL   H18929169   0.575   4.241   3.605 -0.1194 -0.9620 -0.4679
   91MOL   H19029170   0.773   4.320   3.719  1.4443 -0.7936  1.2124
   91MOL   H19129171   0.841   4.206   3.952 -0.2427 -0.0389  0.5126
   91MOL   H19229172   0.714   4.017   4.020  0.4832 -2.0184 -0.9309
   91MOL   H19329173   0.516   3.933   3.893 -1.7720  1.3256  0.2170
   91MOL   C19429174   0.352   4.115   3.544 -0.2396  0.0613 -0.2533
   91MOL   C19529175   0.299   4.252   3.589  0.3478 -0.1258  0.1659
   91MOL   C19629176   0.290   4.353   3.476  0.2417 -0.1888  0.0963
   91MOL   C19729177   0.242   4.314   3.348 -0.0592  0.2672  0.0678
   91MOL   C19829178   0.223   4.416   3.250 -0.2624  0.8537 -0.3408
   91MOL   C19929179   0.258   4.550   3.277 -0.3344 -0.6144 -0.0248
   91MOL   C20029180   0.324   4.585   3.397 -0.7414 -0.0359 -0.5690
   91MOL   C20129181   0.337   4.487   3.500  0.4348 -0.5297  0.5832
   91MOL   H20229182   0.270   4.066   3.491 -0.3333  1.5764 -1.5581
   91MOL   H20329183   0.431   4.125   3.470  0.3707 -0.2910  0.3506
   91MOL   H20429184   0.365   4.309   3.654  0.0757  1.4193 -0.8714
   91MOL   H20529185   0.213   4.215   3.318 -0.4928  1.1540 -2.5883
   91MOL   H20629186   0.187   4.381   3.154 -1.9529  0.8393  0.2905
   91MOL   H20729187   0.233   4.618   3.196  0.4127 -1.6933 -1.1705
   91MOL   H20829188   0.352   4.689   3.406 -1.3076 -0.0607  1.8174
   91MOL   H20929189   0.373   4.521   3.596  1.7124 -0.8002  0.2063
   91MOL   C21029190   0.159   4.232   3.659 -0.7349 -0.2593  0.4008
   91MOL   C21129191   0.105   4.348   3.729  0.3988 -0.1906 -0.0865
   91MOL   C21229192   8.089   4.403   3.659  0.1409  0.6618  0.4452
   91MOL   C21329193   7.962   4.339   3.678 -0.6390 -0.2318  0.2217
   91MOL   C21429194   7.850   4.381   3.607 -0.9816  0.9165  0.1596
   91MOL   C21529195   7.859   4.487   3.507 -0.4454 -0.1918  0.5019
   91MOL   C21629196   7.979   4.557   3.496  0.0324  0.4798  0.4444
   91MOL   C21729197   8.094   4.514   3.566  0.5401 -0.1555  0.4938
   91MOL   H21829198   0.176   4.155   3.734  1.4422  0.2206  0.4359
   91MOL   H21929199   0.095   4.187   3.583 -1.1890  0.4405  0.3652
   91MOL   H22029200   0.181   4.427   3.733  1.2363 -1.1132  3.8942
   91MOL   H22129201   7.943   4.261   3.750 -0.0715 -0.6349 -0.0627
   91MOL   H22229202   7.750   4.340   3.616 -0.3528 -0.7376 -0.1706
   91MOL   H22329203   7.776   4.511   3.443 -0.6301 -0.6717  0.5563
   91MOL   H22429204   7.995   4.633   3.421  1.7732 -1.6670 -1.4281
   91MOL   H22529205   0.079   4.547   3.542 -0.6332  1.6485 -2.0835
   91MOL   C22629206   0.071   4.314   3.877 -0.2179 -0.0737 -0.3622
   91MOL   C22729207   0.191   4.290   3.977  0.4747 -0.1992  0.1670
   91MOL   C22829208   0.278   4.412   3.968 -0.8991  0.2097  0.2277
   91MOL   C22929209   0.238   4.534   4.018  0.1509 -0.0661  0.1656
   91MOL   C23029210   0.328   4.641   4.011  0.5422 -0.4684  0.1512
   91MOL   C23129211   0.446   4.635   3.941 -0.9247 -0.2245  0.0298
   91MOL   C23229212   0.484   4.511   3.885 -0.3963 -0.0711 -0.5842
   91MOL   C23329213   0.401   4.399   3.900  0.5187  0.7254  0.7166
   91MOL   H23429214   0.008   4.225   3.878  0.2453 -0.4154  2.2474
   91MOL   H23529215   0.013   4.392   3.927  2.0820 -0.2117  2.6564
   91MOL   H23629216   0.247   4.204   3.940  0.4084 -0.0580 -0.2733
   91MOL   H23729217   0.137   4.545   4.055  0.0733  1.3529 -0.4455
   91MOL   H23829218   0.282   4.734   4.039 -0.2780 -0.7147 -0.3707
   91MOL   H23929219   0.500   4.726   3.918  0.0773  0.1374  3.4194
   91MOL   H24029220   0.572   4.508   3.823 -0.5756 -1.3706 -0.7967
   91MOL   H24129221   0.446   4.304   3.875 -0.9626 -0.2003  1.5178
   91MOL   C24229222   0.148   4.234   4.114  0.3790 -0.1945  0.3024
   91MOL   C24329223   0.257   4.233   4.229  0.1570 -0.3429  0.4488
   91MOL   C24429224   0.204   4.194   4.363  1.0001  0.3250 -0.3072
   91MOL   C24529225   0.229   4.274   4.470 -0.4686  0.4416 -0.5283
   91MOL   C24629226   0.186   4.237   4.601  0.5748 -0.3252 -0.2458
   91MOL   C24729227   0.104   4.117   4.613 -0.1773 -0.1647  0.0767
   91MOL   C24829228   0.083   4.038   4.498  0.0356 -0.5935 -0.5853
   91MOL   C24929229   0.139   4.070   4.375 -0.5647  0.6413 -0.5886
   91MOL   H25029230   0.115   4.130   4.105 -0.3094  0.1935 -1.8539
   91MOL   H25129231   0.054   4.282   4.143  0.1768 -0.0957 -0.5162
   91MOL   H25229232   0.304   4.331   4.237  2.5055 -1.1282 -2.6676
   91MOL   H25329233   0.275   4.368   4.443 -0.3550  0.3989 -0.4850
   91MOL   H25429234   0.220   4.303   4.680  1.7562 -0.5636 -0.5394
   91MOL   H25529235   0.055   4.084   4.703 -0.1540 -1.0175 -0.2128
   91MOL   H25629236   0.032   3.947   4.524  0.1570 -0.7963 -1.0454
   91MOL   H25729237   0.132   4.004   4.289 -2.7410 -0.5002  0.4164
   91MOL   C25829238   0.378   4.140   4.189  0.0589 -0.0260 -0.2704
   91MOL   C25929239   0.504   4.148   4.279 -0.3111 -0.2680  0.0142
   91MOL   C26029240   0.549   4.291   4.309  0.4043 -0.1568  0.4631
   91MOL   C26129241   0.538   4.351   4.436  0.4167 -0.9529  0.2015
   91MOL   C26229242   0.565   4.490   4.456  0.2689  0.3029 -0.3081
   91MOL   C26329243   0.612   4.562   4.349  0.0169  0.4280  0.3714
   91MOL   C26429244   0.621   4.512   4.219 -0.7849  0.2503 -0.3462
   91MOL   C26529245   0.584   4.373   4.202 -0.3763  0.2014  0.4205
   91MOL   H26629246   0.410   4.167   4.088 -2.7627  0.4987 -1.0664
   91MOL   H26729247   0.347   4.037   4.175  1.2161 -0.2103 -1.6539
   91MOL   H26829248   0.579   4.112   4.209  2.8316  2.1085  1.9867
   91MOL   H26929249   0.518   4.294   4.526  0.1171  0.3278  0.9589
   91MOL   H27029250   0.553   4.519   4.559 -1.3144 -0.3491 -0.2870
   91MOL   H27129251   0.658   4.660   4.356  0.1957  0.2989  1.0178
   91MOL   H27229252   0.650   4.559   4.127  0.8710 -0.4759 -0.2110
   91MOL   H27329253   0.602   4.342   4.100  0.3486  3.1615 -0.4233
   91MOL   C27429254   0.518   4.050   4.403  0.5041 -0.0968 -0.9539
   91MOL   C27529255   0.461   3.910   4.398 -0.0367  0.0074  0.3741
   91MOL   C27629256   0.516   3.827   4.279  0.3565  0.2233 -0.2302
   91MOL   C27729257   0.428   3.777   4.177  0.2437 -0.4754  0.2159
   91MOL   C27829258   0.476   3.690   4.078  0.1910  0.2371  0.7704
   91MOL   C27929259   0.618   3.652   4.083  0.0487 -0.2477 -0.1863
   91MOL   C28029260   0.707   3.707   4.175  0.0356 -0.6346  0.3604
   91MOL   C28129261   0.652   3.794   4.272 -0.5287  0.1221 -0.0944
   91MOL   H28229262   0.467   4.095   4.488 -0.4547 -1.0755 -0.9958
   91MOL   H28329263   0.624   4.037   4.420  0.4011  0.1712 -0.0794
   91MOL   H28429264   0.356   3.926   4.375 -0.0079  1.9388  1.4980
   91MOL   H28529265   0.331   3.823   4.175  1.0221  1.1744 -1.2146
   91MOL   H28629266   0.403   3.658   4.005  0.6509  2.3501 -0.6671
   91MOL   H28729267   0.653   3.582   4.009 -0.8710 -0.5981 -0.3009
   91MOL   H28829268   0.812   3.684   4.172 -0.0298 -1.1729  1.8336
   91MOL   H28929269   0.713   3.834   4.351 -3.3573  3.7621  0.3362
   91MOL   C29029270   0.465   3.827   4.530 -0.1959  0.2839 -0.9775
   91MOL   C29129271   0.398   3.676   4.532 -0.3625 -0.4588  0.4054
   91MOL   C29229272   0.490   3.574   4.464  0.2710 -0.0514  0.0248
   91MOL   C29329273   0.614   3.535   4.524  0.2808 -0.5810 -0.1953
   91MOL   C29429274   0.706   3.444   4.467 -0.4995 -0.1334 -0.4691
   91MOL   C29529275   0.654   3.380   4.349 -0.0455 -0.0106  0.6380
   91MOL   C29629276   0.528   3.405   4.287  0.1748 -0.0688  0.1717
   91MOL   C29729277   0.450   3.511   4.345 -0.5277  0.6476 -0.9185
   91MOL   H29829278   0.419   3.890   4.606 -0.9919  0.1413 -1.3334
   91MOL   H29929279   0.566   3.816   4.570 -0.0788 -0.4346 -1.4633
   91MOL   H30029280   0.309   3.689   4.470 -0.4558 -2.8496 -0.0132
   91MOL   H30129281   0.647   3.568   4.621  2.4019 -0.5079 -0.9022
   91MOL   H30229282   0.805   3.422   4.503 -1.0972 -0.6350  0.9170
   91MOL   H30329283   0.709   3.301   4.301 -1.1764  0.7018 -1.9351
   91MOL   H30429284   0.500   3.372   4.188 -0.1498  0.1672  0.1834
   91MOL   H30529285   0.362   3.551   4.297 -1.8181 -0.0594  0.8249
   91MOL   C30629286   0.347   3.628   4.669 -0.2291 -0.0493  0.0868
   91MOL   C30729287   0.295   3.484   4.671  0.6040  0.0441 -0.0781
   91MOL   C30829288   0.267   3.433   4.809 -0.4352 -0.6576 -0.4678
   91MOL   C30929289   0.295   3.301   4.835  0.0102 -0.0704 -0.2879
   91MOL   C31029290   0.299   3.260   4.970 -0.4452  0.2213 -1.1307
   91MOL   C31129291   0.245   3.334   5.079  0.1071 -0.2886 -0.3889
   91MOL   C31229292   0.215   3.468   5.050 -0.2590  0.4012  0.1130
   91MOL   C31329293   0.222   3.516   4.916  0.5997  0.5464 -0.4796
   91MOL   H31429294   0.269   3.692   4.711  0.1130  0.6976 -0.4093
   91MOL   H31529295   0.430   3.629   4.739 -0.7833  1.5948  0.7323
   91MOL   H31629296   0.364   3.418   4.619  2.0017  2.7114 -1.7218
   91MOL   H31729297   0.323   3.244   4.748  1.2711 -0.8024  0.5721
   91MOL   H31829298   0.325   3.158   4.993 -1.8061  0.1469  0.2006
   91MOL   H31929299   0.254   3.295   5.179  0.1215 -0.1539 -0.3379
   91MOL   H32029300   0.189   3.543   5.124  1.5108  0.9708  0.1821
   91MOL   H32129301   0.197   3.620   4.906  1.7107  0.9570  0.7933
   91MOL   H32229302   0.200   3.477   4.618  1.1670 -1.0608 -0.9764
   92MOL     C129303   6.326   3.563   0.233  0.7252 -0.1329  0.2312
   92MOL     C229304   6.234   3.517   0.119 -0.9261 -0.3970  1.2003
   92MOL     C329305   6.251   3.596   8.101  0.9240 -0.4094 -0.4266
   92MOL     C429306   6.153   3.579   7.998 -0.0904  0.2588  0.1797
   92MOL     C529307   6.178   3.642   7.874  0.5078  0.1304  0.3312
   92MOL     C629308   6.283   3.733   7.856  0.2281 -0.0500  0.5620
   92MOL     C729309   6.378   3.747   7.961 -0.7736  0.9953 -0.2813
   92MOL     C829310   6.364   3.682   8.085  0.2127  0.8922 -0.5096
   92MOL     H929311   6.302   3.511   0.325 -0.6592  0.8108  0.4262
   92MOL    H1029312   6.430   3.547   0.206  0.6682 -3.0413  1.5322
   92MOL    H1129313   6.134   3.541   0.156 -1.4444  0.9614 -0.9479
   92MOL    H1229314   6.071   3.513   8.023  0.1634  0.7338  2.4435
   92MOL    H1329315   6.112   3.629   7.790  1.3077 -0.0197 -0.2829
   92MOL    H1429316   6.287   3.779   7.759 -1.2902  0.7996  0.8804
   92MOL    H1529317   6.462   3.815   7.953  0.7278 -0.8738 -0.7596
   92MOL    H1629318   6.435   3.703   0.048 -1.1751  0.7507  0.8077
   92MOL    H1729319   6.304   3.668   0.250  1.9326  0.4922 -1.8115
   92MOL    C1829320   6.248   3.361   0.104  0.2269 -0.6893 -1.0060
   92MOL    C1929321   6.195   3.277   0.219 -0.5837 -0.5702 -0.0403
   92MOL    C2029322   6.058   3.323   0.272  0.5710 -1.3227 -0.7079
   92MOL    C2129323   6.031   3.334   0.410  0.0535  0.2355  0.0726
   92MOL    C2229324   5.906   3.368   0.463  0.3700  0.1602 -0.6701
   92MOL    C2329325   5.801   3.402   0.380 -0.7188 -0.7337 -0.3879
   92MOL    C2429326   5.823   3.402   0.239 -0.2937 -0.2658 -0.3583
   92MOL    C2529327   5.952   3.362   0.187  0.0499 -0.8456  0.9933
   92MOL    H2629328   6.354   3.336   0.100  0.4424 -0.6533  2.7620
   92MOL    H2729329   6.194   3.338   0.012 -2.0852  0.0037  0.1606
   92MOL    H2829330   6.262   3.291   0.303  0.9224 -1.0019 -1.1464
   92MOL    H2929331   6.113   3.314   0.477  0.0174  1.5958  0.5428
   92MOL    H3029332   5.899   3.367   0.570 -1.0898 -1.7357 -0.7560
   92MOL    H3129333   5.705   3.429   0.422 -1.3399  0.4829 -2.5241
   92MOL    H3229334   5.749   3.436   0.169 -0.3509 -0.0157 -0.1785
   92MOL    H3329335   5.975   3.362   0.081 -0.2045  1.2632  0.9257
   92MOL    C3429336   6.191   3.122   0.183  0.2823  0.2657 -0.5840
   92MOL    C3529337   6.109   3.020   0.275 -0.3739  0.2498  0.1032
   92MOL    C3629338   6.076   2.894   0.200 -0.0308 -0.1814 -0.2305
   92MOL    C3729339   5.944   2.840   0.205  0.0471  0.6555 -0.2312
   92MOL    C3829340   5.907   2.718   0.147 -0.5829  0.0749  0.1991
   92MOL    C3929341   6.005   2.654   0.066 -0.6588  0.7573 -0.3448
   92MOL    C4029342   6.137   2.708   0.060 -0.2335 -0.2582  0.0836
   92MOL    C4129343   6.176   2.819   0.131 -0.3732 -0.1856 -0.3253
   92MOL    H4229344   6.290   3.078   0.185  0.2390  0.1687 -0.5823
   92MOL    H4329345   6.146   3.115   0.083  0.3383  1.0350 -0.6681
   92MOL    H4429346   6.016   3.070   0.302 -2.2175 -3.1143  0.2317
   92MOL    H4529347   5.859   2.887   0.252 -0.4521 -0.1916 -0.2645
   92MOL    H4629348   5.809   2.674   0.150  0.0756 -1.4036  0.2225
   92MOL    H4729349   5.983   2.562   0.014  0.3939  0.3698 -0.1037
   92MOL    H4829350   6.207   2.657   8.110 -0.2117  0.3547 -0.3818
   92MOL    H4929351   6.279   2.851   0.138 -0.2827 -0.2379 -1.4353
   92MOL    C5029352   6.184   2.994   0.415 -0.2369  0.0815 -0.3677
   92MOL    C5129353   6.137   2.875   0.497  0.3284  0.2446  0.0017
   92MOL    C5229354   6.238   2.830   0.605 -0.5723  0.3899  0.4524
   92MOL    C5329355   6.293   2.918   0.699  0.2347 -0.1650 -0.0284
   92MOL    C5429356   6.378   2.871   0.808  0.0131  0.0370  0.6566
   92MOL    C5529357   6.404   2.737   0.815 -0.5349 -0.5772  0.5009
   92MOL    C5629358   6.343   2.644   0.726  0.5058  0.6039 -0.3635
   92MOL    C5729359   6.260   2.687   0.619  0.1994  1.1052  0.3874
   92MOL    H5829360   6.178   3.083   0.478 -3.1962  0.8816 -1.6941
   92MOL    H5929361   6.292   2.983   0.404 -0.3091  0.1917 -1.2871
   92MOL    H6029362   6.138   2.789   0.430  0.3564 -0.1594  0.5247
   92MOL    H6129363   6.272   3.024   0.701  0.4837 -0.1297  1.0601
   92MOL    H6229364   6.421   2.941   0.878  1.6961 -0.3156 -0.0190
   92MOL    H6329365   6.472   2.707   0.894  1.2827  1.4418 -0.2497
   92MOL    H6429366   6.366   2.539   0.740  0.7429  1.1746  3.9514
   92MOL    H6529367   6.223   2.608   0.555  0.9728  0.4448  0.7342
   92MOL    C6629368   5.995   2.911   0.565 -0.6040 -0.0907 -1.0044
   92MOL    C6729369   5.924   2.792   0.629  0.1515 -0.3058  0.0446
   92MOL    C6829370   5.794   2.823   0.697  0.3841  0.7276 -0.2709
   92MOL    C6929371   5.683   2.870   0.624 -0.2048  0.1115  0.2753
   92MOL    C7029372   5.561   2.898   0.683  0.1710  1.0181 -0.7378
   92MOL    C7129373   5.549   2.886   0.825 -0.0001 -0.0191 -0.4461
   92MOL    C7229374   5.657   2.850   0.903  0.6897 -0.6029 -0.4851
   92MOL    C7329375   5.780   2.820   0.838  0.0389  0.0629  1.6778
   92MOL    H7429376   5.914   2.939   0.497 -1.7098 -2.2248 -0.6187
   92MOL    H7529377   6.005   3.002   0.624 -1.6458 -0.2597 -0.5381
   92MOL    H7629378   5.991   2.761   0.709 -1.3695  2.2701  2.4075
   92MOL    H7729379   5.688   2.877   0.516 -1.7737  0.9891  0.2338
   92MOL    H7829380   5.473   2.925   0.627 -0.5556 -1.2785 -0.7383
   92MOL    H7929381   5.459   2.912   0.878 -0.0539 -0.6467 -0.2232
   92MOL    H8029382   5.647   2.837   1.010  1.2367 -2.2554 -0.6166
   92MOL    H8129383   5.858   2.781   0.902 -0.9328 -0.6306  2.4557
   92MOL    C8229384   5.900   2.672   0.529 -0.0291 -0.6982  0.2999
   92MOL    C8329385   5.850   2.540   0.594  0.0229 -0.9430  0.0757
   92MOL    C8429386   5.808   2.443   0.478 -0.2325 -0.6872  0.2129
   92MOL    C8529387   5.669   2.411   0.464  0.1034 -0.1338 -0.0670
   92MOL    C8629388   5.612   2.332   0.363  0.1316  0.1408  0.4188
   92MOL    C8729389   5.699   2.299   0.249 -0.2316 -0.6068 -1.1661
   92MOL    C8829390   5.835   2.335   0.260 -0.4760  0.6552 -0.4093
   92MOL    C8929391   5.891   2.407   0.374  0.4071 -0.9022 -0.3512
   92MOL    H9029392   5.990   2.649   0.472  0.9368 -1.1510  1.9795
   92MOL    H9129393   5.833   2.712   0.453 -0.5441 -0.2046  0.9990
   92MOL    H9229394   5.759   2.554   0.653  1.0056 -0.2318  1.4572
   92MOL    H9329395   5.602   2.442   0.543  2.2790 -0.6407  2.0652
   92MOL    H9429396   5.510   2.297   0.366 -0.4096  1.6546 -0.0792
   92MOL    H9529397   5.657   2.253   0.162 -0.7784  0.0231 -1.2441
   92MOL    H9629398   5.899   2.307   0.178 -0.9318 -0.7301 -0.2945
   92MOL    H9729399   5.995   2.435   0.378  0.1306  0.1478 -0.3518
   92MOL    C9829400   5.952   2.489   0.693  0.4425  0.2242  0.2400
   92MOL    C9929401   5.932   2.346   0.749 -0.1260  0.0512 -0.5058
   92MOL   C10029402   6.058   2.303   0.831  0.5488 -0.0273 -0.5828
   92MOL   C10129403   6.163   2.251   0.760  0.5223 -0.3582 -0.1520
   92MOL   C10229404   6.275   2.206   0.832 -1.0283 -0.6730  0.3123
   92MOL   C10329405   6.275   2.206   0.976  0.4558  0.7233  0.0329
   92MOL   C10429406   6.168   2.267   1.046 -0.1414  0.4360  0.5780
   92MOL   C10529407   6.058   2.313   0.971  0.7376  0.4134  0.0351
   92MOL   H10629408   5.965   2.559   0.776  1.4954  0.4460 -0.1013
   92MOL   H10729409   6.047   2.486   0.639  1.1420  0.9831  1.4190
   92MOL   H10829410   5.935   2.285   0.660  0.0333 -0.4970 -0.1267
   92MOL   H10929411   6.164   2.228   0.655  0.5203 -1.6191  0.1168
   92MOL   H11029412   6.354   2.163   0.772 -0.4617 -0.8549  1.1885
   92MOL   H11129413   6.354   2.156   1.031  0.0754  0.2507  0.1502
   92MOL   H11229414   6.168   2.278   1.153 -3.5392  0.4093  0.6284
   92MOL   H11329415   5.979   2.365   1.023 -1.7361 -0.3492 -2.8539
   92MOL   C11429416   5.801   2.321   0.824 -0.9088 -0.1386 -0.1543
   92MOL   C11529417   5.761   2.174   0.846  0.7918 -0.1136  0.6330
   92MOL   C11629418   5.689   2.151   0.980  0.0496 -0.0523 -0.7466
   92MOL   C11729419   5.554   2.189   0.996 -0.6241 -0.4527 -0.3042
   92MOL   C11829420   5.502   2.190   1.121 -0.1899  0.1268 -0.1135
   92MOL   C11929421   5.579   2.159   1.232  0.1081 -0.5131 -0.3349
   92MOL   C12029422   5.712   2.117   1.220 -1.2056  0.1984  0.5175
   92MOL   C12129423   5.766   2.109   1.093 -0.0996  0.1351 -0.1523
   92MOL   H12229424   5.720   2.360   0.762 -1.8534 -0.3726  0.9119
   92MOL   H12329425   5.798   2.377   0.917  1.2299 -1.9894  1.0844
   92MOL   H12429426   5.858   2.126   0.857 -0.5576 -2.7196  1.3653
   92MOL   H12529427   5.500   2.218   0.907  0.9718 -0.6656 -1.3499
   92MOL   H12629428   5.398   2.212   1.140 -0.6220 -1.0477 -1.0663
   92MOL   H12729429   5.532   2.155   1.330  1.2144  3.3188  0.4094
   92MOL   H12829430   5.764   2.098   1.313  2.7322  1.3128 -1.3448
   92MOL   H12929431   5.871   2.084   1.097 -0.7101 -3.0340 -1.9913
   92MOL   C13029432   5.696   2.095   0.733 -0.3121 -0.2731 -0.9903
   92MOL   C13129433   5.778   2.032   0.625  0.3492 -0.6587 -0.2245
   92MOL   C13229434   5.884   1.942   0.680  0.2011 -0.6738  0.3441
   92MOL   C13329435   6.010   1.967   0.637 -0.0214 -0.9983 -0.4559
   92MOL   C13429436   6.117   1.914   0.707 -0.6355 -0.4603  0.6119
   92MOL   C13529437   6.101   1.827   0.813 -0.7471  0.5151 -0.2930
   92MOL   C13629438   5.972   1.805   0.862  0.2331  0.4282  0.0825
   92MOL   C13729439   5.862   1.861   0.795 -0.2249  0.1079  0.8493
   92MOL   H13829440   5.614   2.154   0.693  0.2335  1.8118  0.8577
   92MOL   H13929441   5.650   2.011   0.783  0.5094  0.4794  1.0647
   92MOL   H14029442   5.818   2.119   0.572 -0.6333  0.3601  0.6830
   92MOL   H14129443   6.025   2.045   0.564 -1.0590  0.8689  1.2855
   92MOL   H14229444   6.219   1.944   0.689 -0.5604 -0.2319  1.4140
   92MOL   H14329445   6.186   1.786   0.866 -0.2835 -1.7611 -2.6803
   92MOL   H14429446   5.948   1.745   0.948 -0.5585  0.4557 -0.1122
   92MOL   H14529447   5.762   1.840   0.831 -0.5884  0.1568 -0.1261
   92MOL   C14629448   5.681   1.963   0.518  0.2518  0.0331 -0.0364
   92MOL   C14729449   5.744   1.875   0.407  0.1083 -0.1279  0.3715
   92MOL   C14829450   5.633   1.805   0.331 -0.4039  0.9999 -0.2325
   92MOL   C14929451   5.528   1.874   0.268 -0.4657 -0.3090 -0.0515
   92MOL   C15029452   5.420   1.807   0.194 -0.1277 -0.4093  0.0056
   92MOL   C15129453   5.409   1.669   0.205 -0.5784  0.2462  0.1778
   92MOL   C15229454   5.518   1.602   0.264  0.0669 -0.4079  0.3826
   92MOL   C15329455   5.624   1.665   0.328 -0.9151 -0.3862  0.3557
   92MOL   H15429456   5.614   2.037   0.476  0.2634  0.2710  0.3614
   92MOL   H15529457   5.617   1.896   0.576  1.3539  1.3402  2.7385
   92MOL   H15629458   5.817   1.803   0.445  3.2109  1.3932 -2.4356
   92MOL   H15729459   5.533   1.982   0.263 -0.5687 -0.1907  1.8885
   92MOL   H15829460   5.349   1.872   0.146  0.4800  0.4353  0.2411
   92MOL   H15929461   5.329   1.618   0.153 -0.2881  0.3018 -0.3339
   92MOL   H16029462   5.529   1.495   0.254  2.1807  0.0584 -2.9565
   92MOL   H16129463   5.693   1.601   0.383  2.2123  2.8323  0.3962
   92MOL   C16229464   5.823   1.963   0.316 -1.1002  0.0811  0.0207
   92MOL   C16329465   5.926   1.881   0.227 -0.3593 -0.3627 -0.1106
   92MOL   C16429466   5.962   1.965   0.100 -0.5229  0.4672  0.3172
   92MOL   C16529467   5.948   1.918   8.083  0.0363 -0.3295  0.5576
   92MOL   C16629468   5.987   2.001   7.976 -0.0761 -0.0407  0.1920
   92MOL   C16729469   6.059   2.121   7.996  0.3890  0.4262 -0.6550
   92MOL   C16829470   6.080   2.164   0.010  0.5393 -0.2080  0.4869
   92MOL   C16929471   6.029   2.087   0.118 -0.5685 -0.2349  0.8840
   92MOL   H17029472   5.879   2.036   0.374 -1.9280  0.1578  0.7324
   92MOL   H17129473   5.749   2.023   0.263  0.3854  0.1207 -2.0828
   92MOL   H17229474   5.879   1.790   0.190  0.2574 -0.7816  0.1392
   92MOL   H17329475   5.907   1.819   8.071  3.2375 -1.4892 -1.3932
   92MOL   H17429476   5.977   1.958   7.877  2.0300  1.7510 -0.8357
   92MOL   H17529477   6.108   2.175   7.917  1.6142  1.2876  0.6654
   92MOL   H17629478   6.141   2.249   0.035  0.0076  1.0208 -2.2370
   92MOL   H17729479   6.059   2.130   0.213 -0.2067 -1.0252  1.1308
   92MOL   C17829480   6.052   1.847   0.313  0.5358  0.0992  0.4451
   92MOL   C17929481   6.139   1.732   0.254 -0.0855 -0.4045 -0.5332
   92MOL   C18029482   6.292   1.756   0.270  0.2341 -0.3122  0.9128
   92MOL   C18129483   6.342   1.797   0.394 -0.0789  0.3915  0.0311
   92MOL   C18229484   6.481   1.828   0.406 -0.7405 -0.2469  0.6489
   92MOL   C18329485   6.563   1.822   0.293 -0.2840  0.3872 -0.4250
   92MOL   C18429486   6.508   1.774   0.175  0.1043 -0.1477 -0.0717
   92MOL   C18529487   6.378   1.735   0.162  0.5838  0.3707  0.2959
   92MOL   H18629488   6.029   1.808   0.412 -1.1633 -0.0024  0.0300
   92MOL   H18729489   6.103   1.940   0.338 -0.9356  1.4752 -1.4333
   92MOL   H18829490   6.118   1.744   0.148 -0.0902  0.1365 -0.4762
   92MOL   H18929491   6.285   1.810   0.484  0.8261 -1.6448  0.9374
   92MOL   H19029492   6.533   1.852   0.498 -0.6514  0.3787  0.4380
   92MOL   H19129493   6.669   1.845   0.293 -0.6209  1.9968 -0.0902
   92MOL   H19229494   6.562   1.760   0.083 -1.3500 -1.8841 -0.7014
   92MOL   H19329495   6.332   1.699   0.072 -0.1452 -0.1947  0.8866
   92MOL   C19429496   6.116   1.589   0.307 -0.5714 -0.3602 -0.0320
   92MOL   C19529497   5.987   1.528   0.249  0.0551 -0.1681 -0.1340
   92MOL   C19629498   5.977   1.536   0.093 -0.1726 -0.4421 -0.2564
   92MOL   C19729499   5.859   1.567   0.039 -0.0352  0.6528  0.2205
   92MOL   C19829500   5.845   1.565   8.013 -0.2863  0.5410 -0.1845
   92MOL   C19929501   5.955   1.540   7.929  0.2412 -0.4278  0.6730
   92MOL   C20029502   6.076   1.503   7.987 -0.2541  0.1794  0.0550
   92MOL   C20129503   6.088   1.504   0.015 -0.2207 -0.0801 -0.5138
   92MOL   H20229504   6.112   1.584   0.416 -1.6618  0.6151 -0.0194
   92MOL   H20329505   6.203   1.529   0.283 -0.5216 -0.8462  1.3343
   92MOL   H20429506   5.893   1.569   0.285 -0.0416  0.2370 -0.8468
   92MOL   H20529507   5.769   1.590   0.095  0.1054 -0.2073  0.8011
   92MOL   H20629508   5.756   1.603   7.965 -1.6029 -0.0242  1.7357
   92MOL   H20729509   5.942   1.545   7.822 -1.5178 -1.2782  0.8136
   92MOL   H20829510   6.161   1.478   7.926 -1.1263 -1.7530 -0.4305
   92MOL   H20929511   6.185   1.478   0.056 -0.8218  0.8262  1.5536
   92MOL   C21029512   5.969   1.379   0.274  0.1720 -0.2625  0.7273
   92MOL   C21129513   5.963   1.329   0.422  0.1454  0.7287 -0.8570
   92MOL   C21229514   5.845   1.377   0.499 -0.0853 -0.3052  0.2420
   92MOL   C21329515   5.721   1.327   0.452 -1.0662 -0.1197  0.2049
   92MOL   C21429516   5.602   1.371   0.517  0.5800  0.2861  0.1905
   92MOL   C21529517   5.614   1.454   0.634  1.1395 -0.1750  0.6597
   92MOL   C21629518   5.736   1.505   0.672 -0.9612 -0.0949 -0.0281
   92MOL   C21729519   5.852   1.463   0.607 -0.5732  0.3946 -0.6617
   92MOL   H21829520   6.051   1.339   0.214 -0.1576 -1.0743  0.7991
   92MOL   H21929521   5.882   1.337   0.222 -1.7426  4.6144 -0.3124
   92MOL   H22029522   6.052   1.366   0.473  0.1482  0.4044 -0.6212
   92MOL   H22129523   5.717   1.258   0.368 -3.6175 -0.6751  0.7304
   92MOL   H22229524   5.514   1.327   0.472 -0.8810  2.6023  0.7422
   92MOL   H22329525   5.528   1.480   0.694  0.5374  1.0028 -0.6574
   92MOL   H22429526   5.746   1.570   0.757  1.4831 -1.0399  0.4510
   92MOL   H22529527   5.946   1.500   0.646 -0.6356  0.0039 -0.1375
   92MOL   C22629528   5.975   1.173   0.431  0.2099  0.3650  0.1780
   92MOL   C22729529   6.118   1.099   0.424  1.1312  0.0367 -0.1349
   92MOL   C22829530   6.097   0.954   0.443  0.2594  0.0019 -0.2580
   92MOL   C22929531   6.053   0.874   0.337 -0.8557  0.5919  0.1220
   92MOL   C23029532   6.057   0.731   0.351  0.6690  0.7629  0.8449
   92MOL   C23129533   6.099   0.672   0.467  0.6076 -0.5583 -0.4561
   92MOL   C23229534   6.144   0.753   0.573 -0.2693 -0.1601  0.0529
   92MOL   C23329535   6.149   0.894   0.559  0.2297  0.4469 -0.5808
   92MOL   H23429536   5.912   1.139   0.349  2.0270  1.1037 -1.5800
   92MOL   H23529537   5.910   1.133   0.509 -2.7711  1.7983 -1.5013
   92MOL   H23629538   6.187   1.131   0.502  2.7264 -0.6405 -1.2354
   92MOL   H23729539   6.025   0.919   0.243 -0.6483  2.3113  0.8670
   92MOL   H23829540   6.014   0.677   0.268  0.6180 -0.1294  1.4415
   92MOL   H23929541   6.089   0.566   0.486  1.7303 -0.9201 -1.7920
   92MOL   H24029542   6.177   0.707   0.665 -0.1303  1.8510  1.0411
   92MOL   H24129543   6.193   0.956   0.635 -1.6340  0.2648  0.6912
   92MOL   C24229544   6.199   1.142   0.296 -0.3282  0.0206 -0.0531
   92MOL   C24329545   6.337   1.075   0.266  0.2972 -0.4178  0.6459
   92MOL   C24429546   6.404   1.161   0.159  0.1045  0.1130  0.1847
   92MOL   C24529547   6.432   1.295   0.193  0.2492  0.2049 -0.1825
   92MOL   C24629548   6.495   1.373   0.089 -0.0518  0.2503 -0.2162
   92MOL   C24729549   6.524   1.328   8.076  0.0167  0.0473  0.4084
   92MOL   C24829550   6.488   1.198   8.044 -0.3398  0.0388 -0.4882
   92MOL   C24929551   6.437   1.108   0.031  0.0173  0.0111  0.4470
   92MOL   H25029552   6.220   1.241   0.336  0.7295 -1.1989  2.5406
   92MOL   H25129553   6.132   1.143   0.210 -0.7802  0.2643  0.2973
   92MOL   H25229554   6.315   0.986   0.207 -0.2362  1.4932 -2.1468
   92MOL   H25329555   6.410   1.326   0.294  1.8857  0.0518  0.2381
   92MOL   H25429556   6.537   1.469   0.116  1.7092 -0.6201  0.1917
   92MOL   H25529557   6.584   1.379   8.002 -1.3184 -0.2756 -0.9467
   92MOL   H25629558   6.484   1.161   7.943 -0.9123 -1.4810  0.0766
   92MOL   H25729559   6.417   1.006   0.004 -1.1300  0.6366 -1.1772
   92MOL   C25829560   6.430   1.052   0.392  0.3992 -0.4901  0.2493
   92MOL   C25929561   6.526   0.936   0.393  0.8747  0.0397  0.2658
   92MOL   C26029562   6.621   0.959   0.510 -0.2064 -0.5362  0.4334
   92MOL   C26129563   6.742   1.032   0.496 -0.6429  0.7870  0.3013
   92MOL   C26229564   6.823   1.060   0.604  0.5306  0.1804 -0.0624
   92MOL   C26329565   6.784   1.021   0.734 -0.2123 -0.1318  0.0449
   92MOL   C26429566   6.670   0.950   0.749  0.9216  0.0513  0.3991
   92MOL   C26529567   6.588   0.925   0.641  0.0245  0.0833  0.0279
   92MOL   H26629568   6.375   1.049   0.486  3.1109  3.0738  2.0564
   92MOL   H26729569   6.501   1.134   0.399  1.1642 -1.2333  1.3739
   92MOL   H26829570   6.595   0.952   0.310  1.2807 -0.7386  0.4509
   92MOL   H26929571   6.767   1.064   0.396  0.3267  1.2125  0.6787
   92MOL   H27029572   6.911   1.120   0.585 -0.3094  1.1942 -0.8217
   92MOL   H27129573   6.855   1.042   0.813  0.2690  3.3506 -1.2563
   92MOL   H27229574   6.639   0.915   0.846 -0.6799 -0.3300 -0.2285
   92MOL   H27329575   6.493   0.874   0.651 -0.4367  0.8955 -0.2183
   92MOL   C27429576   6.468   0.796   0.386  0.1956  0.3425  0.3608
   92MOL   C27529577   6.572   0.675   0.405 -0.1284 -0.0753  0.0537
   92MOL   C27629578   6.502   0.534   0.413  0.6738 -0.4104  0.0523
   92MOL   C27729579   6.406   0.508   0.314  0.2181  0.0920 -0.3610
   92MOL   C27829580   6.342   0.382   0.313 -0.2751  0.0531  0.1124
   92MOL   C27929581   6.373   0.299   0.416  0.2229  0.7750  0.0493
   92MOL   C28029582   6.460   0.327   0.527  0.1543 -0.0262  0.3962
   92MOL   C28129583   6.526   0.447   0.523 -0.5799 -0.2043  0.3085
   92MOL   H28229584   6.419   0.783   0.290  2.7212  1.1293 -1.0880
   92MOL   H28329585   6.385   0.785   0.456  0.7269  2.8059  1.4143
   92MOL   H28429586   6.625   0.694   0.498  1.9146  0.2771 -1.1334
   92MOL   H28529587   6.393   0.581   0.236 -0.0653  0.6358  0.1923
   92MOL   H28629588   6.286   0.358   0.224  1.1119  0.8608 -1.0004
   92MOL   H28729589   6.328   0.201   0.424  0.3756  0.7391  0.4519
   92MOL   H28829590   6.474   0.262   0.612  0.0114 -0.6147 -0.0258
   92MOL   H28929591   6.601   0.469   0.598 -1.0776  0.0715  0.7279
   92MOL   C29029592   6.684   0.679   0.305  0.0655 -0.1800 -0.7640
   92MOL   C29129593   6.783   0.571   0.323  0.3073  0.1524 -0.7364
   92MOL   C29229594   6.875   0.574   0.202 -0.7704 -0.0240  0.8279
   92MOL   C29329595   6.993   0.647   0.187 -0.0269 -0.0827  0.2176
   92MOL   C29429596   7.076   0.639   0.078  1.1078 -0.8000 -0.0259
   92MOL   C29529597   7.043   0.557   8.084 -0.1601  0.1227  0.5467
   92MOL   C29629598   6.927   0.482   8.087  0.9158 -0.7930 -0.5954
   92MOL   C29729599   6.842   0.494   0.088 -0.1756  0.1296 -0.2204
   92MOL   H29829600   6.746   0.767   0.318 -1.2468  0.6433  0.0712
   92MOL   H29929601   6.638   0.679   0.206  0.3201 -0.1790 -0.8825
   92MOL   H30029602   6.741   0.471   0.331 -0.0496 -0.0457 -4.1585
   92MOL   H30129603   7.018   0.719   0.263  1.1450  0.1623 -0.3740
   92MOL   H30229604   7.166   0.698   0.072 -0.3327  1.4966  0.0083
   92MOL   H30329605   7.102   0.556   7.994 -2.2345  0.4350 -0.8679
   92MOL   H30429606   6.899   0.432   7.996 -1.4248 -0.2000 -0.2605
   92MOL   H30529607   6.751   0.436   0.085  0.6907 -1.4751  2.6249
   92MOL   C30629608   6.867   0.575   0.458  0.2514  0.4318 -0.0878
   92MOL   C30729609   6.964   0.462   0.474  0.4851 -0.2125  0.3169
   92MOL   C30829610   7.061   0.487   0.590  0.2154 -0.4966 -0.5015
   92MOL   C30929611   7.172   0.574   0.575  1.1479 -0.6139 -0.0229
   92MOL   C31029612   7.264   0.593   0.678 -0.2231 -0.5779  0.4642
   92MOL   C31129613   7.239   0.539   0.803 -0.3996  0.2526  0.4707
   92MOL   C31229614   7.126   0.459   0.825  0.1640 -0.5127 -0.0469
   92MOL   C31329615   7.044   0.423   0.715  0.4541 -0.0703 -0.2786
   92MOL   H31429616   6.806   0.586   0.548  3.1349  1.9579  1.7359
   92MOL   H31529617   6.921   0.669   0.462  0.5855  0.2299  0.0717
   92MOL   H31629618   7.024   0.447   0.384 -0.2612 -0.8346 -0.0806
   92MOL   H31729619   7.191   0.623   0.481 -0.2830 -0.4023 -0.2071
   92MOL   H31829620   7.358   0.644   0.662 -1.3520  1.4141  0.0979
   92MOL   H31929621   7.309   0.557   0.883 -2.0373  2.2558  1.4940
   92MOL   H32029622   7.105   0.410   0.919 -0.6154  2.1174  1.2054
   92MOL   H32129623   6.956   0.365   0.740  0.4293 -0.1747 -0.6113
   92MOL   H32229624   6.906   0.374   0.501  2.8699 -1.7851  0.4857
   93MOL     C129625   6.525   3.783   2.469 -0.1259  0.4232 -0.5000
   93MOL     C229626   6.420   3.731   2.360 -1.1384  0.1438  0.1830
   93MOL     C329627   6.438   3.592   2.313 -1.1758 -0.2116  0.7083
   93MOL     C429628   6.371   3.485   2.376  0.7235  0.4480 -0.3482
   93MOL     C529629   6.371   3.356   2.318 -0.1586  0.1362 -0.2092
   93MOL     C629630   6.451   3.331   2.202 -0.9094 -0.2218 -0.0624
   93MOL     C729631   6.533   3.428   2.145 -1.1241  0.3188 -0.6234
   93MOL     C829632   6.521   3.559   2.199  0.2201 -0.0143 -0.3082
   93MOL     H929633   6.496   3.882   2.504  0.1699 -0.3623  2.1088
   93MOL    H1029634   6.543   3.716   2.553  2.6123 -0.1346 -1.4671
   93MOL    H1129635   6.448   3.788   2.271  0.0122 -1.1444 -0.3077
   93MOL    H1229636   6.315   3.502   2.466  0.6777  1.0666 -0.4903
   93MOL    H1329637   6.305   3.286   2.367  0.1204  0.5038  0.7061
   93MOL    H1429638   6.434   3.234   2.158 -4.0067  0.9080 -1.5364
   93MOL    H1529639   6.598   3.406   2.061  1.1518  4.6850 -0.1269
   93MOL    H1629640   6.576   3.636   2.146  2.4955 -1.1464  0.3522
   93MOL    H1729641   6.619   3.797   2.416 -0.1017  1.1914 -0.2655
   93MOL    C1829642   6.270   3.762   2.389 -1.0490 -0.0721 -0.3901
   93MOL    C1929643   6.230   3.910   2.380 -0.1863 -0.3485 -0.2334
   93MOL    C2029644   6.267   3.965   2.242 -0.1977  0.5308 -0.7278
   93MOL    C2129645   6.190   3.924   2.137  0.2834  0.1409 -0.2854
   93MOL    C2229646   6.229   3.970   2.009 -0.5796  0.7073 -0.3167
   93MOL    C2329647   6.350   4.042   1.987  0.0787  0.0908 -0.4423
   93MOL    C2429648   6.441   4.071   2.098 -0.1429  0.5641  0.2155
   93MOL    C2529649   6.387   4.037   2.228 -0.2979  0.0813  0.3000
   93MOL    H2629650   6.257   3.723   2.490  1.0641  0.5044  0.1333
   93MOL    H2729651   6.201   3.707   2.324  2.4240 -2.8358 -1.9179
   93MOL    H2829652   6.277   3.966   2.461 -0.8476 -0.3651  0.1674
   93MOL    H2929653   6.109   3.854   2.151 -0.5835  1.4096  1.1184
   93MOL    H3029654   6.171   3.935   1.924  1.4760 -0.4654 -1.2705
   93MOL    H3129655   6.380   4.070   1.887  0.0912  1.3857 -0.0841
   93MOL    H3229656   6.544   4.099   2.085  0.3950 -1.3793  0.1227
   93MOL    H3329657   6.452   4.040   2.314  1.4289  0.0641 -0.9802
   93MOL    C3429658   6.078   3.927   2.414  0.0417  0.2129  0.0082
   93MOL    C3529659   6.016   4.050   2.482  0.8374 -0.7883 -0.2303
   93MOL    C3629660   6.023   4.047   2.639 -0.5618 -0.1157 -0.3001
   93MOL    C3729661   5.928   4.121   2.704  0.2078  1.2654 -1.0805
   93MOL    C3829662   5.926   4.108   2.843  0.3212  0.3758 -0.6063
   93MOL    C3929663   6.013   4.023   2.916 -0.6397 -0.1106  0.5559
   93MOL    C4029664   6.119   3.959   2.854 -0.3096 -0.4881  0.2850
   93MOL    C4129665   6.122   3.967   2.711  0.2291  0.2652  0.4183
   93MOL    H4229666   6.049   3.846   2.481 -1.5751 -0.9274 -2.0189
   93MOL    H4329667   6.019   3.888   2.331  1.2922 -0.1675 -0.7221
   93MOL    H4429668   5.910   4.057   2.457  0.6659 -0.7594  0.4879
   93MOL    H4529669   5.843   4.169   2.658 -1.3251  2.1993  2.5492
   93MOL    H4629670   5.848   4.153   2.903 -0.5734 -2.7390  0.6910
   93MOL    H4729671   6.000   4.018   3.023 -1.3412 -0.7051  0.4476
   93MOL    H4829672   6.183   3.891   2.908  0.4040  1.8679  2.5083
   93MOL    H4929673   6.189   3.899   2.660 -0.1801 -0.1102  0.3859
   93MOL    C5029674   6.083   4.177   2.432  0.3962  0.2487  0.6704
   93MOL    C5129675   6.016   4.245   2.311  0.0239 -0.1640 -1.0096
   93MOL    C5229676   5.878   4.298   2.349  0.1577 -0.1036 -0.0535
   93MOL    C5329677   5.869   4.424   2.411  0.6371 -0.4661  0.1472
   93MOL    C5429678   5.739   4.477   2.432 -0.7601 -0.6379 -0.2803
   93MOL    C5529679   5.622   4.416   2.404 -0.1062 -0.2213  0.0131
   93MOL    C5629680   5.633   4.281   2.356  0.2787 -0.6840  0.0379
   93MOL    C5729681   5.757   4.230   2.320 -0.1459 -0.0214  0.5118
   93MOL    H5829682   6.189   4.166   2.408  0.3331  0.8803  0.0840
   93MOL    H5929683   6.082   4.247   2.516  0.6491 -1.4159  2.0836
   93MOL    H6029684   5.990   4.165   2.241 -0.0761 -1.3106  0.3221
   93MOL    H6129685   5.952   4.487   2.439 -0.2984  0.0215  1.8759
   93MOL    H6229686   5.740   4.579   2.466 -2.7621 -0.4278 -0.7751
   93MOL    H6329687   5.528   4.467   2.421  0.4664  1.5508 -1.8581
   93MOL    H6429688   5.547   4.218   2.337  1.2686 -0.9916 -4.0014
   93MOL    H6529689   5.764   4.125   2.297  2.4234 -0.4940  3.1625
   93MOL    C6629690   6.094   4.357   2.231 -0.7630  0.8263  0.0931
   93MOL    C6729691   6.036   4.397   2.091 -0.6392  0.1999 -0.0518
   93MOL    C6829692   6.080   4.542   2.052  0.3656  0.9080  0.0009
   93MOL    C6929693   6.207   4.571   2.003  0.3884 -0.1173 -0.9718
   93MOL    C7029694   6.245   4.697   1.964 -0.6117  0.0636  0.1813
   93MOL    C7129695   6.154   4.803   1.982  0.0920  0.0636 -0.4707
   93MOL    C7229696   6.029   4.779   2.023 -0.2328  0.4511 -0.3879
   93MOL    C7329697   5.986   4.645   2.059  0.6485 -0.3547 -0.7285
   93MOL    H7429698   6.197   4.325   2.215 -1.5415 -1.7484 -0.1132
   93MOL    H7529699   6.096   4.449   2.289  1.9665  1.1369 -0.4145
   93MOL    H7629700   5.927   4.400   2.096 -0.7941 -1.8086 -1.5246
   93MOL    H7729701   6.275   4.488   1.995  2.3028  1.1488  1.4615
   93MOL    H7829702   6.340   4.715   1.917 -0.0792  0.2918  1.3309
   93MOL    H7929703   6.180   4.896   1.933  0.2208  0.2444 -0.0599
   93MOL    H8029704   5.956   4.858   2.035  0.8013  1.1865  1.2676
   93MOL    H8129705   5.883   4.626   2.086  0.9359 -1.7063 -0.5584
   93MOL    C8229706   6.063   4.292   1.982 -0.1947 -0.2232 -1.0059
   93MOL    C8329707   6.015   4.318   1.836 -0.7787 -0.3006  0.3861
   93MOL    C8429708   6.104   4.243   1.737  0.5875 -1.3733  0.6660
   93MOL    C8529709   6.226   4.313   1.703 -0.5197  0.3050 -0.0164
   93MOL    C8629710   6.331   4.252   1.624 -0.7631 -0.5107  1.0115
   93MOL    C8729711   6.298   4.126   1.564 -0.4628 -0.8991  0.8086
   93MOL    C8829712   6.175   4.062   1.593  0.5454  0.4844  0.1949
   93MOL    C8929713   6.083   4.119   1.680  0.1252  0.0246  0.2280
   93MOL    H9029714   6.028   4.193   2.011  1.3854 -1.0927 -1.9674
   93MOL    H9129715   6.172   4.286   1.981  0.0955  3.1104  1.1793
   93MOL    H9229716   6.037   4.423   1.820  0.0110 -0.0414  2.8648
   93MOL    H9329717   6.241   4.410   1.748 -0.8833  0.7746 -0.8923
   93MOL    H9429718   6.426   4.298   1.603 -0.0939 -2.7400 -1.1615
   93MOL    H9529719   6.375   4.072   1.510 -0.1514  0.4118 -0.0824
   93MOL    H9629720   6.153   3.964   1.554 -0.4464  0.9115 -0.3550
   93MOL    H9729721   5.986   4.070   1.687  0.1453  0.0532  0.7077
   93MOL    C9829722   5.874   4.307   1.811 -0.2437 -0.4404 -0.0667
   93MOL    C9929723   5.825   4.368   1.678 -0.6207 -0.1809 -0.5339
   93MOL   C10029724   5.692   4.310   1.632  0.0921  0.9514  0.0895
   93MOL   C10129725   5.564   4.350   1.681 -0.2667 -0.4979  0.2231
   93MOL   C10229726   5.448   4.282   1.640 -0.5827 -0.5526  0.1023
   93MOL   C10329727   5.459   4.171   1.546  0.1107 -0.1430 -1.1536
   93MOL   C10429728   5.586   4.121   1.513 -0.1867 -0.1143 -0.3802
   93MOL   C10529729   5.699   4.197   1.550 -0.1045  0.9006 -0.5290
   93MOL   H10629730   5.816   4.355   1.890 -0.4865  2.1300 -1.7505
   93MOL   H10729731   5.845   4.202   1.817 -0.4348 -0.3931 -0.1853
   93MOL   H10829732   5.900   4.338   1.605 -1.1617  0.5451 -1.4030
   93MOL   H10929733   5.554   4.430   1.753 -0.1305  0.1562 -0.4741
   93MOL   H11029734   5.358   4.329   1.676 -0.5042  0.3101 -0.8015
   93MOL   H11129735   5.376   4.119   1.501  1.1535 -1.7807 -1.2450
   93MOL   H11229736   5.599   4.033   1.452  2.3001  1.0602 -1.5874
   93MOL   H11329737   5.792   4.162   1.509 -0.9008 -0.6090 -1.0835
   93MOL   C11429738   5.829   4.524   1.673  0.9504  0.1238 -0.0895
   93MOL   C11529739   5.854   4.577   1.531  0.0698 -0.9234  0.5018
   93MOL   C11629740   5.818   4.723   1.535  0.1563  0.0872 -0.2514
   93MOL   C11729741   5.700   4.769   1.472 -0.8132 -0.1977 -0.0812
   93MOL   C11829742   5.663   4.905   1.482  0.6496  0.6539 -0.2304
   93MOL   C11929743   5.742   4.999   1.554 -0.8786  0.4048 -0.1141
   93MOL   C12029744   5.855   4.948   1.623 -0.0929  0.2179 -0.4061
   93MOL   C12129745   5.895   4.811   1.616  0.0972 -0.1687  0.4220
   93MOL   H12229746   5.903   4.570   1.737  0.2677  0.5682  0.3833
   93MOL   H12329747   5.729   4.551   1.706  0.5139 -1.8242  0.2762
   93MOL   H12429748   5.786   4.524   1.465  1.7687 -0.9149 -1.2777
   93MOL   H12529749   5.640   4.699   1.416 -1.7166  0.7129 -0.2681
   93MOL   H12629750   5.577   4.926   1.420 -1.0924 -1.9449  1.2035
   93MOL   H12729751   5.706   5.100   1.562  0.7033  0.8460  1.7615
   93MOL   H12829752   5.917   5.021   1.672  0.3104  0.0988 -0.7318
   93MOL   H12929753   5.977   4.770   1.674  0.9566  1.2529  0.2343
   93MOL   C13029754   5.994   4.536   1.474  0.6246 -0.1887 -0.3146
   93MOL   C13129755   6.034   4.612   1.347  0.2664 -0.3495  0.1804
   93MOL   C13229756   6.190   4.623   1.344  0.0502 -0.8822  0.4268
   93MOL   C13329757   6.252   4.747   1.309  0.8361 -0.6165  0.1963
   93MOL   C13429758   6.388   4.767   1.323 -0.0334 -0.2623 -0.0268
   93MOL   C13529759   6.468   4.667   1.379 -0.0663 -0.1980 -1.3149
   93MOL   C13629760   6.415   4.542   1.406  0.0402 -0.1361 -0.9356
   93MOL   C13729761   6.277   4.521   1.380 -0.2346  0.5480 -0.1085
   93MOL   H13829762   6.013   4.430   1.457  0.2285 -0.0159 -1.9237
   93MOL   H13929763   6.058   4.551   1.561 -1.1078 -1.9308  1.3313
   93MOL   H14029764   5.993   4.713   1.347  1.1699  0.0420 -1.4868
   93MOL   H14129765   6.199   4.831   1.267  1.1296 -0.9577 -0.8743
   93MOL   H14229766   6.438   4.860   1.299 -0.6307 -0.1894 -1.0257
   93MOL   H14329767   6.570   4.697   1.399 -0.7169  0.2656  1.5025
   93MOL   H14429768   6.481   4.464   1.441 -1.4182  0.1880  2.7214
   93MOL   H14529769   6.237   4.422   1.391 -1.3163  0.9047 -0.7811
   93MOL   C14629770   5.992   4.534   1.216  0.3250 -0.2660  0.3838
   93MOL   C14729771   5.886   4.610   1.129  0.7116  0.1726  0.5453
   93MOL   C14829772   5.935   4.745   1.079  0.0689  0.1616 -0.2637
   93MOL   C14929773   6.047   4.746   0.988 -0.2323  0.2039 -0.3800
   93MOL   C15029774   6.089   4.868   0.931  0.1105  0.1758 -0.2575
   93MOL   C15129775   6.035   4.989   0.989 -0.2150 -0.1444 -0.1615
   93MOL   C15229776   5.930   4.986   1.083  0.3624  0.2083 -0.4681
   93MOL   C15329777   5.879   4.863   1.126  0.9798 -0.0746  0.4794
   93MOL   H15429778   5.947   4.437   1.239  1.1367 -0.4990  1.0060
   93MOL   H15529779   6.077   4.516   1.150 -0.6775 -1.5395 -0.5995
   93MOL   H15629780   5.792   4.633   1.179  0.8982 -0.5091  1.2160
   93MOL   H15729781   6.099   4.654   0.964 -1.6907 -1.1814  1.5939
   93MOL   H15829782   6.169   4.876   0.858  1.5411  0.8841  1.3331
   93MOL   H15929783   6.073   5.085   0.958  0.8499 -0.0755  1.2700
   93MOL   H16029784   5.897   5.077   1.130 -0.1409 -0.8885  1.3687
   93MOL   H16129785   5.797   4.873   1.197 -0.5388  0.6534 -1.3345
   93MOL   C16229786   5.827   4.519   1.011 -0.4957  0.0046  0.3016
   93MOL   C16329787   5.746   4.392   1.052 -0.4120  0.6251 -0.0679
   93MOL   C16429788   5.611   4.447   1.111  0.1482  0.0554  0.7871
   93MOL   C16529789   5.511   4.491   1.017  0.2732  0.2424 -0.3367
   93MOL   C16629790   5.393   4.532   1.078 -0.3378  0.7432 -0.6425
   93MOL   C16729791   5.368   4.526   1.215 -0.6009  0.2465  0.0222
   93MOL   C16829792   5.469   4.499   1.305 -0.8022 -0.4309 -0.6335
   93MOL   C16929793   5.592   4.462   1.250  0.1498  0.0957 -0.6913
   93MOL   H17029794   5.907   4.483   0.947 -1.3716 -0.3341 -0.6068
   93MOL   H17129795   5.770   4.581   0.943  0.5406 -1.0790 -1.6065
   93MOL   H17229796   5.790   4.333   1.133 -1.6790 -0.8157 -0.3844
   93MOL   H17329797   5.524   4.486   0.910  0.4318 -1.4641 -0.2513
   93MOL   H17429798   5.310   4.560   1.015 -0.2549  1.5386 -0.4099
   93MOL   H17529799   5.280   4.561   1.267  0.0400 -1.1237  2.0680
   93MOL   H17629800   5.473   4.513   1.412  2.1097  0.5320 -0.8426
   93MOL   H17729801   5.677   4.434   1.311 -0.4937  1.8815  1.0758
   93MOL   C17829802   5.727   4.292   0.938 -0.0504  0.2915 -0.1428
   93MOL   C17929803   5.854   4.207   0.895  0.4921 -0.2788 -0.2119
   93MOL   C18029804   5.969   4.194   0.998  0.0637  0.1424 -0.0600
   93MOL   C18129805   6.086   4.265   0.983 -0.3139 -1.0509  0.1211
   93MOL   C18229806   6.186   4.258   1.076 -0.0230 -0.8147 -0.8582
   93MOL   C18329807   6.167   4.194   1.206  0.2393  0.1059 -0.3319
   93MOL   C18429808   6.052   4.117   1.225  0.3414 -0.9529  0.1385
   93MOL   C18529809   5.953   4.118   1.125  0.0848 -0.1943  0.1502
   93MOL   H18629810   5.689   4.344   0.850 -0.1374  0.9906  0.3107
   93MOL   H18729811   5.653   4.216   0.967 -1.0605  1.3206  0.0120
   93MOL   H18829812   5.895   4.247   0.802 -1.8046 -1.4211 -1.7821
   93MOL   H18929813   6.109   4.306   0.886 -0.4408 -2.3269 -0.4632
   93MOL   H19029814   6.278   4.314   1.064  0.0278 -0.1748  2.1068
   93MOL   H19129815   6.248   4.201   1.276  0.0013  1.9133 -0.2291
   93MOL   H19229816   6.040   4.064   1.319  2.1123 -1.9192 -0.1534
   93MOL   H19329817   5.856   4.080   1.153  0.0276  0.5739  1.0401
   93MOL   C19429818   5.820   4.067   0.839 -0.3901 -0.4835  0.5091
   93MOL   C19529819   5.940   3.969   0.806  0.1607  0.2648  0.0149
   93MOL   C19629820   5.881   3.825   0.797 -0.7394 -0.2862  0.0464
   93MOL   C19729821   5.934   3.726   0.880  0.5035 -0.0915  0.3367
   93MOL   C19829822   5.891   3.593   0.865  0.1383  0.2863 -0.2618
   93MOL   C19929823   5.787   3.559   0.781  0.2260 -0.1263 -1.0463
   93MOL   C20029824   5.732   3.658   0.702 -0.4634  0.6884 -0.0183
   93MOL   C20129825   5.779   3.793   0.704 -0.5504  0.3538 -0.0595
   93MOL   H20229826   5.765   4.073   0.746  1.3074  0.7476 -0.4333
   93MOL   H20329827   5.750   4.024   0.911 -0.0448  0.7633  1.6067
   93MOL   H20429828   6.017   3.958   0.882 -1.5494 -1.3788  1.5482
   93MOL   H20529829   6.017   3.749   0.944  1.8997  1.8705 -2.0569
   93MOL   H20629830   5.930   3.514   0.927 -1.8176 -0.4311  0.0882
   93MOL   H20729831   5.747   3.459   0.783 -1.2388  0.4667  1.6458
   93MOL   H20829832   5.655   3.620   0.637  0.5801  0.2815 -1.0432
   93MOL   H20929833   5.736   3.857   0.628  0.5441  0.1118 -0.9129
   93MOL   C21029834   6.024   4.009   0.686 -1.2863  0.4963  0.6472
   93MOL   C21129835   6.137   3.913   0.651  0.3086  0.5985  0.2350
   93MOL   C21229836   6.117   3.876   0.503  0.3012  0.0769  0.5757
   93MOL   C21329837   6.162   3.965   0.404 -0.2340  1.3693  0.0724
   93MOL   C21429838   6.126   3.938   0.271  0.1145  0.0204  0.2486
   93MOL   C21529839   6.057   3.820   0.242  0.7888 -0.7277  0.2335
   93MOL   C21629840   6.016   3.727   0.338 -0.0292 -0.6107 -0.4986
   93MOL   C21729841   6.049   3.752   0.470  1.1848 -0.2074 -0.5116
   93MOL   H21829842   6.068   4.107   0.703  1.8691 -0.9796  1.4827
   93MOL   H21929843   5.960   4.022   0.599  2.3989 -2.1215 -2.6233
   93MOL   H22029844   6.132   3.815   0.698  0.4424 -0.2009 -1.3926
   93MOL   H22129845   6.214   4.054   0.434  0.8646  0.5594  0.6119
   93MOL   H22229846   6.157   4.013   0.199 -1.4707 -0.4489 -0.9438
   93MOL   H22329847   6.042   3.788   0.140 -1.7943  0.0057  0.3529
   93MOL   H22429848   5.969   3.633   0.312 -0.8207  0.2161 -2.1296
   93MOL   H22529849   6.012   3.695   0.555  1.1466 -0.9334 -1.0138
   93MOL   C22629850   6.278   3.963   0.684 -0.3091 -0.0967  0.3557
   93MOL   C22729851   6.327   3.984   0.829  0.5810  0.6950 -0.3339
   93MOL   C22829852   6.306   3.860   0.924  0.2194 -0.0862 -0.1708
   93MOL   C22929853   6.362   3.737   0.882  0.3220  0.3989 -0.2469
   93MOL   C23029854   6.341   3.619   0.961 -0.3708  0.4775  0.4849
   93MOL   C23129855   6.265   3.635   1.083 -0.5490 -0.7787 -0.2171
   93MOL   C23229856   6.219   3.760   1.128 -0.1764  1.1145 -1.0570
   93MOL   C23329857   6.228   3.866   1.042  0.1665 -0.1224 -0.6314
   93MOL   H23429858   6.297   4.057   0.632 -2.4131  0.3342  0.3075
   93MOL   H23529859   6.349   3.893   0.641 -1.3743  0.1741 -1.9488
   93MOL   H23629860   6.270   4.070   0.865  1.9499  0.2977  2.9025
   93MOL   H23729861   6.431   3.720   0.801  1.0111 -2.4188  0.8953
   93MOL   H23829862   6.385   3.526   0.930 -1.3834 -0.2659  1.2457
   93MOL   H23929863   6.246   3.551   1.149 -0.2097 -1.0129 -0.4161
   93MOL   H24029864   6.156   3.756   1.216  0.1200 -3.0245 -0.9348
   93MOL   H24129865   6.184   3.963   1.059  2.0747  1.2061 -2.9068
   93MOL   C24229866   6.476   4.029   0.822  0.9254 -0.3979 -0.0698
   93MOL   C24329867   6.517   4.156   0.744 -0.1230 -0.7282 -0.7970
   93MOL   C24429868   6.424   4.274   0.753  0.2894 -0.3085 -0.2869
   93MOL   C24529869   6.364   4.324   0.631 -0.4458 -0.2072 -0.9755
   93MOL   C24629870   6.291   4.445   0.643 -0.3162  0.5620  0.6440
   93MOL   C24729871   6.296   4.526   0.753 -0.0331  0.1880  0.0813
   93MOL   C24829872   6.366   4.482   0.866  0.3912  0.3457 -0.7173
   93MOL   C24929873   6.427   4.355   0.865  0.2284  1.0804 -0.0619
   93MOL   H25029874   6.539   3.954   0.774  2.2996  0.0672  0.9931
   93MOL   H25129875   6.508   4.030   0.926 -1.3912 -0.9554  0.6966
   93MOL   H25229876   6.516   4.125   0.639 -1.4753 -0.4617 -0.8618
   93MOL   H25329877   6.359   4.266   0.539  0.3446 -0.4689 -0.8593
   93MOL   H25429878   6.252   4.482   0.549 -0.4992  0.3636  0.6424
   93MOL   H25529879   6.271   4.631   0.750  2.5069  0.8107 -0.3138
   93MOL   H25629880   6.390   4.543   0.952 -2.8222  0.5607  0.0979
   93MOL   H25729881   6.486   4.331   0.953 -0.5707  1.8949  0.7159
   93MOL   C25829882   6.659   4.189   0.793 -0.3889 -0.2184  0.3697
   93MOL   C25929883   6.730   4.308   0.723 -0.1567 -0.6781  0.1310
   93MOL   C26029884   6.873   4.334   0.767 -0.4934  0.4042 -0.2596
   93MOL   C26129885   6.941   4.251   0.857 -0.4416 -0.3751  0.4878
   93MOL   C26229886   7.071   4.276   0.899 -0.5965  0.3399 -0.3564
   93MOL   C26329887   7.143   4.381   0.842  0.4911  0.2416 -0.6556
   93MOL   C26429888   7.081   4.482   0.758  0.0536 -0.4374  0.4339
   93MOL   C26529889   6.945   4.452   0.729 -0.2315  0.2577 -0.3098
   93MOL   H26629890   6.731   4.108   0.781 -0.7846 -0.8449  2.1160
   93MOL   H26729891   6.665   4.216   0.898 -0.1811 -0.6442  0.4699
   93MOL   H26829892   6.691   4.408   0.745  0.9923  0.1918 -1.6687
   93MOL   H26929893   6.893   4.165   0.901  3.0146 -3.1231 -0.9057
   93MOL   H27029894   7.123   4.211   0.968 -1.6455  0.3521  0.4651
   93MOL   H27129895   7.249   4.396   0.855  0.5360 -1.3237  0.9704
   93MOL   H27229896   7.134   4.557   0.700  1.5554  0.3883  2.8042
   93MOL   H27329897   6.894   4.519   0.661 -1.3062  0.0142  0.2487
   93MOL   C27429898   6.732   4.294   0.571 -0.5868  0.4193 -0.4508
   93MOL   C27529899   6.823   4.179   0.518  0.1464 -0.2736 -0.2406
   93MOL   C27629900   6.743   4.070   0.457 -0.2012 -0.3442 -0.0079
   93MOL   C27729901   6.758   3.943   0.514 -0.1544 -0.0410 -0.0993
   93MOL   C27829902   6.692   3.830   0.461 -0.1161  0.7627  0.4904
   93MOL   C27929903   6.594   3.847   0.360 -0.7670  0.1675 -0.0659
   93MOL   C28029904   6.567   3.975   0.305  0.7554  0.8574  0.3772
   93MOL   C28129905   6.648   4.083   0.349  0.3266 -0.5008  0.7043
   93MOL   H28229906   6.761   4.387   0.522  0.6857 -0.8531 -2.2056
   93MOL   H28329907   6.628   4.278   0.541 -1.3892  1.7062  1.5119
   93MOL   H28429908   6.876   4.138   0.604  1.4865  2.0418  0.0894
   93MOL   H28529909   6.827   3.921   0.594  0.0124  0.8570  0.0016
   93MOL   H28629910   6.709   3.733   0.505 -0.5334  1.0474  1.2780
   93MOL   H28729911   6.540   3.763   0.319 -0.8335 -0.8087  1.9666
   93MOL   H28829912   6.494   3.973   0.224 -0.5190 -1.5580  1.5065
   93MOL   H28929913   6.626   4.174   0.296  1.5720 -2.0968 -2.7447
   93MOL   C29029914   6.937   4.223   0.419  0.4222 -0.4143  0.0373
   93MOL   C29129915   7.064   4.119   0.406 -0.5950  0.0724  1.2106
   93MOL   C29229916   7.140   4.132   0.274 -0.4227  0.3775 -0.4360
   93MOL   C29329917   7.153   4.033   0.173 -0.2237 -0.6018 -0.0726
   93MOL   C29429918   7.247   4.055   0.069 -0.5043 -0.4782  0.0353
   93MOL   C29529919   7.321   4.174   0.055  0.5021 -0.4961 -0.2553
   93MOL   C29629920   7.303   4.271   0.154  0.5252  0.2706 -0.3496
   93MOL   C29729921   7.221   4.247   0.261  0.4561 -0.7134 -0.9788
   93MOL   H29829922   6.977   4.321   0.446 -2.3726  1.2837 -1.6825
   93MOL   H29929923   6.895   4.246   0.321 -0.2538  0.2947  0.4861
   93MOL   H30029924   7.026   4.018   0.391  0.0887  0.2464 -2.2068
   93MOL   H30129925   7.115   3.935   0.201  0.1916 -0.6477  0.3327
   93MOL   H30229926   7.267   3.966   0.010  2.0653  1.9486 -2.9217
   93MOL   H30329927   7.395   4.191   8.094 -0.8480  2.0965 -1.0453
   93MOL   H30429928   7.366   4.358   0.146 -0.7816  0.9195 -4.7732
   93MOL   H30529929   7.218   4.327   0.334  3.1995  0.1505 -1.7606
   93MOL   C30629930   7.154   4.116   0.532 -0.0336 -0.3297 -0.3447
   93MOL   C30729931   7.281   4.028   0.526  0.1259 -0.3930 -0.2614
   93MOL   C30829932   7.328   4.002   0.671  0.1072 -1.1667  0.0346
   93MOL   C30929933   7.420   4.093   0.732  0.3221  0.0715  0.2013
   93MOL   C31029934   7.479   4.062   0.851 -0.0783 -0.0563  0.0751
   93MOL   C31129935   7.448   3.940   0.913  0.4687 -0.1966 -0.1968
   93MOL   C31229936   7.337   3.863   0.867 -0.3189 -0.1223 -0.2051
   93MOL   C31329937   7.280   3.887   0.738 -0.3519 -0.5186  0.5187
   93MOL   H31429938   7.100   4.120   0.626  2.2533 -1.1450  1.0504
   93MOL   H31529939   7.195   4.216   0.548  0.0083 -0.1843 -1.2964
   93MOL   H31629940   7.363   4.081   0.478  0.4154  0.9345  1.6443
   93MOL   H31729941   7.444   4.186   0.682 -1.6019  1.3514  1.5956
   93MOL   H31829942   7.557   4.128   0.886  1.1696 -0.7228 -1.3776
   93MOL   H31929943   7.493   3.912   1.007  0.6188 -2.5422 -0.9364
   93MOL   H32029944   7.313   3.778   0.928 -2.4637 -0.7955 -1.9386
   93MOL   H32129945   7.199   3.829   0.698  0.5439  0.3286 -2.6289
   93MOL   H32229946   7.257   3.935   0.475 -2.4627  1.4032 -2.4575
   94MOL     C129947   1.028   5.171   4.693  0.9076 -0.1684  0.2422
   94MOL     C229948   1.064   5.256   4.817  0.5009 -0.0399  0.5343
   94MOL     C329949   1.191   5.342   4.799  0.2466 -0.4947 -0.0797
   94MOL     C429950   1.188   5.477   4.747  0.6050 -0.1126 -0.5239
   94MOL     C529951   1.301   5.550   4.738  0.9795 -0.0627 -0.1131
   94MOL     C629952   1.429   5.496   4.770  0.1735 -0.8318 -0.6202
   94MOL     C729953   1.440   5.365   4.827  0.3185 -0.5985 -0.7881
   94MOL     C829954   1.319   5.289   4.838  0.5616  0.2880 -0.2528
   94MOL     H929955   0.934   5.117   4.704  1.0159  0.0380  2.2256
   94MOL    H1029956   1.024   5.247   4.614 -0.8781  0.9524  1.3686
   94MOL    H1129957   1.104   5.196   4.898  0.2341 -3.0968 -1.5087
   94MOL    H1229958   1.091   5.518   4.723  0.7772 -0.8151 -2.5525
   94MOL    H1329959   1.296   5.651   4.700 -1.0256 -0.8256 -1.9660
   94MOL    H1429960   1.518   5.556   4.757 -1.0266  1.6463  2.0104
   94MOL    H1529961   1.538   5.324   4.846  1.0610  1.5048  0.1281
   94MOL    H1629962   1.324   5.183   4.856  2.2605  0.3271 -0.4094
   94MOL    H1729963   1.108   5.099   4.677  0.4308 -0.3804 -1.2644
   94MOL    C1829964   0.945   5.337   4.874 -0.3774  0.0121  0.3476
   94MOL    C1929965   0.845   5.259   4.959 -0.3217 -0.2818 -0.0718
   94MOL    C2029966   0.915   5.188   5.083 -0.2835 -0.1267  0.6931
   94MOL    C2129967   0.930   5.047   5.086  0.3544 -0.4732  1.3449
   94MOL    C2229968   0.989   4.984   5.193  0.5967 -0.0086 -0.4821
   94MOL    C2329969   1.029   5.052   5.303  0.8444  0.2673  0.0569
   94MOL    C2429970   1.011   5.194   5.302  0.3539  0.3778  0.0190
   94MOL    C2529971   0.943   5.259   5.197 -0.0833  0.0124 -0.5276
   94MOL    H2629972   0.893   5.366   4.783  1.0976 -1.9411 -1.1854
   94MOL    H2729973   0.977   5.426   4.927  1.4136 -1.0474  1.0974
   94MOL    H2829974   0.808   5.175   4.901 -0.9179 -0.8771  1.1434
   94MOL    H2929975   0.925   4.983   4.999  3.1156  0.8086  0.1804
   94MOL    H3029976   0.981   4.877   5.184  1.1695 -0.1747  0.9094
   94MOL    H3129977   1.073   5.014   5.393  3.1871 -1.1731 -1.6495
   94MOL    H3229978   1.027   5.258   5.388 -2.2056 -0.3043  1.0590
   94MOL    H3329979   0.933   5.366   5.194 -3.2938 -0.2150  0.5226
   94MOL    C3429980   0.722   5.336   5.007  0.0017  0.3431 -1.0643
   94MOL    C3529981   0.608   5.369   4.904 -0.0941 -0.2405 -0.2912
   94MOL    C3629982   0.547   5.249   4.843 -0.2787 -0.0145 -0.0073
   94MOL    C3729983   0.529   5.242   4.705  0.0259  0.4392 -0.4980
   94MOL    C3829984   0.473   5.128   4.649  0.2595 -0.1332  0.3559
   94MOL    C3929985   0.421   5.024   4.732  0.1400  1.0889  0.3569
   94MOL    C4029986   0.435   5.031   4.867  0.1789 -0.1625 -0.2066
   94MOL    C4129987   0.503   5.141   4.922  0.1428 -0.4118  0.6155
   94MOL    H4229988   0.752   5.428   5.057  3.2086 -1.1710 -0.1213
   94MOL    H4329989   0.675   5.282   5.089  0.6517  0.8849 -0.3209
   94MOL    H4429990   0.660   5.427   4.827 -1.6414  1.3907 -0.1297
   94MOL    H4529991   0.561   5.325   4.643 -2.0257  0.7610 -1.1610
   94MOL    H4629992   0.451   5.128   4.543 -0.9419  1.3434  0.5920
   94MOL    H4729993   0.382   4.934   4.686 -1.5207  1.3847  1.1565
   94MOL    H4829994   0.408   4.947   4.928 -0.1146  1.1498  1.5131
   94MOL    H4929995   0.523   5.144   5.028  1.6980  2.6987  0.2761
   94MOL    C5029996   0.504   5.457   4.976 -0.9261 -0.5781 -0.8811
   94MOL    C5129997   0.523   5.612   4.941 -0.2092  0.4854 -0.6741
   94MOL    C5229998   0.509   5.646   4.792 -0.6881  0.0588  1.4219
   94MOL    C5329999   0.423   5.579   4.703  0.4858  0.7286  0.2081
   94MOL    C5430000   0.400   5.625   4.573  0.1507 -0.3304  0.0534
   94MOL    C5530001   0.461   5.745   4.531 -0.0828 -0.2920  0.4599
   94MOL    C5630002   0.561   5.802   4.608 -0.9528  0.3191  0.1775
   94MOL    C5730003   0.592   5.751   4.737  0.9948 -0.0140  0.7249
   94MOL    H5830004   0.528   5.446   5.082 -0.1112  0.6204 -0.9383
   94MOL    H5930005   0.400   5.426   4.964 -1.3060 -1.9408  4.4535
   94MOL    H6030006   0.623   5.641   4.973 -0.1426 -0.7238  0.2595
   94MOL    H6130007   0.352   5.501   4.726  0.4076  0.4817 -0.8284
   94MOL    H6230008   0.327   5.579   4.508  1.3521  0.6386 -2.0324
   94MOL    H6330009   0.441   5.782   4.431  1.7198  1.2045  0.6494
   94MOL    H6430010   0.615   5.889   4.573  0.5061  0.2990  2.2274
   94MOL    H6530011   0.668   5.797   4.798  0.2445 -1.4374  2.7580
   94MOL    C6630012   0.429   5.699   5.026  0.4315 -0.8609 -0.1597
   94MOL    C6730013   0.466   5.849   5.040  0.8683  1.0157 -0.0953
   94MOL    C6830014   0.337   5.933   5.046 -0.0323 -0.3330 -0.6331
   94MOL    C6930015   0.300   6.009   4.932 -0.1992 -0.1099  1.0989
   94MOL    C7030016   0.191   6.090   4.938  0.4243 -0.3296 -0.4016
   94MOL    C7130017   0.126   6.117   5.062  0.1317 -0.1064 -0.1432
   94MOL    C7230018   0.163   6.043   5.182 -0.8322  0.0754 -0.3828
   94MOL    C7330019   0.264   5.950   5.170 -0.7179  0.9697  0.1534
   94MOL    H7430020   0.421   5.669   5.131  1.5338 -1.4337 -0.2342
   94MOL    H7530021   0.333   5.685   4.976  2.0313 -0.6887 -3.3854
   94MOL    H7630022   0.506   5.876   4.942  0.4954 -0.7732 -0.7521
   94MOL    H7730023   0.345   5.997   4.835 -0.1284  0.7765  1.0196
   94MOL    H7830024   0.157   6.147   4.853 -0.9626 -0.3787  0.1089
   94MOL    H7930025   0.058   6.198   5.081  0.8666  0.9035 -1.7467
   94MOL    H8030026   0.109   6.069   5.272 -0.0942 -1.1773  0.4349
   94MOL    H8130027   0.297   5.891   5.253 -0.2035 -1.2450 -1.5934
   94MOL    C8230028   0.558   5.887   5.161 -0.5563 -0.2452 -0.1349
   94MOL    C8330029   0.704   5.835   5.171 -0.6101  0.1726 -0.8543
   94MOL    C8430030   0.788   5.855   5.046  0.1663  0.1406 -0.1856
   94MOL    C8530031   0.778   5.972   4.967  0.9155  0.4049  0.4232
   94MOL    C8630032   0.864   5.977   4.853  0.0082  0.4685 -0.4034
   94MOL    C8730033   0.949   5.874   4.812  0.1238  0.5498  0.9613
   94MOL    C8830034   0.956   5.763   4.895 -0.4783  0.2102  0.0650
   94MOL    C8930035   0.875   5.751   5.008 -0.6929  0.2701 -0.5790
   94MOL    H9030036   0.507   5.863   5.255  0.2034 -0.1142  0.3130
   94MOL    H9130037   0.562   5.995   5.154 -1.2747 -0.1823  0.2634
   94MOL    H9230038   0.703   5.729   5.196 -1.3170 -0.0970 -1.9884
   94MOL    H9330039   0.718   6.058   4.992 -0.7573 -0.6480  0.0885
   94MOL    H9430040   0.876   6.065   4.792  0.3407  0.2948 -0.5940
   94MOL    H9530041   1.008   5.888   4.723  0.2890 -1.8712  0.6664
   94MOL    H9630042   1.018   5.680   4.863  0.0029  0.2847  0.8065
   94MOL    H9730043   0.871   5.669   5.078  0.5540  1.1781  0.5849
   94MOL    C9830044   0.768   5.907   5.291  0.2549  0.1262 -0.4907
   94MOL    C9930045   0.723   5.862   5.434 -0.0913 -0.4775 -0.3149
   94MOL   C10030046   0.758   5.717   5.466 -1.2890 -0.7451  0.0743
   94MOL   C10130047   0.880   5.659   5.421  0.0270  0.2927  0.0076
   94MOL   C10230048   0.914   5.531   5.459  0.4549  0.2167 -0.1185
   94MOL   C10330049   0.835   5.456   5.552 -0.3236  0.0306  0.8340
   94MOL   C10430050   0.712   5.516   5.604 -0.3474  0.0782 -0.1462
   94MOL   C10530051   0.671   5.641   5.558 -0.5257 -0.3800  0.5339
   94MOL   H10630052   0.750   6.014   5.292 -0.2262  0.0436  0.5657
   94MOL   H10730053   0.874   5.883   5.290 -0.4714 -3.3139 -0.3157
   94MOL   H10830054   0.615   5.862   5.443 -0.1951 -1.8646 -1.3613
   94MOL   H10930055   0.958   5.707   5.363 -0.9084 -0.1088 -1.5984
   94MOL   H11030056   1.001   5.484   5.415  0.0566  1.0715 -1.8720
   94MOL   H11130057   0.867   5.355   5.570  0.3864  0.3887  1.5881
   94MOL   H11230058   0.648   5.462   5.672 -1.3311 -1.4448 -2.2066
   94MOL   H11330059   0.584   5.694   5.592 -0.1379  0.0371  0.8719
   94MOL   C11430060   0.794   5.956   5.546  0.2264  0.0009 -0.2282
   94MOL   C11530061   0.689   6.064   5.581 -0.0309 -0.2198  0.6852
   94MOL   C11630062   0.578   6.008   5.674 -0.2176  0.3216 -0.0655
   94MOL   C11730063   0.444   5.979   5.635 -0.2832  0.4240  0.2673
   94MOL   C11830064   0.353   5.920   5.726 -0.1445  0.2134  0.3596
   94MOL   C11930065   0.397   5.894   5.860  0.0569  0.7545  0.8366
   94MOL   C12030066   0.526   5.927   5.903 -1.3260  0.7369  0.5796
   94MOL   C12130067   0.613   5.986   5.813 -0.2270 -0.0437  0.0204
   94MOL   H12230068   0.888   6.005   5.518  0.8260 -0.2011  1.3766
   94MOL   H12330069   0.821   5.907   5.639  1.5002  1.5926  0.2693
   94MOL   H12430070   0.645   6.097   5.488  2.7097 -3.1853 -1.7724
   94MOL   H12530071   0.407   6.017   5.541 -0.3979  1.0917  0.5818
   94MOL   H12630072   0.251   5.903   5.696  0.0660  0.0301 -0.2606
   94MOL   H12730073   0.333   5.835   5.923  0.2931 -0.3112  0.0912
   94MOL   H12830074   0.568   5.919   6.002  3.0530  2.5459 -1.0235
   94MOL   H12930075   0.715   6.007   5.841 -0.0990 -1.2666  0.5110
   94MOL   C13030076   0.758   6.189   5.644  0.3521 -0.5947 -0.0092
   94MOL   C13130077   0.834   6.279   5.535 -0.1106  0.1569  0.1260
   94MOL   C13230078   0.755   6.315   5.410 -0.4763 -0.6023 -0.1426
   94MOL   C13330079   0.622   6.351   5.417 -0.2331  0.3383 -0.2295
   94MOL   C13430080   0.548   6.385   5.303 -0.0994 -0.5237 -0.0359
   94MOL   C13530081   0.609   6.381   5.179  0.3466 -0.3108 -0.0138
   94MOL   C13630082   0.747   6.358   5.166  0.3174 -0.8923  0.3924
   94MOL   C13730083   0.824   6.323   5.286  0.0643 -0.1887  0.4750
   94MOL   H13830084   0.827   6.162   5.725  1.0676 -1.2112 -0.8215
   94MOL   H13930085   0.683   6.257   5.686  1.5240  0.1048  0.9957
   94MOL   H14030086   0.910   6.212   5.495  0.0676  0.3761  0.0985
   94MOL   H14130087   0.577   6.359   5.515  1.6764 -0.0268  0.7038
   94MOL   H14230088   0.447   6.418   5.318 -0.7498 -1.5848 -1.8800
   94MOL   H14330089   0.564   6.409   5.085 -1.2504 -1.0433  0.5080
   94MOL   H14430090   0.800   6.362   5.073  0.6178 -1.1313  0.5530
   94MOL   H14530091   0.931   6.311   5.275 -0.1533 -0.1705 -2.0664
   94MOL   C14630092   0.892   6.406   5.598  0.1679 -0.7743  1.7034
   94MOL   C14730093   1.033   6.398   5.659 -0.5272 -0.1084  0.2981
   94MOL   C14830094   1.134   6.386   5.546 -0.9830  0.7577  0.4463
   94MOL   C14930095   1.245   6.296   5.562 -0.0791  0.1351  0.5523
   94MOL   C15030096   1.351   6.305   5.470 -0.1365 -0.5669 -0.7130
   94MOL   C15130097   1.341   6.380   5.353 -0.1684  0.7189  0.1142
   94MOL   C15230098   1.233   6.460   5.322  1.0664  0.0485 -0.0392
   94MOL   C15330099   1.131   6.471   5.424 -0.5665  0.2054  0.3366
   94MOL   H15430100   0.835   6.438   5.685 -1.1968 -1.1281  0.9581
   94MOL   H15530101   0.885   6.489   5.527  1.6633 -2.5755 -0.6737
   94MOL   H15630102   1.023   6.303   5.711 -3.0281  0.1148  0.2897
   94MOL   H15730103   1.264   6.234   5.648 -0.8544 -1.2431 -0.2455
   94MOL   H15830104   1.441   6.246   5.476  0.4854  0.3734 -0.6362
   94MOL   H15930105   1.427   6.378   5.286  1.3274  2.0621  1.9457
   94MOL   H16030106   1.229   6.532   5.241 -0.7689 -1.1776 -1.0826
   94MOL   H16130107   1.052   6.545   5.415 -0.5335  0.1614 -0.3683
   94MOL   C16230108   1.061   6.527   5.749  0.1988 -0.2616  0.7930
   94MOL   C16330109   1.007   6.523   5.899  0.6288 -0.5356  0.0914
   94MOL   C16430110   0.978   6.381   5.947  0.3010  0.1562  0.7398
   94MOL   C16530111   1.075   6.284   5.971  1.1007  0.2632  0.0442
   94MOL   C16630112   1.038   6.158   6.024  0.3177  0.3982 -0.0110
   94MOL   C16730113   0.905   6.121   6.049 -0.3404  0.0008 -0.0291
   94MOL   C16830114   0.804   6.215   6.027  0.0417 -0.5411 -0.3591
   94MOL   C16930115   0.843   6.343   5.978  0.0905  0.5819 -0.1636
   94MOL   H17030116   1.031   6.618   5.696  1.1262 -0.9269 -0.9022
   94MOL   H17130117   1.169   6.535   5.761  0.3677  0.1634 -0.9224
   94MOL   H17230118   0.906   6.565   5.899  0.4368 -0.9990 -0.1100
   94MOL   H17330119   1.179   6.298   5.947  1.0908 -0.6556 -0.5640
   94MOL   H17430120   1.127   6.099   6.040  1.5158  2.0315 -0.4891
   94MOL   H17530121   0.879   6.024   6.091  0.6758 -0.2275  0.0859
   94MOL   H17630122   0.700   6.202   6.053  0.1853  3.7645  3.0445
   94MOL   H17730123   0.768   6.418   5.961 -0.0840  0.1980 -1.1365
   94MOL   C17830124   1.101   6.599   6.002  0.7574  0.2033 -0.2327
   94MOL   C17930125   1.112   6.745   5.965  0.7000 -0.6166 -0.3062
   94MOL   C18030126   0.979   6.819   5.989  0.1320  0.0734 -1.0838
   94MOL   C18130127   0.938   6.850   6.121 -0.0507 -0.1510 -0.2332
   94MOL   C18230128   0.811   6.904   6.142  0.5451 -0.1341  0.3006
   94MOL   C18330129   0.736   6.965   6.037  0.3035  0.3025 -0.4663
   94MOL   C18430130   0.785   6.949   5.908 -0.6241 -0.3698  0.5077
   94MOL   C18530131   0.900   6.868   5.880 -0.4366 -0.5687  0.3336
   94MOL   H18630132   1.197   6.546   5.999 -0.9233 -3.1313  2.1571
   94MOL   H18730133   1.054   6.598   6.100  1.0677  2.2902 -0.0459
   94MOL   H18830134   1.130   6.760   5.859 -0.2520 -3.4170 -0.9308
   94MOL   H18930135   1.003   6.824   6.203 -0.9694  0.5169  0.7163
   94MOL   H19030136   0.779   6.919   6.244  0.9067 -0.0662  0.4025
   94MOL   H19130137   0.648   7.024   6.055 -0.1217 -0.3438 -0.4394
   94MOL   H19230138   0.742   6.987   5.817 -0.0860 -3.3096 -1.0128
   94MOL   H19330139   0.934   6.848   5.779 -0.1510 -1.8921  0.6919
   94MOL   C19430140   1.235   6.815   6.030  0.2266 -0.9491 -0.3269
   94MOL   C19530141   1.375   6.778   5.981 -0.7306 -0.7587 -1.1517
   94MOL   C19630142   1.380   6.779   5.825  0.0830 -0.1828  0.4343
   94MOL   C19730143   1.402   6.657   5.753 -0.0772 -0.5740  0.4052
   94MOL   C19830144   1.405   6.666   5.612 -0.1087 -0.2301 -0.3990
   94MOL   C19930145   1.388   6.794   5.553  0.1745 -0.1936  0.3982
   94MOL   C20030146   1.358   6.912   5.624 -0.2596  0.0890  0.0277
   94MOL   C20130147   1.360   6.905   5.762 -1.1055 -0.5607 -0.2633
   94MOL   H20230148   1.227   6.808   6.138 -0.8474 -1.1517 -0.4161
   94MOL   H20330149   1.218   6.922   6.014  1.1550 -1.0970 -2.4652
   94MOL   H20430150   1.391   6.676   6.015 -1.9147 -0.9346 -1.1093
   94MOL   H20530151   1.428   6.564   5.802  1.8106 -0.2011  0.1276
   94MOL   H20630152   1.412   6.575   5.554  1.1941  1.2893 -2.7259
   94MOL   H20730153   1.375   6.803   5.446 -2.4145  0.7420  0.7437
   94MOL   H20830154   1.329   7.009   5.587 -0.3118  1.2399  2.8793
   94MOL   H20930155   1.347   6.995   5.819  1.9288  0.7929 -1.5773
   94MOL   C21030156   1.487   6.872   6.038  0.3201  0.4928 -0.0821
   94MOL   C21130157   1.515   6.848   6.191  0.2078 -0.6148  0.3543
   94MOL   C21230158   1.584   6.719   6.228  0.2959  0.2707  0.6112
   94MOL   C21330159   1.510   6.632   6.310 -0.3990  0.0193 -0.1563
   94MOL   C21430160   1.574   6.524   6.373 -0.0399  0.0294  0.0391
   94MOL   C21530161   1.708   6.496   6.343  0.4495  0.7050 -0.8312
   94MOL   C21630162   1.782   6.588   6.264  0.6486  0.0764  0.0729
   94MOL   C21730163   1.722   6.692   6.201  0.4165  0.9980  0.3648
   94MOL   H21830164   1.459   6.973   6.008 -1.8242 -1.1933 -4.2190
   94MOL   H21930165   1.579   6.849   5.985 -0.4826 -1.0695 -0.8379
   94MOL   H22030166   1.416   6.847   6.238 -0.2648 -0.4246 -0.6206
   94MOL   H22130167   1.403   6.641   6.312 -0.5791 -1.9669  0.6648
   94MOL   H22230168   1.520   6.454   6.436  0.3536  0.6236  1.0517
   94MOL   H22330169   1.759   6.412   6.387 -1.0935  0.0965 -0.1618
   94MOL   H22430170   1.885   6.573   6.235  0.3594 -2.4232  0.2775
   94MOL   H22530171   1.782   6.768   6.154 -0.9920  2.2837  0.6080
   94MOL   C22630172   1.592   6.970   6.243 -0.0249  0.1522 -0.4360
   94MOL   C22730173   1.497   7.093   6.282 -0.1973  0.0412 -0.7538
   94MOL   C22830174   1.390   7.052   6.379  0.2457 -0.3023 -0.4157
   94MOL   C22930175   1.252   7.068   6.344  0.0156  0.0562  0.5742
   94MOL   C23030176   1.147   7.043   6.436 -0.4484  0.5236 -0.3759
   94MOL   C23130177   1.174   7.005   6.572 -0.8882 -0.1374 -0.5848
   94MOL   C23230178   1.314   6.984   6.611  0.3218  0.6835  0.2008
   94MOL   C23330179   1.416   7.011   6.514 -0.6703 -0.1010 -0.0341
   94MOL   H23430180   1.675   7.002   6.180  1.2688 -0.4179  0.9292
   94MOL   H23530181   1.629   6.938   6.341  0.5490 -0.9602 -1.0029
   94MOL   H23630182   1.452   7.113   6.184 -1.2107 -1.6145 -0.6376
   94MOL   H23730183   1.209   7.093   6.248 -1.1071 -0.3828  0.9516
   94MOL   H23830184   1.044   7.055   6.407 -0.8881  2.2421  1.8586
   94MOL   H23930185   1.091   6.985   6.638 -0.3046 -1.0958 -0.1168
   94MOL   H24030186   1.354   6.954   6.707 -0.7499 -2.0764 -0.1599
   94MOL   H24130187   1.518   6.998   6.546 -0.8166  1.5926  1.2299
   94MOL   C24230188   1.586   7.214   6.332 -0.4950 -0.0483 -0.5726
   94MOL   C24330189   1.555   7.345   6.255  0.4449  0.0032 -0.6996
   94MOL   C24430190   1.422   7.402   6.311  0.1357  0.2036 -0.0120
   94MOL   C24530191   1.417   7.444   6.446  0.5037 -0.1569 -0.5193
   94MOL   C24630192   1.309   7.517   6.489  0.1834  0.5832  0.3531
   94MOL   C24730193   1.197   7.542   6.400 -0.2437 -0.5488 -0.5935
   94MOL   C24830194   1.201   7.493   6.269  0.4789 -0.3718  0.2264
   94MOL   C24930195   1.316   7.433   6.224  0.0978 -0.4786  0.2169
   94MOL   H25030196   1.692   7.193   6.320 -0.2022  0.5040  0.9638
   94MOL   H25130197   1.584   7.232   6.439 -2.0195 -1.7705 -0.2853
   94MOL   H25230198   1.529   7.323   6.151  2.4484  1.1099 -1.4595
   94MOL   H25330199   1.499   7.421   6.512  1.3049 -0.1380 -1.4947
   94MOL   H25430200   1.303   7.545   6.593  0.0456 -0.2512  0.5761
   94MOL   H25530201   1.111   7.598   6.433  0.3539 -0.6782  1.2555
   94MOL   H25630202   1.118   7.510   6.202 -0.6538  0.1808  1.7281
   94MOL   H25730203   1.327   7.407   6.120  3.6078 -2.4999  1.0250
   94MOL   C25830204   1.669   7.446   6.281  0.3515 -0.0283  0.1770
   94MOL   C25930205   1.803   7.419   6.223 -0.1661 -0.2148 -0.0648
   94MOL   C26030206   1.798   7.447   6.077  0.3975 -0.2199  0.4338
   94MOL   C26130207   1.808   7.573   6.016  0.6634  0.1723  0.1794
   94MOL   C26230208   1.786   7.585   5.878  0.6117  0.1975 -0.2209
   94MOL   C26330209   1.752   7.469   5.801  0.0838  0.0074 -0.0244
   94MOL   C26430210   1.748   7.346   5.862 -0.3055 -0.3663  0.7946
   94MOL   C26530211   1.767   7.330   6.001  0.5227 -0.3315 -0.1113
   94MOL   H26630212   1.684   7.454   6.388 -0.6382  1.8676  0.2000
   94MOL   H26730213   1.636   7.547   6.256 -0.2399  0.1515  1.6772
   94MOL   H26830214   1.822   7.313   6.244 -1.0419  0.1195  2.6505
   94MOL   H26930215   1.816   7.667   6.068 -1.5244  0.6130 -0.2037
   94MOL   H27030216   1.801   7.681   5.831  1.0413  0.1911 -0.0995
   94MOL   H27130217   1.725   7.472   5.697 -2.1090  1.2983  0.5439
   94MOL   H27230218   1.726   7.256   5.807  2.6584 -1.4923  1.4015
   94MOL   H27330219   1.755   7.233   6.047  0.4322  0.4465  1.5752
   94MOL   C27430220   1.925   7.502   6.295  0.6104  0.0220  0.1841
   94MOL   C27530221   2.071   7.487   6.246 -0.2709  0.2496  0.3996
   94MOL   C27630222   2.165   7.577   6.326  0.0513  0.4488 -0.1200
   94MOL   C27730223   2.163   7.583   6.470 -0.0623 -0.4169 -0.0135
   94MOL   C27830224   2.242   7.676   6.541  0.4827 -0.1071  0.1256
   94MOL   C27930225   2.333   7.754   6.466  0.4371 -0.0829  0.0896
   94MOL   C28030226   2.346   7.740   6.327 -0.2138 -0.3109  0.7165
   94MOL   C28130227   2.257   7.658   6.257  0.0079 -0.3401 -0.5315
   94MOL   H28230228   1.920   7.482   6.402  0.9892  1.4409  0.4777
   94MOL   H28330229   1.903   7.609   6.285 -2.7683 -0.5433  0.9558
   94MOL   H28430230   2.066   7.516   6.141  0.0548 -0.7229  0.1061
   94MOL   H28530231   2.089   7.523   6.521  0.3528 -0.3701  0.6542
   94MOL   H28630232   2.240   7.670   6.649 -3.9112 -1.7133  0.0534
   94MOL   H28730233   2.394   7.832   6.509  0.4661 -0.5542  0.9005
   94MOL   H28830234   2.418   7.798   6.271  0.1248 -1.2780  0.1396
   94MOL   H28930235   2.243   7.660   6.150  0.5713 -0.8789 -0.6140
   94MOL   C29030236   2.118   7.343   6.254  0.1570 -0.4303 -0.8592
   94MOL   C29130237   2.106   7.262   6.124  0.2042 -0.0349  0.5778
   94MOL   C29230238   2.190   7.322   6.011 -0.2190  0.5968  0.0697
   94MOL   C29330239   2.332   7.345   6.015 -0.5082  0.8175  0.4276
   94MOL   C29430240   2.397   7.407   5.904  0.2526 -0.3106  0.2511
   94MOL   C29530241   2.322   7.455   5.793 -0.4592  0.0370 -0.4409
   94MOL   C29630242   2.180   7.430   5.791 -0.3986 -0.0825 -0.3404
   94MOL   C29730243   2.115   7.369   5.896 -0.2062  0.0334  0.2246
   94MOL   H29830244   2.066   7.295   6.337 -1.4356  3.4393  0.5299
   94MOL   H29930245   2.222   7.340   6.287 -0.3077  0.8881  0.8386
   94MOL   H30030246   2.005   7.265   6.085  1.2451 -1.0106 -2.3602
   94MOL   H30130247   2.390   7.312   6.100  1.3750 -2.5934 -2.0341
   94MOL   H30230248   2.503   7.430   5.910  0.3437 -0.2901 -1.4358
   94MOL   H30330249   2.367   7.502   5.706 -0.4067 -1.7387 -1.3992
   94MOL   H30430250   2.122   7.457   5.703 -0.3761 -2.0553 -0.9848
   94MOL   H30530251   2.010   7.342   5.892 -0.3491  0.4893  0.8800
   94MOL   C30630252   2.127   7.110   6.147  0.6714  0.4386 -0.1189
   94MOL   C30730253   2.113   7.029   6.020 -0.6132  0.0901  0.4401
   94MOL   C30830254   2.113   6.871   6.027 -0.3318 -0.0792 -0.0160
   94MOL   C30930255   2.213   6.803   6.103 -0.1516  0.5274  0.4286
   94MOL   C31030256   2.208   6.661   6.103  0.0947  0.1056  0.2076
   94MOL   C31130257   2.100   6.593   6.045 -0.0620 -0.8495  0.4144
   94MOL   C31230258   2.001   6.666   5.978 -0.7285 -0.0282  0.0757
   94MOL   C31330259   2.000   6.806   5.976 -0.0111  0.7834  0.4942
   94MOL   H31430260   2.055   7.083   6.224  0.4196 -0.3869 -0.6340
   94MOL   H31530261   2.222   7.100   6.199 -0.9175  1.3338  3.0538
   94MOL   H31630262   2.193   7.062   5.953 -0.7468  0.1577  0.3138
   94MOL   H31730263   2.291   6.861   6.151 -0.6851  1.0812  0.6255
   94MOL   H31830264   2.284   6.610   6.159  2.6151  0.7312 -2.5280
   94MOL   H31930265   2.092   6.486   6.046  0.6651 -0.9296 -0.9906
   94MOL   H32030266   1.922   6.616   5.924  0.0512  0.3610 -1.4606
   94MOL   H32130267   1.915   6.856   5.932  0.8521  0.1565 -1.9974
   94MOL   H32230268   2.018   7.054   5.973 -0.5645 -2.3565 -1.0605
   95MOL     C130269   0.567   0.680   7.350  0.6854  0.0465 -0.2149
   95MOL     C230270   0.681   0.645   7.252 -0.6019  0.4926  0.3304
   95MOL     C330271   0.648   0.516   7.190  0.6503  0.1259 -0.7257
   95MOL     C430272   0.568   0.500   7.080 -0.0775  0.2666  0.1385
   95MOL     C530273   0.527   0.381   7.034 -0.0719  1.1007 -0.7147
   95MOL     C630274   0.571   0.261   7.096  0.5056 -0.0424  0.0476
   95MOL     C730275   0.659   0.265   7.202 -0.3407 -0.0020 -0.4415
   95MOL     C830276   0.693   0.392   7.253 -0.5818 -0.2039 -0.3803
   95MOL     H930277   0.470   0.691   7.301  0.3667  0.8337  0.5648
   95MOL    H1030278   0.562   0.598   7.421 -1.6971 -0.6482 -1.1598
   95MOL    H1130279   0.769   0.620   7.311 -0.7690 -2.0337 -0.4071
   95MOL    H1230280   0.524   0.592   7.044  0.0294  0.1300 -0.3444
   95MOL    H1330281   0.442   0.369   6.969 -0.4843  0.9784 -0.1605
   95MOL    H1430282   0.547   0.163   7.058 -0.8117 -0.2762  1.4229
   95MOL    H1530283   0.712   0.185   7.253  2.7720  1.8388 -0.6705
   95MOL    H1630284   0.753   0.394   7.343 -1.1129 -1.4590  0.0212
   95MOL    H1730285   0.580   0.769   7.412 -0.8969 -1.0513  1.7734
   95MOL    C1830286   0.713   0.763   7.152 -0.5996  0.4488 -0.2717
   95MOL    C1930287   0.757   0.900   7.215  0.4881 -0.5525 -0.3196
   95MOL    C2030288   0.888   0.882   7.297  0.1418  0.5454  0.1064
   95MOL    C2130289   0.882   0.900   7.439 -0.5609 -0.2100 -0.3656
   95MOL    C2230290   0.994   0.899   7.523  0.1827  0.1006 -0.2881
   95MOL    C2330291   1.118   0.884   7.468  0.3083  0.7912  0.0289
   95MOL    C2430292   1.130   0.871   7.327 -0.4889 -0.0672  0.8562
   95MOL    C2530293   1.018   0.864   7.241 -0.6285 -0.4204  0.4550
   95MOL    H2630294   0.618   0.778   7.099 -0.2147  1.1322 -0.7796
   95MOL    H2730295   0.787   0.741   7.075 -0.6826  0.3047 -0.3119
   95MOL    H2830296   0.685   0.936   7.289  0.6817  1.1060 -0.9407
   95MOL    H2930297   0.789   0.924   7.488 -0.1409  1.2926 -0.2707
   95MOL    H3030298   0.974   0.915   7.628 -0.3392 -2.3915  0.0140
   95MOL    H3130299   1.206   0.893   7.529  0.6328 -0.2510 -0.2807
   95MOL    H3230300   1.230   0.858   7.287 -0.7274 -0.0256  0.2417
   95MOL    H3330301   1.042   0.847   7.138  0.4991 -1.1699  0.8344
   95MOL    C3430302   0.754   1.023   7.122  0.3584  0.9532 -0.0318
   95MOL    C3530303   0.620   1.061   7.048 -0.3395  0.4693 -0.5972
   95MOL    C3630304   0.490   1.042   7.133 -0.1960 -0.7715  0.2209
   95MOL    C3730305   0.463   1.127   7.244 -0.4637 -0.7333 -0.7623
   95MOL    C3830306   0.346   1.099   7.322 -0.2630  0.6915 -0.2854
   95MOL    C3930307   0.250   1.003   7.280  0.5652  0.0489 -0.1436
   95MOL    C4030308   0.280   0.924   7.172 -0.3760  0.3464 -0.1794
   95MOL    C4130309   0.395   0.945   7.096  0.6209 -0.5624 -0.5564
   95MOL    H4230310   0.837   1.003   7.054  0.1375  0.7828 -0.2491
   95MOL    H4330311   0.798   1.105   7.178  0.8177 -0.1889  1.2926
   95MOL    H4430312   0.606   0.988   6.969 -0.0533 -0.6224  0.3543
   95MOL    H4530313   0.543   1.192   7.275  0.8923 -2.5811 -0.3354
   95MOL    H4630314   0.323   1.149   7.414 -0.6311 -0.9579  0.5464
   95MOL    H4730315   0.164   0.983   7.343  0.0849 -1.4191 -1.2514
   95MOL    H4830316   0.209   0.846   7.147  3.4433 -2.7083 -2.0246
   95MOL    H4930317   0.411   0.893   7.003  0.9117  2.0873 -2.0467
   95MOL    C5030318   0.635   1.207   6.989 -0.2402  0.1202 -0.5131
   95MOL    C5130319   0.715   1.214   6.859 -0.1907 -0.3055  0.5654
   95MOL    C5230320   0.660   1.144   6.730 -0.5996 -0.1390  0.1228
   95MOL    C5330321   0.529   1.094   6.719  0.1536 -0.1646  0.6146
   95MOL    C5430322   0.487   1.035   6.600 -0.0578 -0.1085  0.1350
   95MOL    C5530323   0.574   1.029   6.486  0.7115  0.2166  0.2432
   95MOL    C5630324   0.707   1.069   6.498  0.6564  0.5627  0.2222
   95MOL    C5730325   0.749   1.128   6.623 -0.1013  0.5745  0.1280
   95MOL    H5830326   0.692   1.256   7.068  0.8045  0.6140 -1.5574
   95MOL    H5930327   0.541   1.260   6.978 -0.4284 -0.3956 -1.4834
   95MOL    H6030328   0.795   1.145   6.884 -1.4254 -0.4391  4.3566
   95MOL    H6130329   0.469   1.101   6.808  1.1340 -1.6208  1.4114
   95MOL    H6230330   0.384   1.008   6.584 -0.3026  1.0621 -0.2805
   95MOL    H6330331   0.538   0.975   6.399 -1.0768  1.1118  0.4033
   95MOL    H6430332   0.777   1.052   6.418  2.1342 -2.2190  2.0180
   95MOL    H6530333   0.854   1.149   6.638  0.0645 -0.7291  0.9016
   95MOL    C6630334   0.763   1.357   6.826 -0.9625 -0.6508 -0.3230
   95MOL    C6730335   0.889   1.411   6.906 -0.1574 -0.6260 -0.7850
   95MOL    C6830336   1.015   1.342   6.851 -0.4028 -0.1635  0.0568
   95MOL    C6930337   1.087   1.243   6.921 -0.2174  0.0058 -0.1805
   95MOL    C7030338   1.201   1.178   6.871  0.2120  0.6185  0.3035
   95MOL    C7130339   1.246   1.212   6.743  0.2721  0.2561 -0.0419
   95MOL    C7230340   1.175   1.310   6.671 -0.9111 -0.5542  0.3624
   95MOL    C7330341   1.066   1.381   6.723  0.0293  0.1712 -0.1767
   95MOL    H7430342   0.682   1.430   6.834  1.4556  2.2300 -1.0021
   95MOL    H7530343   0.791   1.358   6.721  0.2640 -0.0103 -0.0038
   95MOL    H7630344   0.881   1.386   7.012 -0.9586 -1.2708 -0.9952
   95MOL    H7730345   1.051   1.220   7.020 -0.7941  0.3541 -0.3059
   95MOL    H7830346   1.250   1.101   6.928 -2.1444  0.1612  1.7534
   95MOL    H7930347   1.328   1.163   6.692 -0.4446 -1.4085  0.3776
   95MOL    H8030348   1.209   1.342   6.574 -0.7845 -1.3987  0.1192
   95MOL    H8130349   1.012   1.453   6.664 -0.9372 -1.7600 -1.7226
   95MOL    C8230350   0.899   1.562   6.883  0.1409  1.0215  0.1866
   95MOL    C8330351   0.782   1.643   6.948 -0.1763  0.8666 -0.2274
   95MOL    C8430352   0.739   1.594   7.084  0.0661 -0.1535  0.9609
   95MOL    C8530353   0.837   1.586   7.185 -0.1114  0.2608  0.2030
   95MOL    C8630354   0.803   1.522   7.301 -0.3058  0.3895 -0.4132
   95MOL    C8730355   0.666   1.485   7.331 -0.6117 -0.3190  0.4636
   95MOL    C8830356   0.569   1.504   7.234  0.2352  0.6460 -0.4880
   95MOL    C8930357   0.605   1.554   7.108  0.5996  0.1184 -0.4759
   95MOL    H9030358   0.911   1.591   6.779  0.5298  2.2948  0.5831
   95MOL    H9130359   0.991   1.596   6.931  1.8176 -1.6035 -1.0285
   95MOL    H9230360   0.695   1.626   6.884 -0.1745  2.6958 -0.7413
   95MOL    H9330361   0.939   1.621   7.177  1.4734 -3.6298  2.1830
   95MOL    H9430362   0.880   1.517   7.375 -1.0558  0.4273  0.3792
   95MOL    H9530363   0.639   1.452   7.430 -3.4834 -1.1662 -0.5660
   95MOL    H9630364   0.464   1.490   7.253 -0.0137  0.1356 -2.0990
   95MOL    H9730365   0.522   1.567   7.040 -1.2131 -0.7341  1.4830
   95MOL    C9830366   0.806   1.794   6.946  0.0848 -0.1817 -0.3010
   95MOL    C9930367   0.694   1.889   6.992  0.6177 -0.0018 -0.3214
   95MOL   C10030368   0.560   1.856   6.924  0.3956  0.0476  0.0944
   95MOL   C10130369   0.435   1.811   6.990 -0.5256  0.0545 -0.5639
   95MOL   C10230370   0.326   1.776   6.905  0.1700  1.0549 -0.2343
   95MOL   C10330371   0.333   1.789   6.766 -0.1488 -0.0420  0.9460
   95MOL   C10430372   0.457   1.819   6.705  0.1071 -0.4967 -0.1446
   95MOL   C10530373   0.564   1.853   6.785  0.1817 -0.0167  0.1325
   95MOL   H10630374   0.829   1.820   6.843 -2.5526  1.7782 -0.4360
   95MOL   H10730375   0.895   1.820   7.005 -1.9297  1.2789  2.2248
   95MOL   H10830376   0.722   1.988   6.957 -0.2862  0.2808 -0.2380
   95MOL   H10930377   0.418   1.797   7.095 -0.9379 -0.6335 -0.7201
   95MOL   H11030378   0.233   1.744   6.949 -0.5273  0.4612 -2.1042
   95MOL   H11130379   0.245   1.776   6.704 -0.1183 -1.0485  1.1106
   95MOL   H11230380   0.468   1.810   6.598 -3.6627 -0.7759 -0.5937
   95MOL   H11330381   0.658   1.870   6.734 -0.5046  0.3364 -1.0192
   95MOL   C11430382   0.691   1.905   7.151  0.5571  0.6497  0.4832
   95MOL   C11530383   0.610   2.025   7.204 -0.5237  0.1101  0.2011
   95MOL   C11630384   0.545   1.983   7.338 -0.7502 -0.1354  0.1437
   95MOL   C11730385   0.404   1.964   7.338  0.4666 -0.0229 -0.5497
   95MOL   C11830386   0.342   1.907   7.452 -0.3827  0.1942  0.0657
   95MOL   C11930387   0.421   1.866   7.558  0.0233 -0.4741  0.0514
   95MOL   C12030388   0.561   1.872   7.552 -0.4407 -0.6804 -0.6274
   95MOL   C12130389   0.627   1.929   7.443  0.1005 -0.1520  0.3028
   95MOL   H12230390   0.791   1.879   7.186  0.1955 -2.4001 -0.5613
   95MOL   H12330391   0.631   1.821   7.187  1.2104 -0.0104  0.0492
   95MOL   H12430392   0.523   2.031   7.139  0.6934  1.7639 -1.3332
   95MOL   H12530393   0.342   1.998   7.256 -2.6936  0.4414  1.9463
   95MOL   H12630394   0.235   1.896   7.465 -0.0398 -1.2691  1.9873
   95MOL   H12730395   0.375   1.820   7.645  0.8342 -0.2101  0.6312
   95MOL   H12830396   0.625   1.833   7.630  1.5745  1.0201 -1.3857
   95MOL   H12930397   0.733   1.948   7.436 -0.1703  1.2231 -0.3198
   95MOL   C13030398   0.691   2.154   7.217  0.3875 -0.8781  0.9057
   95MOL   C13130399   0.625   2.275   7.292 -0.1747  0.9934 -0.0799
   95MOL   C13230400   0.711   2.397   7.266  0.0250 -0.5450 -0.0301
   95MOL   C13330401   0.791   2.458   7.371  0.5283  0.0139 -0.0035
   95MOL   C13430402   0.865   2.581   7.341  0.2225 -0.2441 -0.0279
   95MOL   C13530403   0.858   2.631   7.206 -0.2720 -0.0374  0.4916
   95MOL   C13630404   0.782   2.564   7.108 -0.7282 -0.1730  0.1729
   95MOL   C13730405   0.706   2.450   7.136 -0.1129  0.1364  1.1188
   95MOL   H13830406   0.719   2.185   7.117  1.9030 -2.3772  0.8441
   95MOL   H13930407   0.783   2.122   7.267  1.0036 -1.0667 -0.3404
   95MOL   H14030408   0.624   2.260   7.400  1.9000 -0.2601 -0.2068
   95MOL   H14130409   0.807   2.407   7.465  1.2923  1.5452  0.7101
   95MOL   H14230410   0.928   2.630   7.414 -2.1006  0.4985  1.5361
   95MOL   H14330411   0.915   2.722   7.191 -0.8173  0.0563 -1.1185
   95MOL   H14430412   0.783   2.607   7.008 -0.4675  2.2141  1.1640
   95MOL   H14530413   0.642   2.425   7.052  1.2769 -0.0441  0.0891
   95MOL   C14630414   0.476   2.298   7.257 -0.6297 -0.1360 -0.3532
   95MOL   C14730415   0.408   2.417   7.322 -0.4657  0.3965  1.0934
   95MOL   C14830416   0.297   2.468   7.231  0.2791  0.5992 -0.0607
   95MOL   C14930417   0.199   2.376   7.185  0.0015 -0.0259 -0.1459
   95MOL   C15030418   0.083   2.420   7.120 -0.3492  0.1767  0.2884
   95MOL   C15130419   0.074   2.556   7.082  0.4992 -0.0712 -0.1146
   95MOL   C15230420   0.170   2.649   7.123 -0.2697  0.2862  0.8796
   95MOL   C15330421   0.282   2.607   7.191 -0.0254 -0.1450 -0.5564
   95MOL   H15430422   0.420   2.207   7.276  0.2926 -0.3243  1.5699
   95MOL   H15530423   0.476   2.292   7.148  0.2964  0.3228 -0.3843
   95MOL   H15630424   0.483   2.497   7.319  0.5863 -0.6096 -0.7589
   95MOL   H15730425   0.206   2.277   7.227 -1.6209 -0.3038 -0.4996
   95MOL   H15830426   8.114   2.353   7.111  1.8630 -2.5205 -1.1404
   95MOL   H15930427   8.098   2.580   7.028  0.9392  0.9680 -0.3999
   95MOL   H16030428   0.135   2.745   7.087 -0.9916 -0.9541 -1.9370
   95MOL   H16130429   0.354   2.676   7.232  0.2663  0.9228 -2.7682
   95MOL   C16230430   0.362   2.388   7.466 -0.1240 -0.3753  0.0385
   95MOL   C16330431   0.419   2.488   7.573  0.2488 -0.4801  0.2391
   95MOL   C16430432   0.381   2.637   7.546 -0.1713  0.3409  0.5258
   95MOL   C16530433   0.477   2.733   7.500  0.6433 -0.0401 -0.3067
   95MOL   C16630434   0.433   2.862   7.460  1.0450 -0.3804 -0.1386
   95MOL   C16730435   0.299   2.901   7.475 -0.1405 -0.9859 -0.3370
   95MOL   C16830436   0.208   2.810   7.521 -0.0778 -0.4934  0.5143
   95MOL   C16930437   0.250   2.682   7.560 -0.7083 -0.3730 -0.5716
   95MOL   H17030438   0.397   2.290   7.498  0.2439 -0.6062 -1.0754
   95MOL   H17130439   0.255   2.403   7.461  0.2633  2.7021 -0.3386
   95MOL   H17230440   0.527   2.478   7.558  0.5499  0.7316  1.4952
   95MOL   H17330441   0.581   2.706   7.503  1.1391  1.6029 -2.0763
   95MOL   H17430442   0.499   2.927   7.405 -2.3428  1.6025 -2.0495
   95MOL   H17530443   0.279   2.999   7.435  0.8956 -0.8204 -0.4659
   95MOL   H17630444   0.106   2.843   7.526 -0.1580 -0.3558 -1.7257
   95MOL   H17730445   0.181   2.614   7.607 -0.4688 -0.9130 -1.0004
   95MOL   C17830446   0.381   2.464   7.718 -0.4573  0.2456  0.0384
   95MOL   C17930447   0.439   2.337   7.787 -1.1737  0.2794  0.4026
   95MOL   C18030448   0.584   2.318   7.754  0.2210  0.1582 -0.2191
   95MOL   C18130449   0.681   2.415   7.768  0.8042 -0.4501 -0.3317
   95MOL   C18230450   0.814   2.387   7.729 -0.4851 -0.1734  0.5870
   95MOL   C18330451   0.853   2.260   7.678 -0.4492  0.3653  0.8123
   95MOL   C18430452   0.753   2.162   7.663  0.1435 -0.6482 -0.1305
   95MOL   C18530453   0.616   2.195   7.701  0.3777 -0.4317  0.1992
   95MOL   H18630454   0.272   2.458   7.725 -0.4156 -0.2487  0.2563
   95MOL   H18730455   0.407   2.549   7.781 -1.3529 -0.9314  2.0307
   95MOL   H18830456   0.381   2.258   7.738 -0.0682  0.3230 -1.0184
   95MOL   H18930457   0.659   2.513   7.808 -0.2591 -1.1871  0.9045
   95MOL   H19030458   0.888   2.462   7.753 -1.7195  1.2960 -0.1263
   95MOL   H19130459   0.959   2.241   7.672 -0.5195 -0.0927  1.0135
   95MOL   H19230460   0.776   2.059   7.639  1.4289 -0.6484  1.0319
   95MOL   H19330461   0.536   2.124   7.690  0.7685 -0.9294  0.4821
   95MOL   C19430462   0.411   2.328   7.940 -0.3920 -0.2462 -0.0540
   95MOL   C19530463   0.442   2.189   8.000 -0.1391  0.9133 -0.9336
   95MOL   C19630464   0.510   2.192   0.026  0.4409  0.2423 -0.1508
   95MOL   C19730465   0.649   2.184   0.037 -0.4918  0.0787  0.4773
   95MOL   C19830466   0.704   2.164   0.165  0.4061  0.6197 -0.0498
   95MOL   C19930467   0.631   2.157   0.283 -0.6569 -0.1961  0.3975
   95MOL   C20030468   0.497   2.200   0.268  0.0575 -0.0513 -0.2458
   95MOL   C20130469   0.435   2.220   0.140 -0.0478 -0.0493  0.2100
   95MOL   H20230470   0.305   2.348   7.958 -0.8988 -1.0765 -1.9534
   95MOL   H20330471   0.471   2.401   7.993 -0.9083 -0.8356  1.3596
   95MOL   H20430472   0.518   2.147   7.933 -0.6889  0.8779 -1.5436
   95MOL   H20530473   0.717   2.189   8.068 -0.5636  1.2134  0.4803
   95MOL   H20630474   0.812   2.164   0.162  0.3998  0.9323 -0.3935
   95MOL   H20730475   0.672   2.148   0.382  2.0414 -1.0903 -0.7395
   95MOL   H20830476   0.439   2.214   0.358  0.1474  2.3273 -0.5240
   95MOL   H20930477   0.333   2.251   0.128  0.0215 -0.5457 -2.0594
   95MOL   C21030478   0.327   2.082   7.992 -0.3300 -0.6040 -0.0249
   95MOL   C21130479   0.358   1.944   8.065  0.0458 -0.1073  0.3416
   95MOL   C21230480   0.232   1.858   8.067  0.1823 -0.0721  0.2848
   95MOL   C21330481   0.179   1.802   7.945  0.9453  0.0963  0.3621
   95MOL   C21430482   0.057   1.736   7.937 -0.2314  0.2937 -0.0127
   95MOL   C21530483   8.098   1.724   8.053  0.6014  0.6827  0.2914
   95MOL   C21630484   0.029   1.778   0.063  0.3666 -0.5021 -0.0973
   95MOL   C21730485   0.155   1.841   0.071 -0.6978  0.0908  0.0275
   95MOL   H21830486   0.301   2.061   7.889 -0.9076 -1.1612  0.2279
   95MOL   H21930487   0.236   2.120   8.039  0.3992  0.3686  0.6173
   95MOL   H22030488   0.385   1.950   0.055 -0.5006 -3.4076  0.7373
   95MOL   H22130489   0.231   1.825   7.853 -0.5666 -1.2188 -0.8454
   95MOL   H22230490   0.016   1.693   7.847 -1.2678 -0.4265  0.7904
   95MOL   H22330491   7.996   1.686   8.048  1.4403 -1.5442 -0.4866
   95MOL   H22430492   8.085   1.791   0.153 -0.1726  2.6766 -0.8231
   95MOL   H22530493   0.188   1.883   0.165  0.4652 -0.2369 -0.2269
   95MOL   C22630494   0.476   1.880   7.998  0.2121 -0.7665 -0.0925
   95MOL   C22730495   0.515   1.736   8.023 -0.2680  0.2803 -0.3151
   95MOL   C22830496   0.610   1.680   7.914  0.6498 -0.4779  0.3797
   95MOL   C22930497   0.733   1.741   7.899 -0.1758  1.2582  0.2373
   95MOL   C23030498   0.815   1.714   7.792 -0.1070  0.8553 -0.4360
   95MOL   C23130499   0.781   1.606   7.705  0.1480 -0.1834 -0.5349
   95MOL   C23230500   0.656   1.539   7.717  0.4321 -0.1367  0.2396
   95MOL   C23330501   0.573   1.583   7.814 -0.2171  0.0032 -0.4780
   95MOL   H23430502   0.561   1.944   8.022 -3.5676  3.6568  2.1596
   95MOL   H23530503   0.462   1.882   7.890  1.4816 -2.3648 -0.3169
   95MOL   H23630504   0.419   1.687   8.006 -0.4438  1.1015 -1.7435
   95MOL   H23730505   0.769   1.817   7.967  2.8554 -0.5406  0.7446
   95MOL   H23830506   0.910   1.764   7.778  0.4833 -0.4463 -1.1156
   95MOL   H23930507   0.851   1.588   7.624 -0.7283  1.6533 -1.7409
   95MOL   H24030508   0.627   1.453   7.658 -1.2591  1.4921 -1.3688
   95MOL   H24130509   0.472   1.544   7.816 -0.4238  0.5258 -0.5374
   95MOL   C24230510   0.557   1.712   0.056  0.3149  0.8555 -0.4717
   95MOL   C24330511   0.479   1.587   0.115  0.5230  0.3037 -0.0540
   95MOL   C24430512   0.490   1.470   0.031 -0.4491  0.1119  0.8061
   95MOL   C24530513   0.617   1.400   0.015  0.3608  0.2224  0.9636
   95MOL   C24630514   0.615   1.284   8.054 -1.0093  0.1336 -0.6463
   95MOL   C24730515   0.498   1.225   8.001 -0.0813 -0.2871  0.1355
   95MOL   C24830516   0.375   1.288   8.027  0.1844  0.5107 -0.1457
   95MOL   C24930517   0.373   1.411   8.099  0.6482  0.2285  0.2750
   95MOL   H25030518   0.534   1.800   0.116  0.0062  0.2661  0.2882
   95MOL   H25130519   0.664   1.693   0.061  0.0794 -0.4962 -0.2382
   95MOL   H25230520   0.373   1.612   0.123  0.6567  0.2346  2.2056
   95MOL   H25330521   0.706   1.436   0.065  1.7613  0.0226 -1.3516
   95MOL   H25430522   0.708   1.229   8.051  0.3290  2.1441  1.9319
   95MOL   H25530523   0.500   1.125   7.958 -0.2137 -0.4886  0.5936
   95MOL   H25630524   0.281   1.253   7.987 -0.5571  1.1777  0.9881
   95MOL   H25730525   0.278   1.463   8.095 -0.8628 -2.3447  1.7927
   95MOL   C25830526   0.521   1.567   0.263 -0.0567  0.1039  0.3204
   95MOL   C25930527   0.439   1.458   0.350  0.4394 -0.5771  0.1930
   95MOL   C26030528   0.503   1.423   0.484  0.4308  0.5108  0.1766
   95MOL   C26130529   0.555   1.518   0.574  1.1461  0.3232  0.6798
   95MOL   C26230530   0.619   1.474   0.689 -0.7179  0.4715 -0.5488
   95MOL   C26330531   0.620   1.345   0.723  0.3807 -0.2729 -0.6932
   95MOL   C26430532   0.561   1.245   0.651 -0.7195  0.3405 -0.1642
   95MOL   C26530533   0.504   1.281   0.524  0.3784  0.1194  0.0531
   95MOL   H26630534   0.524   1.660   0.320  0.9500 -0.8837  1.9217
   95MOL   H26730535   0.625   1.536   0.266 -0.3003 -0.7337  0.2129
   95MOL   H26830536   0.429   1.368   0.290  2.5390 -1.2177  0.7637
   95MOL   H26930537   0.548   1.623   0.550  0.5504  0.5631  1.8558
   95MOL   H27030538   0.660   1.524   0.776 -0.2842 -0.3099 -0.3002
   95MOL   H27130539   0.668   1.320   0.817 -3.1718 -0.3052  1.2155
   95MOL   H27230540   0.571   1.142   0.682  0.3575  0.5100  0.0570
   95MOL   H27330541   0.469   1.209   0.451  2.9894 -0.2695 -0.8552
   95MOL   C27430542   0.293   1.508   0.385 -0.0830 -0.1264  0.2329
   95MOL   C27530543   0.177   1.421   0.328 -0.0795  0.6260 -0.0987
   95MOL   C27630544   0.184   1.274   0.363 -0.0447  0.0745 -0.5978
   95MOL   C27730545   0.214   1.184   0.258 -0.1827 -0.1379  0.3040
   95MOL   C27830546   0.223   1.051   0.280  0.8510 -0.2207 -0.2361
   95MOL   C27930547   0.196   0.996   0.407  0.3824  0.7290  0.1872
   95MOL   C28030548   0.159   1.086   0.513 -0.0415  0.1691  0.0923
   95MOL   C28130549   0.154   1.219   0.490  0.2123 -0.9845 -0.9186
   95MOL   H28230550   0.297   1.605   0.337 -1.2647 -0.4141 -0.4932
   95MOL   H28330551   0.284   1.537   0.489  0.9481 -0.0139  0.2935
   95MOL   H28430552   0.190   1.421   0.220  0.8953  0.4795  0.0154
   95MOL   H28530553   0.244   1.224   0.162  0.3469 -1.9286 -0.2830
   95MOL   H28630554   0.239   0.988   0.194 -2.9712 -1.8160  0.1208
   95MOL   H28730555   0.190   0.890   0.425  0.4825  0.3580 -1.8155
   95MOL   H28830556   0.144   1.049   0.613  1.5081 -1.8588 -0.3725
   95MOL   H28930557   0.115   1.282   0.568  2.1412  0.5703 -1.1630
   95MOL   C29030558   0.040   1.478   0.360 -0.1974  0.6254  0.4251
   95MOL   C29130559   8.039   1.397   0.306  0.1126  0.3734  0.1917
   95MOL   C29230560   7.921   1.433   0.389 -0.0909 -0.8162 -0.2865
   95MOL   C29330561   7.865   1.333   0.474  0.5036  1.0089 -0.2234
   95MOL   C29430562   7.747   1.360   0.549  0.9670  0.4152 -0.3873
   95MOL   C29530563   7.691   1.489   0.550 -0.5433 -0.0525  0.4048
   95MOL   C29630564   7.753   1.587   0.468 -0.8472 -0.7890  0.0599
   95MOL   C29730565   7.862   1.560   0.382  0.0773 -0.1866 -0.6710
   95MOL   H29830566   0.043   1.584   0.335 -0.6874  0.8938  1.4844
   95MOL   H29930567   0.041   1.481   0.469  0.4543  0.3961  0.4297
   95MOL   H30030568   8.051   1.292   0.329  1.0529  0.3358 -0.4655
   95MOL   H30130569   7.915   1.238   0.462  2.6878  2.3119 -1.9432
   95MOL   H30230570   7.705   1.277   0.605  1.1397  0.8504  0.3945
   95MOL   H30330571   7.603   1.515   0.608 -0.8943  2.8686 -1.3607
   95MOL   H30430572   7.713   1.687   0.479 -1.4741 -0.7866 -2.0481
   95MOL   H30530573   7.904   1.631   0.312 -0.2583  1.2284  0.5314
   95MOL   C30630574   8.014   1.410   0.152 -0.1012  0.3550 -0.1575
   95MOL   C30730575   7.912   1.307   0.096  0.2350 -0.4380 -0.3792
   95MOL   C30830576   7.832   1.373   8.092 -0.5398 -0.3366  0.6436
   95MOL   C30930577   7.689   1.368   8.100 -0.7413 -0.7980  0.5553
   95MOL   C31030578   7.606   1.416   7.994 -0.4773 -0.1254 -0.2965
   95MOL   C31130579   7.666   1.472   7.881 -0.4312 -0.4203 -0.2905
   95MOL   C31230580   7.811   1.472   7.872 -0.0043 -0.0606 -0.2746
   95MOL   C31330581   7.896   1.424   7.974 -0.3719  0.1166 -0.1837
   95MOL   H31430582   8.111   1.412   0.101 -0.8698  2.9708 -1.5593
   95MOL   H31530583   7.967   1.508   0.151  0.5035  0.6450 -0.4667
   95MOL   H31630584   7.857   1.261   0.178  2.1684 -3.5286 -0.7174
   95MOL   H31730585   7.635   1.326   0.069 -0.2715  0.5242  1.5416
   95MOL   H31830586   7.500   1.404   8.009 -0.1831 -0.1161  1.8948
   95MOL   H31930587   7.597   1.510   7.807  0.7000  0.3118 -0.9820
   95MOL   H32030588   7.851   1.511   7.780 -0.5906 -0.2313 -0.6002
   95MOL   H32130589   8.003   1.424   7.960 -0.5151  0.2219 -1.2691
   95MOL   H32230590   7.967   1.223   0.054  0.4881 -0.2327 -0.4580
   96MOL     C130591   5.488   7.479   4.636 -0.0365  0.2735 -0.3960
   96MOL     C230592   5.574   7.607   4.625 -0.1266  0.5167  0.4489
   96MOL     C330593   5.725   7.574   4.658  0.2032  0.3371 -0.2219
   96MOL     C430594   5.810   7.508   4.565  0.0078  0.1247 -0.0139
   96MOL     C530595   5.944   7.492   4.600  0.7175  1.0480  0.0986
   96MOL     C630596   5.992   7.536   4.728  0.4410  0.3026  0.0730
   96MOL     C730597   5.904   7.605   4.812  0.5001  0.2119 -0.0075
   96MOL     C830598   5.772   7.627   4.779  0.6319 -0.5051 -0.2305
   96MOL     H930599   5.498   7.427   4.731 -1.6294 -0.2260 -0.4930
   96MOL    H1030600   5.385   7.505   4.613 -0.4264  0.7751  1.7890
   96MOL    H1130601   5.532   7.666   4.707  0.5835 -1.2954  2.1370
   96MOL    H1230602   5.761   7.475   4.474 -0.5771  0.2944  0.2392
   96MOL    H1330603   6.009   7.425   4.547  0.4149 -1.2714  2.5233
   96MOL    H1430604   6.093   7.505   4.753  0.5577 -0.7651 -1.6972
   96MOL    H1530605   5.935   7.641   4.909  1.5356 -1.7679  0.4272
   96MOL    H1630606   5.710   7.683   4.847  0.2688 -0.5675 -0.5128
   96MOL    H1730607   5.523   7.401   4.569  0.5508  0.2666 -0.0872
   96MOL    C1830608   5.549   7.679   4.493  0.3188 -0.1199 -1.0899
   96MOL    C1930609   5.639   7.801   4.462  0.3866 -0.0892  0.9970
   96MOL    C2030610   5.618   7.864   4.330  0.8712  0.0468 -0.0959
   96MOL    C2130611   5.500   7.830   4.251  0.7538  0.2751  0.3562
   96MOL    C2230612   5.476   7.873   4.119  0.4279 -0.1832 -0.7647
   96MOL    C2330613   5.558   7.983   4.077 -0.0470 -0.1775 -0.4952
   96MOL    C2430614   5.670   8.024   4.157  0.9997 -0.3253  0.1871
   96MOL    C2530615   5.700   7.958   4.275  0.5617 -0.0214 -0.3305
   96MOL    H2630616   5.443   7.705   4.492  0.9984  2.8145 -0.7135
   96MOL    H2730617   5.558   7.603   4.415  0.4895  0.3425 -1.5213
   96MOL    H2830618   5.742   7.769   4.443 -0.2853 -1.3573 -0.6430
   96MOL    H2930619   5.430   7.752   4.278  1.3633 -0.5043 -0.2769
   96MOL    H3030620   5.384   7.858   4.064 -1.9463  2.5538  2.2541
   96MOL    H3130621   5.532   8.034   3.986  0.5433  1.4213  0.2161
   96MOL    H3230622   5.739   8.102   4.127 -1.1587  1.0902 -1.2643
   96MOL    H3330623   5.796   7.969   4.323 -0.3004  1.4449  1.1661
   96MOL    C3430624   5.637   7.915   4.572 -0.9321 -0.4463  0.1383
   96MOL    C3530625   5.506   7.979   4.621 -0.4217  0.4988 -0.3041
   96MOL    C3630626   5.529   8.072   4.745  0.0403 -0.3021 -0.0887
   96MOL    C3730627   5.625   0.061   4.755 -0.1948 -0.1655  0.3246
   96MOL    C3830628   5.634   0.149   4.865  0.3761  0.1395 -0.1017
   96MOL    C3930629   5.548   0.139   4.973  0.2139 -0.0228  0.1603
   96MOL    C4030630   5.445   0.043   4.957 -0.2296  0.0736 -0.3450
   96MOL    C4130631   5.431   8.071   4.847 -0.0292 -0.5676  0.8428
   96MOL    H4230632   5.705   7.996   4.548  1.2663 -2.0806  0.6856
   96MOL    H4330633   5.693   7.868   4.653  2.7552  0.9746 -1.4787
   96MOL    H4430634   5.443   7.897   4.654 -0.2807  0.7996  0.7195
   96MOL    H4530635   5.687   0.076   4.668 -0.7703  0.0312 -0.0592
   96MOL    H4630636   5.713   0.223   4.859  1.1678 -0.5429  1.5996
   96MOL    H4730637   5.562   0.208   5.055  1.9110  1.2403 -1.1488
   96MOL    H4830638   5.374   0.036   5.039 -0.7809 -1.1090 -0.9034
   96MOL    H4930639   5.348   8.003   4.833  0.0352 -0.6431  0.8288
   96MOL    C5030640   5.429   8.058   4.513 -0.0710  0.4015  1.0246
   96MOL    C5130641   5.289   7.998   4.476 -0.0243  0.1405 -0.3993
   96MOL    C5230642   5.189   8.008   4.587  0.6020  0.4383 -0.2838
   96MOL    C5330643   5.135   0.019   4.638 -0.3901 -0.8924  0.4247
   96MOL    C5430644   5.038   0.020   4.733 -0.2227  0.1968  0.0851
   96MOL    C5530645   4.992   8.014   4.784  0.0889  0.2853  0.5887
   96MOL    C5630646   5.037   7.888   4.740  0.1408  0.8079 -0.1796
   96MOL    C5730647   5.141   7.886   4.647  0.2701  0.4785 -0.9565
   96MOL    H5830648   5.492   8.073   4.425  0.0590  0.4823  1.1321
   96MOL    H5930649   5.409   0.047   4.539  1.2884  1.1683 -0.8517
   96MOL    H6030650   5.299   7.892   4.455 -1.1088  0.0662 -0.5886
   96MOL    H6130651   5.168   0.106   4.584 -0.8713 -0.1583  1.2803
   96MOL    H6230652   4.990   0.110   4.768 -0.3815  0.9065 -1.8899
   96MOL    H6330653   4.911   8.009   4.856 -0.5400 -0.2779 -0.1560
   96MOL    H6430654   4.993   7.797   4.777 -0.7702  2.0996  2.0628
   96MOL    H6530655   5.176   7.787   4.623 -0.0872 -0.0847  0.7779
   96MOL    C6630656   5.255   8.063   4.342  0.2930  0.6486 -0.6397
   96MOL    C6730657   5.121   8.011   4.282  0.2006  0.1096  0.3304
   96MOL    C6830658   5.049   0.010   4.213  0.3070  0.0866 -0.3571
   96MOL    C6930659   5.120   0.074   4.111 -0.0693  0.0522  0.2200
   96MOL    C7030660   5.055   0.172   4.034  0.6054 -0.0447  0.3183
   96MOL    C7130661   4.932   0.216   4.070 -0.3612  0.0395  0.2934
   96MOL    C7230662   4.864   0.153   4.176  0.0953 -0.2435  0.2987
   96MOL    C7330663   4.919   0.047   4.246  0.6078  0.0972 -0.1870
   96MOL    H7430664   5.339   8.043   4.275  1.3505 -0.3310  0.9606
   96MOL    H7530665   5.252   0.055   4.360 -0.3074  0.3903  0.8664
   96MOL    H7630666   5.064   7.984   4.372 -0.3753 -0.3524 -0.1645
   96MOL    H7730667   5.222   0.048   4.087 -0.4674  0.0142 -1.5615
   96MOL    H7830668   5.105   0.234   3.961 -2.6396  0.5027 -1.4894
   96MOL    H7930669   4.895   0.303   4.017  0.3682  0.9450  1.2424
   96MOL    H8030670   4.772   0.200   4.208  0.5443  0.3522  0.7086
   96MOL    H8130671   4.865   8.105   4.320 -0.4059 -0.1311 -1.0753
   96MOL    C8230672   5.141   7.888   4.192 -0.3415 -0.1273  0.2824
   96MOL    C8330673   5.006   7.811   4.151 -0.3511  0.6526  0.4098
   96MOL    C8430674   5.040   7.720   4.033  0.9907 -0.0714  0.1444
   96MOL    C8530675   4.984   7.749   3.907 -0.5866  0.3138 -0.6470
   96MOL    C8630676   5.003   7.652   3.811  0.1660 -0.0813 -0.0930
   96MOL    C8730677   5.072   7.534   3.826  0.1047 -0.2047  0.8660
   96MOL    C8830678   5.139   7.516   3.944 -0.6290  0.9149  0.1508
   96MOL    C8930679   5.124   7.604   4.049 -0.4579 -0.6648 -0.5452
   96MOL    H9030680   5.209   7.818   4.240 -1.7802 -0.6872  1.5347
   96MOL    H9130681   5.186   7.916   4.097  1.4874 -1.6746  0.6532
   96MOL    H9230682   4.942   7.890   4.114  1.5376  2.1433  0.2867
   96MOL    H9330683   4.920   7.832   3.881 -1.4244 -0.4537 -1.0751
   96MOL    H9430684   4.967   7.677   3.712 -3.5997 -0.1527  1.2085
   96MOL    H9530685   5.086   7.470   3.741 -1.6497  0.7546 -0.1851
   96MOL    H9630686   5.205   7.431   3.955 -1.2295  0.4411  0.0853
   96MOL    H9730687   5.163   7.590   4.149 -1.7138 -0.5287 -0.0283
   96MOL    C9830688   4.931   7.747   4.267  0.0363  0.2289  0.0696
   96MOL    C9930689   4.811   7.649   4.233 -0.3812  0.0078 -0.6611
   96MOL   C10030690   4.760   7.570   4.357 -0.0375 -0.3925  0.8587
   96MOL   C10130691   4.672   7.464   4.345  0.0975  0.3668 -0.8958
   96MOL   C10230692   4.607   7.406   4.455 -0.0823  0.0100  0.7065
   96MOL   C10330693   4.669   7.435   4.579 -0.2987 -0.0982 -0.1694
   96MOL   C10430694   4.765   7.530   4.602  0.4581 -0.5300 -0.1888
   96MOL   C10530695   4.806   7.598   4.490  0.0688  0.1554 -0.4391
   96MOL   H10630696   4.914   7.814   4.351  0.8338 -3.2804  3.1646
   96MOL   H10730697   5.002   7.676   4.311 -0.0935 -0.5745 -1.0185
   96MOL   H10830698   4.846   7.570   4.168 -0.4397  0.1303 -0.8408
   96MOL   H10930699   4.656   7.424   4.246  4.1356  0.0392 -1.4991
   96MOL   H11030700   4.539   7.324   4.437 -0.8872  0.5105  1.4959
   96MOL   H11130701   4.634   7.378   4.664 -1.8157 -1.7765 -1.8677
   96MOL   H11230702   4.797   7.569   4.698  0.1668 -1.7901  0.4194
   96MOL   H11330703   4.863   7.683   4.523  1.6516 -1.4135  0.9585
   96MOL   C11430704   4.692   7.722   4.157 -0.3016 -0.2938 -0.1484
   96MOL   C11530705   4.647   7.859   4.215  0.3596  0.1694 -0.2606
   96MOL   C11630706   4.573   7.948   4.109  0.3221  0.1067 -0.1395
   96MOL   C11730707   4.431   7.928   4.085  0.0027 -0.3972  0.1063
   96MOL   C11830708   4.360   8.016   3.999  0.4825 -0.2255  0.6066
   96MOL   C11930709   4.430   0.000   3.931  0.7914  0.8754  0.2656
   96MOL   C12030710   4.571   0.015   3.951  0.6925 -0.5490  0.2185
   96MOL   C12130711   4.641   8.053   4.041 -0.1507 -0.2493  0.5108
   96MOL   H12230712   4.602   7.662   4.146  0.4399 -1.5717  0.7010
   96MOL   H12330713   4.730   7.745   4.057  1.5223  0.1376  0.6277
   96MOL   H12430714   4.736   7.909   4.253 -0.7350  1.6853  0.3424
   96MOL   H12530715   4.377   7.848   4.132  0.5235 -0.3913  0.7150
   96MOL   H12630716   4.253   8.005   3.987  0.1190  0.9870  2.3780
   96MOL   H12730717   4.367   0.060   3.866 -0.1188 -1.0792 -0.6886
   96MOL   H12830718   4.615   0.106   3.913  2.1686  0.1875  3.5399
   96MOL   H12930719   4.748   8.073   4.044 -0.0990  0.1117 -2.1332
   96MOL   C13030720   4.553   7.826   4.346  0.6026 -0.0026  0.3887
   96MOL   C13130721   4.564   7.913   4.476  0.0753  0.9027  0.1771
   96MOL   C13230722   4.610   8.058   4.457  0.0183  0.3914 -0.0720
   96MOL   C13330723   4.532   0.034   4.382 -0.2814 -0.8340 -0.7909
   96MOL   C13430724   4.567   0.172   4.386 -0.0307  0.1046 -0.4826
   96MOL   C13530725   4.674   0.215   4.465 -0.2407  0.1583 -0.3021
   96MOL   C13630726   4.749   0.129   4.544 -0.1721  0.1639  0.3727
   96MOL   C13730727   4.719   8.103   4.535  0.6016 -0.3642 -0.2997
   96MOL   H13830728   4.550   7.720   4.371  0.1513  0.0341  0.4919
   96MOL   H13930729   4.446   7.827   4.324  0.4714  0.0519  1.0291
   96MOL   H14030730   4.643   7.864   4.533 -1.3241 -2.0548 -0.3604
   96MOL   H14130731   4.436   8.114   4.349 -1.4138  1.1386  0.3292
   96MOL   H14230732   4.486   0.231   4.345 -0.1672 -0.0891 -0.4897
   96MOL   H14330733   4.706   0.317   4.461 -0.1142  0.1113 -0.4750
   96MOL   H14430734   4.842   0.162   4.589 -0.1499 -1.6771  1.7314
   96MOL   H14530735   4.772   8.031   4.595 -1.0991 -1.2355  0.1864
   96MOL   C14630736   4.431   7.914   4.545 -0.8041 -0.1531 -0.1887
   96MOL   C14730737   4.392   7.784   4.621 -0.2902 -0.7239 -0.8241
   96MOL   C14830738   4.434   7.808   4.767 -0.4196 -0.4202  0.4444
   96MOL   C14930739   4.543   7.735   4.822 -0.4100 -0.2060  0.2387
   96MOL   C15030740   4.591   7.771   4.949  0.2551 -0.2160 -0.3771
   96MOL   C15130741   4.522   7.873   5.023 -0.3737 -0.6071 -0.2146
   96MOL   C15230742   4.414   7.944   4.967 -0.1331 -0.4599 -0.1848
   96MOL   C15330743   4.370   7.909   4.840 -0.1485 -0.0154  0.0450
   96MOL   H15430744   4.353   7.932   4.471  0.4358  2.2385 -0.9758
   96MOL   H15530745   4.419   8.004   4.606 -1.4649 -1.2861  1.3825
   96MOL   H15630746   4.461   7.709   4.583  0.2078 -0.3665 -0.6263
   96MOL   H15730747   4.589   7.651   4.772  1.5636  0.7715  0.3311
   96MOL   H15830748   4.675   7.722   4.996 -0.7195 -0.5452  1.0500
   96MOL   H15930749   4.561   7.903   5.119 -0.1018  1.6497 -0.9956
   96MOL   H16030750   4.362   8.024   5.017  2.2401  1.4146 -0.5958
   96MOL   H16130751   4.294   7.963   4.786  1.8878  1.3116 -1.6005
   96MOL   C16230752   4.245   7.745   4.619  0.9971 -0.2421 -0.0569
   96MOL   C16330753   4.186   7.692   4.492 -0.1194  0.8766  0.2379
   96MOL   C16430754   4.227   7.546   4.454 -0.3671 -0.9841 -0.8101
   96MOL   C16530755   4.269   7.511   4.320  0.0487  0.6679 -0.1719
   96MOL   C16630756   4.303   7.375   4.285 -0.2758  0.3378 -0.1014
   96MOL   C16730757   4.294   7.272   4.380 -0.0653 -0.5979  0.6523
   96MOL   C16830758   4.258   7.303   4.516 -0.6248 -0.2727  0.3744
   96MOL   C16930759   4.228   7.438   4.547  0.2386 -0.0168 -0.8232
   96MOL   H17030760   4.191   7.832   4.657 -0.4846 -1.2471  0.1641
   96MOL   H17130761   4.220   7.675   4.699 -0.3177 -0.4842 -0.6529
   96MOL   H17230762   4.207   7.759   4.409 -2.6541 -0.1971 -1.3031
   96MOL   H17330763   4.290   7.593   4.253 -2.1035 -0.5132 -2.3348
   96MOL   H17430764   4.324   7.344   4.184 -0.5173  0.3834 -0.1656
   96MOL   H17530765   4.310   7.174   4.336 -2.5505 -0.5226 -0.5125
   96MOL   H17630766   4.259   7.232   4.598  0.8098  0.7058  1.2169
   96MOL   H17730767   4.201   7.455   4.651  2.8409  1.3298 -0.3358
   96MOL   C17830768   4.034   7.696   4.499  0.1701 -0.0223  0.3636
   96MOL   C17930769   3.950   7.660   4.372  0.2708  0.1614 -0.3809
   96MOL   C18030770   3.895   7.517   4.389  0.3234  0.3246 -0.1073
   96MOL   C18130771   3.786   7.503   4.476 -0.3534  0.5800 -0.1367
   96MOL   C18230772   3.734   7.371   4.493 -0.3926 -0.0457  0.2717
   96MOL   C18330773   3.798   7.258   4.428 -0.7386  0.0054 -0.6372
   96MOL   C18430774   3.903   7.277   4.344  0.3947 -0.2098  0.1342
   96MOL   C18530775   3.952   7.405   4.322  0.1030 -0.4684  0.1244
   96MOL   H18630776   4.013   7.799   4.528  0.1123 -0.1371  0.7322
   96MOL   H18730777   3.999   7.648   4.590 -1.3106  1.8242  0.7943
   96MOL   H18830778   4.025   7.652   4.294  0.9494  0.1904  0.2605
   96MOL   H18930779   3.737   7.592   4.513 -2.6849  0.0665 -1.9175
   96MOL   H19030780   3.649   7.348   4.555  0.6182  2.2370  2.5971
   96MOL   H19130781   3.762   7.159   4.451 -0.9142 -0.1844 -1.6944
   96MOL   H19230782   3.929   7.192   4.282 -3.7913  0.0043 -2.0893
   96MOL   H19330783   4.035   7.420   4.255 -1.0581 -2.4036 -1.8040
   96MOL   C19430784   3.851   7.766   4.327  0.2558 -0.0197 -0.4463
   96MOL   C19530785   3.925   7.873   4.247  0.6127 -0.3987 -0.4673
   96MOL   C19630786   3.955   7.826   4.103  0.1983 -0.0287 -0.2693
   96MOL   C19730787   4.087   7.791   4.067 -0.1967 -0.0564  0.3745
   96MOL   C19830788   4.114   7.756   3.933 -0.0070  1.0566  0.8411
   96MOL   C19930789   4.008   7.740   3.840 -0.8316  0.3626 -0.0379
   96MOL   C20030790   3.880   7.767   3.883  0.8095 -0.2923 -0.0888
   96MOL   C20130791   3.854   7.811   4.012  0.9678 -0.5592 -0.4111
   96MOL   H20230792   3.792   7.795   4.415 -0.2690  1.8118 -1.3734
   96MOL   H20330793   3.771   7.720   4.270 -0.6939  0.7787  0.2128
   96MOL   H20430794   4.021   7.889   4.296  0.5523 -1.5373  0.0229
   96MOL   H20530795   4.165   7.816   4.137 -0.6743  1.6638  0.3208
   96MOL   H20630796   4.214   7.731   3.900 -0.2310  2.4218 -0.9677
   96MOL   H20730797   4.025   7.699   3.741  0.1695  1.2993 -0.2614
   96MOL   H20830798   3.803   7.754   3.809  0.9859 -1.8001 -0.0269
   96MOL   H20930799   3.754   7.825   4.051  1.7875 -1.6885  2.2554
   96MOL   C21030800   3.842   8.005   4.248 -0.5127  0.4963 -0.4170
   96MOL   C21130801   3.919   0.020   4.247 -0.3720 -0.0572 -0.1330
   96MOL   C21230802   3.990   0.058   4.381  0.1603  0.1857 -0.8411
   96MOL   C21330803   3.913   0.086   4.500 -0.2374 -0.1976 -0.2651
   96MOL   C21430804   3.981   0.106   4.624  0.2163 -0.6387 -0.0175
   96MOL   C21530805   4.123   0.103   4.630  0.3788  0.3778 -0.4745
   96MOL   C21630806   4.197   0.089   4.512 -0.2312 -0.4331 -0.5349
   96MOL   C21730807   4.128   0.058   4.393  0.3752 -0.7137  0.0136
   96MOL   H21830808   3.776   8.009   4.335 -0.3995 -0.7306 -0.2622
   96MOL   H21930809   3.763   8.004   4.173 -0.2159  1.1240 -0.7364
   96MOL   H22030810   3.850   0.102   4.227  0.0099  0.0729 -0.9456
   96MOL   H22130811   3.805   0.076   4.503 -0.2133 -0.7803 -1.2939
   96MOL   H22230812   3.928   0.121   4.717 -1.3908 -0.0932 -1.0079
   96MOL   H22330813   4.165   0.114   4.730  3.8039 -0.8897 -1.6981
   96MOL   H22430814   4.304   0.102   4.511 -0.4359  1.5360 -0.1045
   96MOL   H22530815   4.192   0.043   4.307 -0.6159 -3.0130 -0.3548
   96MOL   C22630816   4.016   0.039   4.125 -1.0443 -0.2197  0.4800
   96MOL   C22730817   3.953   0.065   3.982 -0.7030  0.7056  0.2058
   96MOL   C22830818   3.891   0.205   3.968 -0.2981 -0.4680 -0.0734
   96MOL   C22930819   3.969   0.322   4.002 -0.0815  0.2644  0.3961
   96MOL   C23030820   3.920   0.452   3.973  0.2613 -0.0906 -0.6748
   96MOL   C23130821   3.786   0.465   3.929  0.4697 -0.1816 -1.1813
   96MOL   C23230822   3.709   0.354   3.903 -0.1153 -0.2638  0.4495
   96MOL   C23330823   3.760   0.224   3.923  0.5499 -0.2414 -0.1934
   96MOL   H23430824   4.087   8.072   4.110 -1.1892  0.0331 -1.7646
   96MOL   H23530825   4.080   0.123   4.152 -0.9079 -0.8010  2.0012
   96MOL   H23630826   3.870   8.111   3.970 -0.7555  0.7368  0.4009
   96MOL   H23730827   4.069   0.313   4.043  0.1218  0.3329 -0.0858
   96MOL   H23830828   3.989   0.534   3.988 -0.3591  0.2356  0.5419
   96MOL   H23930829   3.756   0.563   3.895  0.5564  0.2909  0.0708
   96MOL   H24030830   3.606   0.356   3.870 -0.6041 -2.3938  1.7559
   96MOL   H24130831   3.704   0.138   3.889  0.5651 -0.4939  0.4162
   96MOL   C24230832   4.047   0.033   3.861  0.0664  0.1253 -0.5747
   96MOL   C24330833   4.001   0.067   3.717 -0.0710  0.5765  0.4933
   96MOL   C24430834   4.117   0.085   3.618 -0.3040 -0.0703  1.0492
   96MOL   C24530835   4.138   0.211   3.555  0.3903  0.3911  0.5510
   96MOL   C24630836   4.236   0.215   3.452 -0.6287 -0.2300 -0.7390
   96MOL   C24730837   4.317   0.106   3.415 -0.1259  0.0503 -0.4422
   96MOL   C24830838   4.309   8.102   3.494 -0.3885  0.0981 -0.0371
   96MOL   C24930839   4.206   8.094   3.590  0.0794 -0.3805  0.3875
   96MOL   H25030840   4.071   8.041   3.858 -1.5321 -0.3339  1.2957
   96MOL   H25130841   4.139   0.084   3.885 -0.5313  0.9304  0.0239
   96MOL   H25230842   3.949   0.163   3.716 -0.7335  0.2631 -3.9433
   96MOL   H25330843   4.068   0.292   3.569 -1.7521 -1.6674  2.0307
   96MOL   H25430844   4.257   0.307   3.400  2.4673  0.4595  1.5429
   96MOL   H25530845   4.391   0.119   3.337  3.1878  0.1806  2.6076
   96MOL   H25630846   4.378   8.020   3.480 -0.8132 -0.4504  0.9286
   96MOL   H25730847   4.205   8.009   3.656 -0.3957 -0.2381  0.5610
   96MOL   C25830848   3.893   8.083   3.669 -0.0766  0.0805 -0.2480
   96MOL   C25930849   3.814   0.013   3.543 -0.5448  0.0628  0.5535
   96MOL   C26030850   3.780   8.008   3.456  0.1290  0.0166 -0.6178
   96MOL   C26130851   3.668   7.921   3.478 -0.2484 -0.0324 -0.5525
   96MOL   C26230852   3.645   7.819   3.387 -0.0103  0.5380  0.9623
   96MOL   C26330853   3.727   7.798   3.276  0.6192  0.4137 -0.4059
   96MOL   C26430854   3.840   7.882   3.252  0.0233 -0.6518 -0.4376
   96MOL   C26530855   3.869   7.978   3.349 -0.2400 -0.1528  0.1290
   96MOL   H26630856   3.839   8.063   3.761  0.7215  3.2208  0.9590
   96MOL   H26730857   3.960   8.001   3.643  2.7100  1.5796  1.9814
   96MOL   H26830858   3.880   0.077   3.485  1.4134 -2.1485  0.3002
   96MOL   H26930859   3.604   7.927   3.564  3.1714  0.2552  2.0560
   96MOL   H27030860   3.567   7.748   3.411 -1.8783  1.0812 -3.0610
   96MOL   H27130861   3.705   7.713   3.213  1.6280 -0.6440  0.6644
   96MOL   H27230862   3.896   7.861   3.162  0.9435 -2.4707  0.5285
   96MOL   H27330863   3.944   8.053   3.328 -0.5785  0.3280  0.6238
   96MOL   C27430864   3.697   0.097   3.590 -0.4092 -0.1840  0.2650
   96MOL   C27530865   3.627   0.165   3.471  1.0787 -0.4467 -0.5352
   96MOL   C27630866   3.481   0.193   3.512 -0.0595 -1.0138  0.1006
   96MOL   C27730867   3.446   0.323   3.551  0.1131  0.9314  0.2588
   96MOL   C27830868   3.314   0.352   3.575  0.1336  0.6291  0.4575
   96MOL   C27930869   3.211   0.256   3.565  0.2965 -0.2304 -0.4616
   96MOL   C28030870   3.253   0.127   3.528  0.3790 -0.0112 -0.1805
   96MOL   C28130871   3.388   0.091   3.507 -0.0880  0.4537 -0.3973
   96MOL   H28230872   3.725   0.164   3.671  0.5247  1.3736 -1.3134
   96MOL   H28330873   3.630   0.026   3.639 -1.6476  0.2256 -0.7990
   96MOL   H28430874   3.606   0.092   3.393 -2.1457 -1.6481  1.3780
   96MOL   H28530875   3.521   0.400   3.563  0.2346  0.7689  0.5411
   96MOL   H28630876   3.286   0.455   3.592 -3.0013 -0.1703  0.3319
   96MOL   H28730877   3.110   0.293   3.568  1.0287  1.8220 -0.0766
   96MOL   H28830878   3.179   0.051   3.505 -0.5859  0.6789  0.5573
   96MOL   H28930879   3.414   8.107   3.472 -0.8816 -0.0671  0.4596
   96MOL   C29030880   3.710   0.285   3.407 -0.0210 -0.0899 -0.2661
   96MOL   C29130881   3.649   0.330   3.276  0.7050 -0.7388  0.2106
   96MOL   C29230882   3.650   0.481   3.263 -0.1348  0.7897 -0.7056
   96MOL   C29330883   3.762   0.561   3.289  0.7640  0.0295  0.1434
   96MOL   C29430884   3.758   0.699   3.257 -0.4439 -0.4436 -0.5467
   96MOL   C29530885   3.643   0.755   3.201 -0.0982  0.3074  0.1217
   96MOL   C29630886   3.533   0.677   3.171 -0.5920 -0.4873  0.2993
   96MOL   C29730887   3.536   0.540   3.209 -0.5941 -0.2228 -0.7195
   96MOL   H29830888   3.811   0.244   3.395  0.3460  0.8613 -0.4342
   96MOL   H29930889   3.710   0.366   3.480  3.7188 -0.0367 -0.2431
   96MOL   H30030890   3.543   0.304   3.276  0.3812  0.5299 -0.9327
   96MOL   H30130891   3.853   0.514   3.323  0.5603 -1.2178 -1.0277
   96MOL   H30230892   3.844   0.763   3.264  0.7340 -1.9113 -1.2992
   96MOL   H30330893   3.638   0.858   3.169 -0.0662 -0.2667 -1.8287
   96MOL   H30430894   3.455   0.716   3.106  0.9992 -0.0381 -1.3727
   96MOL   H30530895   3.455   0.477   3.176  0.0706 -1.3890 -0.1453
   96MOL   C30630896   3.720   0.269   3.153 -0.2918  0.6071 -0.3406
   96MOL   C30730897   3.719   0.114   3.140 -0.6635 -0.3494  0.5235
   96MOL   C30830898   3.753   0.065   2.996  0.1913  0.3361 -0.4061
   96MOL   C30930899   3.728   8.044   2.958 -0.2451  0.7703 -0.5438
   96MOL   C31030900   3.743   7.995   2.825  1.0961 -0.2952 -0.0030
   96MOL   C31130901   3.780   8.086   2.725 -1.0428 -0.3934  0.0635
   96MOL   C31230902   3.811   0.102   2.761 -0.4514 -0.0022  0.5474
   96MOL   C31330903   3.794   0.150   2.892  0.0074 -0.3238  0.0210
   96MOL   H31430904   3.823   0.306   3.150  0.7900 -2.2314 -0.2688
   96MOL   H31530905   3.667   0.297   3.062  0.7882 -3.0985 -2.2110
   96MOL   H31630906   3.626   0.065   3.167 -1.9861  2.7238  1.8058
   96MOL   H31730907   3.689   7.983   3.038 -1.5026 -0.4347 -2.0444
   96MOL   H31830908   3.718   7.893   2.802 -1.3736  0.4783 -0.8992
   96MOL   H31930909   3.784   8.057   2.621  0.6958  0.5571 -0.1394
   96MOL   H32030910   3.848   0.167   2.683  4.9928 -3.3529  0.0381
   96MOL   H32130911   3.822   0.253   2.908  1.2161 -0.2915 -2.1162
   96MOL   H32230912   3.791   0.072   3.210 -0.5933 -1.8406 -0.4356
   97MOL     C130913   5.722   4.680   6.241  0.6986 -0.1580  0.0369
   97MOL     C230914   5.677   4.817   6.286 -0.6604  0.0893 -0.6972
   97MOL     C330915   5.785   4.895   6.358  0.1532  0.1580  0.2916
   97MOL     C430916   5.904   4.929   6.295  0.9942  0.2525  0.2448
   97MOL     C530917   5.999   5.003   6.362 -0.0229  0.1047  0.1639
   97MOL     C630918   5.969   5.057   6.486 -0.3818  0.2739  0.0113
   97MOL     C730919   5.852   5.032   6.552  0.7316  0.2274  0.1941
   97MOL     C830920   5.763   4.948   6.489  0.0966  0.0089  0.2670
   97MOL     H930921   5.652   4.626   6.177  0.0016  1.9475 -1.0070
   97MOL    H1030922   5.821   4.676   6.195  0.5073 -1.3379 -0.2877
   97MOL    H1130923   5.592   4.793   6.349 -2.4682 -1.8353 -3.7064
   97MOL    H1230924   5.921   4.891   6.196  2.0799  2.4534 -0.4280
   97MOL    H1330925   6.099   5.027   6.328 -0.6712  2.9497  0.0898
   97MOL    H1430926   6.041   5.119   6.537 -0.8110  2.0869 -1.5514
   97MOL    H1530927   5.830   5.083   6.645 -1.5388 -0.1239 -0.1148
   97MOL    H1630928   5.672   4.924   6.542  0.8881 -1.8096  0.8286
   97MOL    H1730929   5.733   4.619   6.331 -0.5399  1.7189  1.4882
   97MOL    C1830930   5.610   4.907   6.183 -0.6342  0.6842 -0.6528
   97MOL    C1930931   5.496   4.843   6.094  0.5159  0.5435  1.0582
   97MOL    C2030932   5.368   4.809   6.180 -0.1931  0.2084 -0.2845
   97MOL    C2130933   5.338   4.673   6.206 -0.3235 -0.1699  0.3175
   97MOL    C2230934   5.213   4.635   6.263  0.4073 -0.6043  0.1482
   97MOL    C2330935   5.124   4.735   6.307 -0.1637  0.0043 -1.5247
   97MOL    C2430936   5.153   4.867   6.267  0.3247 -0.3420 -0.0606
   97MOL    C2530937   5.274   4.907   6.204  0.1758  0.1206  0.9549
   97MOL    H2630938   5.692   4.941   6.119  0.1358  0.3412  0.1349
   97MOL    H2730939   5.576   4.994   6.239  2.9807  1.5655  0.3432
   97MOL    H2830940   5.536   4.745   6.068  0.0176  0.9120 -1.1538
   97MOL    H2930941   5.408   4.598   6.173  1.3118  1.7489 -0.7216
   97MOL    H3030942   5.189   4.530   6.271 -1.5444 -0.2987 -1.4981
   97MOL    H3130943   5.030   4.700   6.346 -0.1237 -0.8342 -2.1638
   97MOL    H3230944   5.075   4.941   6.276 -0.1946 -0.7787 -0.9426
   97MOL    H3330945   5.290   5.007   6.168  0.9481  0.2080  1.5408
   97MOL    C3430946   5.480   4.931   5.965 -0.1458  0.1469  0.4398
   97MOL    C3530947   5.364   4.901   5.864 -0.4068 -0.7117  0.8049
   97MOL    C3630948   5.359   5.008   5.749 -0.4900  0.1466 -0.7253
   97MOL    C3730949   5.476   5.027   5.669 -0.1123  0.5171  0.4176
   97MOL    C3830950   5.482   5.125   5.570 -0.0950 -0.3050  0.1943
   97MOL    C3930951   5.367   5.203   5.539  0.1403  0.4457  0.0312
   97MOL    C4030952   5.255   5.196   5.626 -0.0969 -0.7482  1.0602
   97MOL    C4130953   5.248   5.101   5.730  0.4593  0.5984  0.1561
   97MOL    H4230954   5.573   4.926   5.909  0.3705  0.4416  1.2633
   97MOL    H4330955   5.471   5.034   6.000 -0.4515 -0.4565  2.2195
   97MOL    H4430956   5.269   4.901   5.916  0.1253 -0.5558  1.7906
   97MOL    H4530957   5.558   4.959   5.689 -1.4130 -1.1173  0.4007
   97MOL    H4630958   5.577   5.142   5.520 -0.5459  1.6557 -0.0485
   97MOL    H4730959   5.360   5.273   5.456 -0.7637 -2.2134 -2.2027
   97MOL    H4830960   5.169   5.260   5.616  1.1368  0.7436 -0.2080
   97MOL    H4930961   5.150   5.089   5.775  1.9475  2.0972  4.0070
   97MOL    C5030962   5.376   4.767   5.797 -0.2386 -0.5386 -0.7347
   97MOL    C5130963   5.276   4.659   5.837 -0.3570  0.2803  0.0154
   97MOL    C5230964   5.129   4.707   5.841 -0.2479  0.0691  0.0978
   97MOL    C5330965   5.048   4.697   5.956 -0.2172  0.2624 -0.0518
   97MOL    C5430966   4.924   4.764   5.962  0.0566 -0.6044  0.1905
   97MOL    C5530967   4.876   4.844   5.852  0.5098 -0.0526 -0.0686
   97MOL    C5630968   4.959   4.844   5.735  0.1664 -0.2001 -0.4148
   97MOL    C5730969   5.082   4.780   5.726  0.7031 -0.2060 -0.3367
   97MOL    H5830970   5.481   4.739   5.783 -0.0672 -1.0727  1.4715
   97MOL    H5930971   5.360   4.773   5.689  1.8184  1.7902 -0.9563
   97MOL    H6030972   5.307   4.628   5.937 -2.1944 -2.4490 -0.2163
   97MOL    H6130973   5.076   4.651   6.049  2.8714  1.6577 -0.2193
   97MOL    H6230974   4.873   4.769   6.057  1.0164  0.0509  0.6752
   97MOL    H6330975   4.781   4.895   5.860  0.0187 -1.1240  1.1748
   97MOL    H6430976   4.919   4.893   5.647 -0.1739 -2.4004 -1.5188
   97MOL    H6530977   5.142   4.769   5.637  2.4286 -1.0023  0.8819
   97MOL    C6630978   5.277   4.538   5.748 -0.3506  0.3077  0.6106
   97MOL    C6730979   5.412   4.451   5.765  0.1024  0.3601  0.2458
   97MOL    C6830980   5.443   4.404   5.906  0.1926 -0.5033  0.1102
   97MOL    C6930981   5.363   4.298   5.966 -0.2600  0.7052  0.3531
   97MOL    C7030982   5.414   4.228   6.077  0.7514  0.4639 -0.3306
   97MOL    C7130983   5.536   4.267   6.137  0.0569  0.5915 -0.1870
   97MOL    C7230984   5.609   4.377   6.079  0.6184  0.6688  0.5319
   97MOL    C7330985   5.567   4.438   5.961  0.0380 -0.0730  0.1699
   97MOL    H7430986   5.259   4.568   5.645 -0.7664 -1.0683  0.2691
   97MOL    H7530987   5.194   4.473   5.777 -0.0580 -1.7822 -2.9842
   97MOL    H7630988   5.491   4.513   5.723  1.1082 -1.2857 -0.3241
   97MOL    H7730989   5.275   4.266   5.913  0.5926 -0.8975 -0.1007
   97MOL    H7830990   5.368   4.140   6.120  4.9096 -0.4566  2.4606
   97MOL    H7930991   5.576   4.231   6.230  0.2810  2.3664  0.4185
   97MOL    H8030992   5.705   4.406   6.120  0.8077  0.8559 -0.0362
   97MOL    H8130993   5.631   4.514   5.920  0.8174  1.8821  4.7737
   97MOL    C8230994   5.413   4.330   5.676  0.5438  0.0501  0.0817
   97MOL    C8330995   5.426   4.351   5.527  0.0615 -0.7055  0.4550
   97MOL    C8430996   5.562   4.389   5.480  0.0992 -0.7013  0.0911
   97MOL    C8530997   5.674   4.311   5.510 -0.6311 -0.0457 -0.3686
   97MOL    C8630998   5.800   4.349   5.460 -1.3424  0.4642  0.2867
   97MOL    C8730999   5.821   4.463   5.381  0.5584 -0.4093 -0.2206
   97MOL    C8831000   5.708   4.535   5.345  0.6685 -0.6880 -0.4302
   97MOL    C8931001   5.580   4.504   5.399  0.2189  0.2078  0.0501
   97MOL    H9031002   5.329   4.264   5.697  0.6576 -0.0500  0.2286
   97MOL    H9131003   5.489   4.261   5.715  0.3850 -1.1936 -1.7192
   97MOL    H9231004   5.361   4.432   5.495 -0.6421 -1.5057 -0.1764
   97MOL    H9331005   5.673   4.223   5.573  2.3835  0.1061 -0.0640
   97MOL    H9431006   5.885   4.297   5.502 -1.7791 -0.4922 -0.0135
   97MOL    H9531007   5.916   4.512   5.368  1.4166 -1.1490  2.7804
   97MOL    H9631008   5.719   4.620   5.280 -0.4883  0.4545  0.8247
   97MOL    H9731009   5.497   4.569   5.373  0.2346 -0.2654 -1.2023
   97MOL    C9831010   5.372   4.229   5.441  0.2351 -0.3124 -0.0201
   97MOL    C9931011   5.231   4.177   5.472 -0.8142 -0.7162 -0.2049
   97MOL   C10031012   5.125   4.294   5.484 -0.4469  0.8079 -0.2233
   97MOL   C10131013   5.100   4.390   5.387  0.5374  0.2395 -0.1474
   97MOL   C10231014   5.000   4.486   5.409 -0.4973 -0.4798 -0.0766
   97MOL   C10331015   4.920   4.481   5.524  0.1266 -0.3850  0.4878
   97MOL   C10431016   4.935   4.382   5.623 -0.4776 -1.1797 -0.5235
   97MOL   C10531017   5.042   4.286   5.606 -0.4107  0.0572 -0.1608
   97MOL   H10631018   5.440   4.144   5.430 -0.7160 -1.0691 -0.1331
   97MOL   H10731019   5.363   4.281   5.345  0.2807  1.2869  0.8273
   97MOL   H10831020   5.237   4.133   5.571 -0.8168 -2.0357 -0.7833
   97MOL   H10931021   5.143   4.393   5.288 -0.3309  1.7968 -0.4820
   97MOL   H11031022   4.994   4.562   5.332  1.7032  0.1995  0.4046
   97MOL   H11131023   4.850   4.564   5.533  1.3550  0.8025 -0.6516
   97MOL   H11231024   4.879   4.374   5.715 -0.4977  0.6401 -0.3446
   97MOL   H11331025   5.065   4.206   5.674 -1.4026  1.8137  2.3435
   97MOL   C11431026   5.185   4.057   5.384 -0.2921  0.8522  0.3099
   97MOL   C11531027   5.227   3.917   5.431 -0.2521  0.0966  0.3022
   97MOL   C11631028   5.163   3.885   5.562 -0.1953 -0.2718 -0.7011
   97MOL   C11731029   5.026   3.860   5.571 -0.0113  0.1836 -0.3041
   97MOL   C11831030   4.958   3.832   5.692 -0.6031  0.4479 -0.7164
   97MOL   C11931031   5.032   3.834   5.812 -0.4553  0.5595 -0.2937
   97MOL   C12031032   5.173   3.864   5.804  0.3004 -0.1844 -0.2263
   97MOL   C12131033   5.234   3.898   5.680 -0.0570 -0.0645 -0.4273
   97MOL   H12231034   5.222   4.080   5.284 -0.1174 -0.6895  0.0142
   97MOL   H12331035   5.077   4.066   5.379 -0.1282  2.6573 -0.1867
   97MOL   H12431036   5.334   3.913   5.448 -0.2609  0.4454  0.4446
   97MOL   H12531037   4.962   3.859   5.484  0.2486  0.4919 -0.4990
   97MOL   H12631038   4.853   3.809   5.693 -0.2247 -1.2953 -0.4358
   97MOL   H12731039   4.989   3.807   5.907 -1.4928 -0.2098 -0.9658
   97MOL   H12831040   5.222   3.875   5.900  0.7018  1.1806 -0.5903
   97MOL   H12931041   5.334   3.937   5.675 -0.9043  2.3467  0.7718
   97MOL   C13031042   5.205   3.817   5.314  0.2525 -0.3211 -0.3617
   97MOL   C13131043   5.216   3.664   5.327  0.0525 -0.7616 -0.0340
   97MOL   C13231044   5.195   3.579   5.201 -0.3024  0.0522  0.2648
   97MOL   C13331045   5.081   3.501   5.184 -0.1335  0.2769 -0.1484
   97MOL   C13431046   5.056   3.444   5.054 -0.7470  0.2154 -0.3158
   97MOL   C13531047   5.149   3.462   4.954 -0.2161 -0.3026  0.0383
   97MOL   C13631048   5.272   3.534   4.967 -0.4131  0.2987  0.1729
   97MOL   C13731049   5.289   3.594   5.094  1.0256  0.2108  0.3106
   97MOL   H13831050   5.264   3.848   5.228 -1.2277 -0.1932 -1.3510
   97MOL   H13931051   5.100   3.835   5.288 -0.5046 -2.1444  1.2695
   97MOL   H14031052   5.132   3.646   5.394  0.7780  2.3290  1.8131
   97MOL   H14131053   5.015   3.491   5.269  0.6491  0.2359  0.4688
   97MOL   H14231054   4.967   3.388   5.029  0.2466 -1.4060 -0.3105
   97MOL   H14331055   5.136   3.398   4.868 -1.5279  2.6945 -2.0804
   97MOL   H14431056   5.336   3.551   4.882 -1.5493 -0.2032 -0.7948
   97MOL   H14531057   5.374   3.659   5.109  1.9012 -1.0549  0.8838
   97MOL   C14631058   5.344   3.611   5.391 -0.0507 -0.6378  0.3006
   97MOL   C14731059   5.347   3.569   5.533  0.5484 -0.3968  0.2452
   97MOL   C14831060   5.214   3.493   5.566 -0.8106 -1.1269  0.3435
   97MOL   C14931061   5.129   3.524   5.677  0.4321 -0.1521 -0.2013
   97MOL   C15031062   5.028   3.440   5.714  0.0338  0.2861 -0.0889
   97MOL   C15131063   4.982   3.340   5.628 -0.1687  0.6845  0.8664
   97MOL   C15231064   5.053   3.316   5.506 -0.0647 -0.8207  0.4803
   97MOL   C15331065   5.171   3.390   5.485 -0.3888  0.4019 -0.4718
   97MOL   H15431066   5.425   3.680   5.369 -1.3679  0.0795 -2.6476
   97MOL   H15531067   5.365   3.517   5.339 -0.9557 -0.3394 -0.6196
   97MOL   H15631068   5.344   3.658   5.595  1.9547  1.1287 -1.7901
   97MOL   H15731069   5.157   3.608   5.739  1.1534  3.1236 -4.6908
   97MOL   H15831070   4.969   3.449   5.804 -0.1529 -0.8875 -0.0782
   97MOL   H15931071   4.907   3.272   5.666  0.9055 -1.8444 -1.3056
   97MOL   H16031072   5.026   3.243   5.432  1.8150 -0.7821 -0.2728
   97MOL   H16131073   5.233   3.362   5.401  0.3525  1.5140 -0.3137
   97MOL   C16231074   5.478   3.495   5.573 -0.0488 -0.6911 -0.1310
   97MOL   C16331075   5.506   3.459   5.727  0.5056  0.1955  1.1909
   97MOL   C16431076   5.409   3.365   5.802 -0.4001 -0.3228  0.6419
   97MOL   C16531077   5.378   3.390   5.941  0.2105  0.1924  0.2534
   97MOL   C16631078   5.290   3.304   6.013  0.6847 -0.2148  0.0420
   97MOL   C16731079   5.232   3.201   5.945 -0.0416  0.0460  0.2767
   97MOL   C16831080   5.272   3.174   5.809 -0.2700 -0.5280  0.3865
   97MOL   C16931081   5.362   3.255   5.737  0.6975 -0.4727 -0.0397
   97MOL   H17031082   5.565   3.549   5.535  0.5742 -0.4547  1.6059
   97MOL   H17131083   5.480   3.402   5.517 -2.8413  0.2938 -2.0048
   97MOL   H17231084   5.470   3.551   5.775 -0.3561  1.2558 -1.4158
   97MOL   H17331085   5.425   3.476   5.986 -2.7834  1.5534  0.9058
   97MOL   H17431086   5.267   3.313   6.118 -0.6888  1.9164 -0.4011
   97MOL   H17531087   5.153   3.141   5.989  0.2277 -1.3122 -1.0709
   97MOL   H17631088   5.219   3.096   5.756  0.6101  0.8206 -2.6168
   97MOL   H17731089   5.398   3.234   5.638  1.0569  0.3975 -0.0962
   97MOL   C17831090   5.650   3.427   5.766 -0.2554  0.2410 -0.0016
   97MOL   C17931091   5.761   3.540   5.753  0.3643 -0.9439  0.0879
   97MOL   C18031092   5.712   3.658   5.840  0.4442 -0.0501  0.4725
   97MOL   C18131093   5.698   3.787   5.783 -0.7991 -0.5591 -0.8515
   97MOL   C18231094   5.650   3.903   5.857 -0.4932 -0.2638  0.0900
   97MOL   C18331095   5.621   3.887   5.994 -0.2606 -0.6988 -0.1043
   97MOL   C18431096   5.623   3.758   6.048  0.0792 -0.0844  0.1312
   97MOL   C18531097   5.669   3.648   5.971 -0.1315  0.2444 -0.0049
   97MOL   H18631098   5.681   3.335   5.718  2.4672  0.3043  1.5292
   97MOL   H18731099   5.651   3.383   5.866 -0.9582  0.3095  0.0367
   97MOL   H18831100   5.756   3.567   5.647 -0.1473  1.0189  0.5967
   97MOL   H18931101   5.732   3.808   5.682 -1.4924 -3.0850 -1.6398
   97MOL   H19031102   5.637   4.003   5.819  1.0895 -0.2299 -0.4337
   97MOL   H19131103   5.585   3.971   6.050  1.9895  1.3685 -1.6176
   97MOL   H19231104   5.582   3.744   6.147 -1.0961 -1.6474 -0.5507
   97MOL   H19331105   5.660   3.553   6.022  0.8991 -0.7487 -1.6147
   97MOL   C19431106   5.907   3.509   5.776  0.5038  0.1513 -0.4880
   97MOL   C19531107   5.991   3.487   5.644 -0.2178  0.0425 -0.2729
   97MOL   C19631108   5.974   3.601   5.541 -0.0272 -0.9817 -0.0271
   97MOL   C19731109   6.001   3.731   5.581 -0.3048 -0.7716  0.4890
   97MOL   C19831110   5.983   3.831   5.484 -0.8046 -0.7230 -0.3320
   97MOL   C19931111   5.959   3.803   5.348  0.5298  0.3782  0.2014
   97MOL   C20031112   5.932   3.673   5.309 -0.6145 -0.4920  0.0776
   97MOL   C20131113   5.938   3.570   5.405  0.3703  0.2499 -1.0844
   97MOL   H20231114   5.910   3.425   5.845 -1.6721  0.7338  0.3288
   97MOL   H20331115   5.954   3.597   5.821 -1.2339  1.6321 -1.5343
   97MOL   H20431116   5.946   3.397   5.601 -0.4998 -0.2830  0.6824
   97MOL   H20531117   6.033   3.761   5.680 -2.6142  1.0284  0.7452
   97MOL   H20631118   6.003   3.931   5.520 -0.9449 -0.3001 -1.4391
   97MOL   H20731119   5.965   3.888   5.282 -0.0349  0.8996  0.8072
   97MOL   H20831120   5.909   3.659   5.205  1.5792  2.0675 -0.8041
   97MOL   H20931121   5.908   3.473   5.369 -0.6706  0.0208  0.3366
   97MOL   C21031122   6.141   3.463   5.674 -0.3095  0.8981 -0.3537
   97MOL   C21131123   6.167   3.333   5.743 -0.4897 -0.9921  0.3524
   97MOL   C21231124   6.162   3.218   5.648 -0.0443 -0.8478  0.0124
   97MOL   C21331125   6.080   3.108   5.673 -0.3402 -0.6097  0.6422
   97MOL   C21431126   6.061   3.002   5.583 -0.4849  0.8261 -0.1941
   97MOL   C21531127   6.125   3.012   5.460 -0.5336  0.5977 -0.1296
   97MOL   C21631128   6.204   3.125   5.433  0.6084  0.8531 -0.0934
   97MOL   C21731129   6.230   3.221   5.525  0.1910 -0.1405 -0.0402
   97MOL   H21831130   6.181   3.553   5.721 -1.8728  0.6573  1.5235
   97MOL   H21931131   6.185   3.472   5.575 -1.0915  0.5709 -0.7381
   97MOL   H22031132   6.096   3.320   5.824 -0.2801 -2.7795  0.2700
   97MOL   H22131133   6.025   3.116   5.766  1.9074  0.1152  1.9576
   97MOL   H22231134   6.003   2.917   5.617  0.5741  1.4621  3.4343
   97MOL   H22331135   6.111   2.933   5.387 -0.9399  0.1151  0.4556
   97MOL   H22431136   6.248   3.123   5.334  1.4159 -2.0240  0.2652
   97MOL   H22531137   6.290   3.304   5.491 -1.3706  0.7034 -0.7583
   97MOL   C22631138   6.297   3.328   5.825  0.3487  0.4538  0.6251
   97MOL   C22731139   6.306   3.431   5.940  0.1683 -0.3913 -0.0346
   97MOL   C22831140   6.187   3.429   6.038 -0.6550  0.2873  0.0118
   97MOL   C22931141   6.107   3.545   6.059  0.3254 -0.4795  0.8488
   97MOL   C23031142   5.996   3.542   6.146  0.6216  0.1923  0.6637
   97MOL   C23131143   5.973   3.425   6.228 -0.6615  0.2812 -0.3736
   97MOL   C23231144   6.070   3.319   6.223  0.5516 -0.5640  0.1998
   97MOL   C23331145   6.169   3.320   6.121  0.4176  0.2282 -1.1827
   97MOL   H23431146   6.376   3.333   5.751  1.0477  0.9829  1.4037
   97MOL   H23531147   6.304   3.231   5.874 -0.3949  0.8998  1.6449
   97MOL   H23631148   6.292   3.530   5.897  0.3666 -0.4616 -0.2614
   97MOL   H23731149   6.126   3.636   6.004 -0.7914 -1.0136 -0.4665
   97MOL   H23831150   5.931   3.628   6.145  1.1356  0.5973 -2.1529
   97MOL   H23931151   5.890   3.412   6.295  0.4558  1.0554  1.1865
   97MOL   H24031152   6.052   3.227   6.276  0.6406  0.0366  1.2788
   97MOL   H24131153   6.223   3.230   6.098 -0.7446 -0.6128 -0.6583
   97MOL   C24231154   6.439   3.432   6.019  0.5526 -0.0268  0.0408
   97MOL   C24331155   6.551   3.489   5.932 -0.1919  0.2915 -0.6126
   97MOL   C24431156   6.527   3.624   5.853 -0.2659  0.3290 -0.7432
   97MOL   C24531157   6.478   3.729   5.927 -0.5194 -0.0920  0.0416
   97MOL   C24631158   6.455   3.860   5.882 -0.8227  1.0731 -0.8183
   97MOL   C24731159   6.487   3.877   5.744 -0.3013 -0.1468  0.3035
   97MOL   C24831160   6.545   3.772   5.660  0.7999 -0.1331  0.3516
   97MOL   C24931161   6.563   3.646   5.719 -0.0373  0.3648 -0.7604
   97MOL   H25031162   6.457   3.337   6.068  0.6202 -0.6800 -1.2176
   97MOL   H25131163   6.415   3.506   6.095  1.6543  0.4574 -0.0652
   97MOL   H25231164   6.572   3.416   5.855  2.3837 -1.5197  1.6863
   97MOL   H25331165   6.452   3.699   6.027  1.3127  1.3814  0.9870
   97MOL   H25431166   6.419   3.937   5.949 -0.7729 -1.5488  2.3494
   97MOL   H25531167   6.480   3.971   5.691  1.6836 -0.5033 -0.6683
   97MOL   H25631168   6.562   3.792   5.555 -1.7264 -2.1786 -0.4771
   97MOL   H25731169   6.613   3.568   5.663  0.1937  1.0923 -1.5698
   97MOL   C25831170   6.685   3.504   5.999 -0.2208  0.4277 -0.4458
   97MOL   C25931171   6.732   3.398   6.099  0.1663  0.2117 -0.0863
   97MOL   C26031172   6.727   3.261   6.038  0.6524  0.5054 -0.7309
   97MOL   C26131173   6.799   3.225   5.922 -0.3189  0.5052  0.1541
   97MOL   C26231174   6.780   3.099   5.868 -0.0795  0.0909 -0.4982
   97MOL   C26331175   6.694   3.008   5.930  0.4660  0.4237  0.1955
   97MOL   C26431176   6.625   3.040   6.050 -0.4554  0.1526 -0.0140
   97MOL   C26531177   6.636   3.172   6.097 -0.4027  0.6936 -0.1880
   97MOL   H26631178   6.668   3.595   6.057  2.1250  0.3865  0.3589
   97MOL   H26731179   6.752   3.522   5.915  0.4169  0.5954  0.0914
   97MOL   H26831180   6.667   3.391   6.186  1.9073 -2.1221  1.1097
   97MOL   H26931181   6.855   3.293   5.860 -1.8828  0.0550 -1.8217
   97MOL   H27031182   6.832   3.074   5.777  1.6392 -0.1360  0.5192
   97MOL   H27131183   6.673   2.911   5.887  0.9925 -0.3186  1.5646
   97MOL   H27231184   6.563   2.969   6.102  0.1471  0.1375  0.7012
   97MOL   H27331185   6.579   3.180   6.188 -0.4705  1.3451 -0.2870
   97MOL   C27431186   6.880   3.436   6.142  0.7769  0.3514 -0.4942
   97MOL   C27531187   6.937   3.376   6.273 -0.1932  0.3800  0.1706
   97MOL   C27631188   6.832   3.372   6.388 -0.5873  1.0691 -0.3463
   97MOL   C27731189   6.745   3.261   6.415 -0.4459 -0.3053 -0.3656
   97MOL   C27831190   6.657   3.265   6.530  0.5718  0.3095 -0.3614
   97MOL   C27931191   6.650   3.376   6.615 -0.7919 -0.0927 -0.5986
   97MOL   C28031192   6.742   3.476   6.597 -0.0465 -0.5320  0.4500
   97MOL   C28131193   6.831   3.476   6.487  0.2828 -0.4791  0.2454
   97MOL   H28231194   6.875   3.544   6.152  0.3707  0.5492 -2.5092
   97MOL   H28331195   6.950   3.441   6.059  0.4852  0.0265 -0.7632
   97MOL   H28431196   7.021   3.441   6.301  1.0652  0.1847 -2.9164
   97MOL   H28531197   6.736   3.178   6.347  2.7557 -0.2530 -0.8980
   97MOL   H28631198   6.584   3.187   6.550 -0.1400  0.7980 -1.0158
   97MOL   H28731199   6.590   3.372   6.705 -0.7794 -1.4179 -0.6261
   97MOL   H28831200   6.741   3.559   6.667  2.2509  1.0588 -1.2988
   97MOL   H28931201   6.902   3.557   6.483 -0.5375  0.4246  2.8152
   97MOL   C29031202   7.007   3.238   6.254 -0.8044  0.8671  0.3983
   97MOL   C29131203   7.114   3.226   6.144 -0.0802 -0.0501  0.1574
   97MOL   C29231204   7.236   3.300   6.175 -0.3623  0.7897  0.0858
   97MOL   C29331205   7.332   3.258   6.270 -0.1304  0.0115 -0.3646
   97MOL   C29431206   7.453   3.333   6.287  0.2521 -0.0636  1.0588
   97MOL   C29531207   7.480   3.450   6.217  0.2813 -0.1000  0.3672
   97MOL   C29631208   7.391   3.488   6.119 -0.0264  0.4862 -0.3049
   97MOL   C29731209   7.271   3.420   6.101  0.0250  0.8242  0.1978
   97MOL   H29831210   6.934   3.162   6.224  0.9477 -1.0963  1.0113
   97MOL   H29931211   7.053   3.204   6.347 -0.2859  0.5309  0.0144
   97MOL   H30031212   7.073   3.275   6.056  0.7449 -2.2673 -1.4884
   97MOL   H30131213   7.320   3.169   6.331 -0.9292  0.5912  0.3281
   97MOL   H30231214   7.525   3.294   6.358  1.2598 -0.5565 -0.2148
   97MOL   H30331215   7.570   3.505   6.237  0.4948 -1.2130  2.6034
   97MOL   H30431216   7.416   3.576   6.061 -1.0276  0.8808 -0.1495
   97MOL   H30531217   7.197   3.453   6.030  0.4048  1.4585  0.0836
   97MOL   C30631218   7.153   3.074   6.103 -0.4141 -0.7197 -0.6438
   97MOL   C30731219   7.246   3.055   5.984  0.3617 -0.4227  0.8772
   97MOL   C30831220   7.303   2.920   5.969  0.3432 -0.5391 -0.7840
   97MOL   C30931221   7.440   2.906   5.943  0.3276 -0.0087  0.0705
   97MOL   C31031222   7.501   2.777   5.925 -0.4823  0.3032  0.1911
   97MOL   C31131223   7.421   2.661   5.940  0.1390 -0.8671 -0.5275
   97MOL   C31231224   7.292   2.679   5.985  0.7420 -1.2418 -0.1418
   97MOL   C31331225   7.233   2.805   5.995  0.9467 -0.5058  0.4357
   97MOL   H31431226   7.066   3.008   6.098 -1.4160  0.3138  1.8604
   97MOL   H31531227   7.206   3.038   6.191 -0.0545 -1.7120 -1.2573
   97MOL   H31631228   7.331   3.123   5.995  1.4066 -1.5798  0.0815
   97MOL   H31731229   7.512   2.986   5.930  0.6391 -0.0692  1.3537
   97MOL   H31831230   7.607   2.777   5.902 -0.5902  0.0358 -0.3261
   97MOL   H31931231   7.459   2.561   5.923  1.3974 -1.1036  3.1654
   97MOL   H32031232   7.224   2.596   6.000 -0.6435 -0.0266  0.2975
   97MOL   H32131233   7.129   2.803   6.027  1.0246 -0.9387  0.6713
   97MOL   H32231234   7.199   3.083   5.890 -0.4708 -3.7330  0.2720
   98MOL     C131235   0.549   2.826   7.809 -0.2885 -0.3699  0.6988
   98MOL     C231236   0.425   2.904   7.866 -0.2436 -0.2185 -0.5358
   98MOL     C331237   0.350   2.808   7.959  0.0409 -0.8949  0.3193
   98MOL     C431238   0.233   2.741   7.914 -0.4387 -0.1209  0.5599
   98MOL     C531239   0.162   2.647   7.988  1.0548  0.5098  0.6676
   98MOL     C631240   0.209   2.615   0.001  0.2818  0.2627  0.1317
   98MOL     C731241   0.323   2.681   0.055  0.7032  0.5082 -0.2619
   98MOL     C831242   0.386   2.779   8.088 -0.0628  0.9093  0.4180
   98MOL     H931243   0.524   2.726   7.773 -0.1445  0.8726 -2.9942
   98MOL    H1031244   0.577   2.893   7.728 -0.2816 -1.2549 -0.0463
   98MOL    H1131245   0.362   2.930   7.780 -0.7569  0.4236  0.0272
   98MOL    H1231246   0.197   2.777   7.819  1.3177 -2.0238 -0.8607
   98MOL    H1331247   0.069   2.604   7.952  0.6666  1.5940  0.3583
   98MOL    H1431248   0.165   2.527   0.046  1.4883 -0.3984  0.0424
   98MOL    H1531249   0.376   2.662   0.147 -0.8384 -1.5693  0.2286
   98MOL    H1631250   0.480   2.819   0.010  0.7679 -1.2936  0.7518
   98MOL    H1731251   0.630   2.817   7.881  1.9969 -2.8129 -2.0226
   98MOL    C1831252   0.456   3.041   7.935  0.5229  0.1661  0.5308
   98MOL    C1931253   0.335   3.125   7.967  0.0907  0.5410  0.4081
   98MOL    C2031254   0.374   3.243   8.053  0.7316  0.2689  0.5073
   98MOL    C2131255   0.410   3.368   8.001  0.3753  0.6779 -0.1963
   98MOL    C2231256   0.428   3.475   8.093 -0.5314  0.1043 -0.6984
   98MOL    C2331257   0.412   3.458   0.119  0.6834  0.1253 -0.4031
   98MOL    C2431258   0.390   3.327   0.170  0.2944  0.3366  0.2721
   98MOL    C2531259   0.364   3.221   0.079 -0.5893 -0.8259 -0.3529
   98MOL    H2631260   0.515   3.100   7.865  1.1664 -1.7344 -0.5666
   98MOL    H2731261   0.517   3.030   8.024 -0.0951  2.0314  1.2237
   98MOL    H2831262   0.272   3.065   8.033 -0.6388 -1.2426 -1.8693
   98MOL    H2931263   0.410   3.384   7.894  4.5445 -1.9939 -0.7198
   98MOL    H3031264   0.452   3.576   8.062 -1.4917  0.6852  0.4071
   98MOL    H3131265   0.437   3.537   0.188  0.4850 -0.9757  0.9515
   98MOL    H3231266   0.368   3.301   0.272 -0.5142 -0.6678 -0.1531
   98MOL    H3331267   0.344   3.125   0.123 -0.0764 -0.3486  0.9502
   98MOL    C3431268   0.253   3.171   7.845 -0.3481 -0.0589  0.1939
   98MOL    C3531269   0.124   3.251   7.874 -1.2065 -1.1203  0.4715
   98MOL    C3631270   0.065   3.327   7.747 -0.1646  0.7343  0.0823
   98MOL    C3731271   0.047   3.261   7.626 -0.2402  0.6858 -0.0578
   98MOL    C3831272   8.107   3.340   7.516 -0.5276 -0.7375 -0.0894
   98MOL    C3931273   8.076   3.472   7.528 -0.1571 -0.5169 -0.4712
   98MOL    C4031274   8.092   3.535   7.650 -0.9306  0.0726  0.4100
   98MOL    C4131275   0.035   3.461   7.760 -0.0465 -0.0292  0.0121
   98MOL    H4231276   0.218   3.089   7.782  0.6430 -0.9556  0.7953
   98MOL    H4331277   0.305   3.243   7.783  0.6899  0.6517  1.8823
   98MOL    H4431278   0.148   3.333   7.942  1.4213 -1.9320  0.5813
   98MOL    H4531279   0.082   3.159   7.617  0.4953  0.8129  1.2830
   98MOL    H4631280   8.095   3.286   7.423 -1.8098  0.9976 -0.9591
   98MOL    H4731281   8.036   3.525   7.443  1.0234 -0.1050 -0.7719
   98MOL    H4831282   8.056   3.634   7.672 -2.4178 -0.1511 -0.8680
   98MOL    H4931283   0.053   3.508   7.855 -0.2421 -1.2746  0.6655
   98MOL    C5031284   0.025   3.167   7.952  0.0222  0.1613 -0.1806
   98MOL    C5131285   0.001   3.204   8.102 -0.2852 -0.9182  0.1936
   98MOL    C5231286   8.092   3.355   0.004 -0.9079  0.2805 -0.7759
   98MOL    C5331287   7.986   3.422   8.049 -0.1876  0.1694  0.2819
   98MOL    C5431288   7.975   3.561   8.050  0.0870 -0.4702  0.5485
   98MOL    C5531289   8.065   3.635   0.017  0.1504  0.2987 -0.9883
   98MOL    C5631290   0.055   3.571   0.086 -0.6396 -0.1510 -0.3179
   98MOL    C5731291   0.068   3.432   0.078  0.2714 -0.2530  0.6289
   98MOL    H5831292   0.035   3.063   7.922 -0.6998 -0.2942  1.1299
   98MOL    H5931293   8.044   3.189   7.906 -1.3718 -2.3870  1.4039
   98MOL    H6031294   0.090   3.171   0.040 -0.8427 -0.4334  1.4408
   98MOL    H6131295   7.918   3.362   7.990  1.2180 -0.2048 -1.0070
   98MOL    H6231296   7.891   3.607   8.000 -0.8164 -0.6249  1.9207
   98MOL    H6331297   8.057   3.742   0.026 -0.6593  0.0604  1.5058
   98MOL    H6431298   0.137   3.617   0.138  1.0489 -2.5891 -0.7266
   98MOL    H6531299   0.157   3.385   0.118 -0.1028 -1.2766  0.2620
   98MOL    C6631300   8.011   3.110   0.049  0.2782 -0.6165 -0.0251
   98MOL    C6731301   8.006   3.118   0.206  1.1641 -0.0930  0.0535
   98MOL    C6831302   0.010   3.050   0.271  0.6818  0.4226 -0.0319
   98MOL    C6931303   0.105   3.117   0.339  0.2465 -0.5753  0.4250
   98MOL    C7031304   0.208   3.055   0.409 -0.3232  0.0462  0.4733
   98MOL    C7131305   0.218   2.916   0.397 -0.1764  0.6687  0.5291
   98MOL    C7231306   0.120   2.842   0.330 -0.2383  0.5827 -0.2849
   98MOL    C7331307   0.020   2.911   0.268 -0.0525 -1.1049  0.0491
   98MOL    H7431308   8.034   3.013   0.005 -0.3124 -0.8243  0.1106
   98MOL    H7531309   7.911   3.129   0.010 -0.2998 -0.4834  1.4983
   98MOL    H7631310   7.922   3.054   0.236  0.9161  0.6146  0.8883
   98MOL    H7731311   0.096   3.224   0.353  1.8521 -0.4772  0.7872
   98MOL    H7831312   0.283   3.118   0.455  1.0197  0.6042 -2.4122
   98MOL    H7931313   0.300   2.861   0.441 -1.7103 -2.2441 -0.1473
   98MOL    H8031314   0.126   2.734   0.324  0.4745  0.7839 -3.9469
   98MOL    H8131315   8.066   2.853   0.208 -0.8487 -0.6464  0.5078
   98MOL    C8231316   7.961   3.255   0.263  0.8830  0.0350 -0.5473
   98MOL    C8331317   7.896   3.256   0.406 -0.3354  0.2386 -0.1076
   98MOL    C8431318   7.846   3.387   0.454 -0.9032 -0.2360 -0.1636
   98MOL    C8531319   7.884   3.431   0.583 -0.2290 -0.7172  0.1992
   98MOL    C8631320   7.850   3.563   0.621  0.3577 -0.0572  0.3503
   98MOL    C8731321   7.779   3.649   0.536  0.4316  0.4735  0.1446
   98MOL    C8831322   7.727   3.600   0.418 -0.4295  0.4895 -1.1583
   98MOL    C8931323   7.763   3.469   0.378 -0.4565  0.1142 -0.0624
   98MOL    H9031324   7.885   3.300   0.199  0.5997 -0.1109 -0.3142
   98MOL    H9131325   8.040   3.329   0.279 -0.5903  1.4681  0.3466
   98MOL    H9231326   7.970   3.239   0.484 -0.0521  0.9633 -0.2161
   98MOL    H9331327   7.941   3.380   0.659 -1.4285 -1.4822  0.5902
   98MOL    H9431328   7.876   3.600   0.719  0.3243  2.7259 -0.6629
   98MOL    H9531329   7.762   3.750   0.569 -0.0795  1.0658 -1.8678
   98MOL    H9631330   7.660   3.653   0.352 -0.6676  0.4751 -0.9272
   98MOL    H9731331   7.727   3.431   0.284 -1.6813 -0.1145  0.4966
   98MOL    C9831332   7.798   3.143   0.439 -0.4800 -0.0474  0.4125
   98MOL    C9931333   7.845   3.010   0.516  0.3919 -0.3379 -0.5111
   98MOL   C10031334   7.928   3.030   0.640 -0.5734 -0.2980 -0.2706
   98MOL   C10131335   7.882   3.110   0.744 -0.1827  0.3185  0.7251
   98MOL   C10231336   7.963   3.137   0.857 -0.2772  0.4781 -0.3512
   98MOL   C10331337   8.091   3.078   0.867  0.2167 -0.0771  0.5670
   98MOL   C10431338   0.022   2.995   0.760 -1.1687 -0.6375  0.4435
   98MOL   C10531339   8.059   2.971   0.646  0.2702 -0.4343  0.7744
   98MOL   H10631340   7.740   3.117   0.350  4.0109  0.7663 -2.9214
   98MOL   H10731341   7.712   3.193   0.484 -0.0259  0.1852  1.0161
   98MOL   H10831342   7.902   2.945   0.450 -1.9414 -3.2974  0.2711
   98MOL   H10931343   7.782   3.150   0.730  0.4289  1.3453 -0.8376
   98MOL   H11031344   7.931   3.212   0.928  2.2012  2.4925 -1.2593
   98MOL   H11131345   0.040   3.108   0.949  0.3703 -1.3350  0.9254
   98MOL   H11231346   0.122   2.956   0.765 -0.0149  1.7931 -2.4297
   98MOL   H11331347   8.097   2.911   0.564 -0.1932 -0.2164  0.4019
   98MOL   C11431348   7.725   2.918   0.558 -0.8654  0.6573  0.8130
   98MOL   C11531349   7.643   2.866   0.443 -0.3595  0.2381  0.6989
   98MOL   C11631350   7.725   2.773   0.349 -1.0331  0.3212  0.0544
   98MOL   C11731351   7.762   2.824   0.221  0.3814 -0.2154  0.5362
   98MOL   C11831352   7.828   2.739   0.130 -0.5968  0.7088 -0.9061
   98MOL   C11931353   7.869   2.611   0.173 -0.6678 -0.1133 -0.2320
   98MOL   C12031354   7.839   2.567   0.300 -0.7755 -0.0257  0.7299
   98MOL   C12131355   7.769   2.641   0.390 -0.3364  0.4332 -0.3448
   98MOL   H12231356   7.658   2.981   0.617  1.1731  1.0540  2.7905
   98MOL   H12331357   7.763   2.833   0.615  0.2932  0.4209 -0.3138
   98MOL   H12431358   7.633   2.954   0.381 -1.1301  0.7903  1.5923
   98MOL   H12531359   7.734   2.925   0.193 -1.6995 -0.6859  0.8596
   98MOL   H12631360   7.861   2.784   0.038 -1.2449  2.4525 -0.3102
   98MOL   H12731361   7.937   2.548   0.118 -0.6192 -0.3170  0.0609
   98MOL   H12831362   7.890   2.474   0.319 -2.4121 -1.3605 -1.2369
   98MOL   H12931363   7.748   2.609   0.491  1.9885  0.8509  0.3104
   98MOL   C13031364   7.505   2.803   0.485 -0.5495 -0.1257 -0.1380
   98MOL   C13131365   7.392   2.907   0.506  0.3136  0.5062  0.5193
   98MOL   C13231366   7.377   3.010   0.392 -1.1315 -0.9766  0.0261
   98MOL   C13331367   7.429   3.145   0.398 -0.0514  0.3937  0.0719
   98MOL   C13431368   7.415   3.248   0.298 -0.0147  0.9730 -0.6034
   98MOL   C13531369   7.369   3.202   0.173 -0.0576 -0.0968 -0.9054
   98MOL   C13631370   7.311   3.072   0.158 -0.6184 -0.3025  0.6828
   98MOL   C13731371   7.315   2.981   0.263 -0.0913  0.3815  0.6490
   98MOL   H13831372   7.528   2.737   0.569  2.0974  1.5009  0.4663
   98MOL   H13931373   7.466   2.749   0.399  2.5853  0.6014 -2.1160
   98MOL   H14031374   7.417   2.967   0.593 -2.2374  1.6124  0.5525
   98MOL   H14131375   7.466   3.177   0.495 -1.2019  2.0049  0.0085
   98MOL   H14231376   7.438   3.351   0.321 -0.7043  1.2056 -0.9479
   98MOL   H14331377   7.350   3.270   0.092 -1.6502 -1.2086 -1.5008
   98MOL   H14431378   7.268   3.041   0.064  1.7312 -1.0382 -0.1962
   98MOL   H14531379   7.278   2.881   0.248 -0.5746  0.6911 -0.2507
   98MOL   C14631380   7.254   2.837   0.526  0.6130  0.2743 -0.5915
   98MOL   C14731381   7.252   2.727   0.638 -0.3344  0.2573  0.1955
   98MOL   C14831382   7.325   2.774   0.758  0.5949 -0.6447 -0.0018
   98MOL   C14931383   7.442   2.710   0.807  0.2645 -0.3670 -0.3388
   98MOL   C15031384   7.501   2.765   0.924 -0.0186  0.0776 -0.0031
   98MOL   C15131385   7.459   2.880   0.985  0.3498  0.0543 -0.6778
   98MOL   C15231386   7.350   2.949   0.931  0.6720  0.6087  0.0341
   98MOL   C15331387   7.284   2.896   0.820 -0.1603 -0.2181 -0.3874
   98MOL   H15431388   7.220   2.788   0.435 -0.9007 -0.8315  0.5420
   98MOL   H15531389   7.192   2.920   0.558  1.5544  1.0880 -0.8313
   98MOL   H15631390   7.300   2.639   0.596 -2.0271 -0.7729  0.3719
   98MOL   H15731391   7.484   2.618   0.769 -0.7932 -0.4422 -1.3485
   98MOL   H15831392   7.586   2.721   0.974 -0.7447 -0.6208  0.6330
   98MOL   H15931393   7.495   2.917   1.081 -1.5821  1.7256 -0.5529
   98MOL   H16031394   7.320   3.041   0.979 -1.7043 -0.3048  0.3539
   98MOL   H16131395   7.198   2.957   0.796 -0.8930 -0.4997  1.4589
   98MOL   C16231396   7.111   2.689   0.672  0.6595 -0.0020 -0.0132
   98MOL   C16331397   7.069   2.541   0.669  0.4788  0.3832  0.2429
   98MOL   C16431398   7.142   2.457   0.774 -0.1894 -0.3769  0.3142
   98MOL   C16531399   7.205   2.331   0.748  0.4798 -0.0670  0.6996
   98MOL   C16631400   7.267   2.257   0.853 -0.4748 -0.5716 -0.0231
   98MOL   C16731401   7.268   2.311   0.982 -0.1894  0.4595 -0.4749
   98MOL   C16831402   7.203   2.433   1.010 -0.5105  0.3422 -0.3822
   98MOL   C16931403   7.137   2.502   0.905  0.1268 -0.0797  0.0934
   98MOL   H17031404   7.045   2.711   0.588 -0.0449 -1.3719  0.1511
   98MOL   H17131405   7.074   2.735   0.764  0.1971 -1.7559  0.7225
   98MOL   H17231406   7.102   2.504   0.572  2.3534 -1.4076  1.5305
   98MOL   H17331407   7.221   2.285   0.652  2.8117  1.2874  0.4101
   98MOL   H17431408   7.317   2.166   0.823  2.9031  1.2195 -0.1034
   98MOL   H17531409   7.334   2.260   1.050 -0.7817 -1.3561 -1.2260
   98MOL   H17631410   7.222   2.492   1.099 -0.4360  0.9703 -0.8103
   98MOL   H17731411   7.101   2.604   0.911  0.9462  0.2420 -0.2835
   98MOL   C17831412   6.911   2.521   0.680  0.2390 -0.1462 -0.4813
   98MOL   C17931413   6.863   2.375   0.664  0.1839 -0.5512  0.4123
   98MOL   C18031414   6.781   2.329   0.787 -0.1882 -0.6449 -0.1087
   98MOL   C18131415   6.830   2.224   0.869 -0.0151  0.1930 -0.3524
   98MOL   C18231416   6.752   2.177   0.979 -0.2212 -0.0346  0.8056
   98MOL   C18331417   6.626   2.233   1.006 -0.2281 -0.1706 -0.6048
   98MOL   C18431418   6.580   2.341   0.927 -0.2398  0.2433  0.2460
   98MOL   C18531419   6.654   2.386   0.813  0.4659  0.0633 -0.5918
   98MOL   H18631420   6.856   2.584   0.609  0.8119  0.2863 -0.5492
   98MOL   H18731421   6.878   2.558   0.777  3.3828  2.0269 -0.1406
   98MOL   H18831422   6.956   2.318   0.664  0.1234 -0.6531  1.0363
   98MOL   H18931423   6.927   2.179   0.851 -0.4720 -1.0730  0.3298
   98MOL   H19031424   6.789   2.098   1.043 -1.1552 -2.4638 -1.5942
   98MOL   H19131425   6.575   2.209   1.099 -1.5430 -1.6653 -1.6794
   98MOL   H19231426   6.490   2.393   0.955 -1.8827 -2.2530 -0.2267
   98MOL   H19331427   6.623   2.471   0.754 -2.2390 -1.2194 -1.0678
   98MOL   C19431428   6.793   2.339   0.531  0.1865 -0.3585  0.1758
   98MOL   C19531429   6.896   2.336   0.419  0.2806  0.6146 -0.1034
   98MOL   C19631430   7.005   2.234   0.446 -0.8599 -0.0497 -0.1171
   98MOL   C19731431   6.988   2.109   0.509 -0.1964  0.5169  0.5445
   98MOL   C19831432   7.093   2.015   0.520  0.2521  0.4248  0.0538
   98MOL   C19931433   7.223   2.052   0.481 -0.4449 -0.2418  0.0042
   98MOL   C20031434   7.239   2.172   0.406 -0.1865  0.2077  0.2758
   98MOL   C20131435   7.132   2.264   0.393 -1.3756  0.3438  0.1230
   98MOL   H20231436   6.700   2.394   0.519  0.2549 -0.1252  0.7241
   98MOL   H20331437   6.752   2.239   0.547  0.5558 -0.3871  0.9750
   98MOL   H20431438   6.947   2.432   0.417 -0.2142  0.8573 -2.2307
   98MOL   H20531439   6.890   2.091   0.551 -0.3230  1.4705  0.6677
   98MOL   H20631440   7.081   1.914   0.557  2.2288  0.2168  0.1963
   98MOL   H20731441   7.309   1.987   0.491  1.4350  2.2364  0.4209
   98MOL   H20831442   7.338   2.191   0.368 -1.0916  0.9759 -1.7823
   98MOL   H20931443   7.138   2.363   0.351 -1.1436  0.1365 -0.3319
   98MOL   C21031444   6.827   2.314   0.285 -0.7514  0.6257 -0.2853
   98MOL   C21131445   6.747   2.432   0.232  0.6917  0.4637  0.1392
   98MOL   C21231446   6.836   2.552   0.214 -0.6756  0.0237  0.8102
   98MOL   C21331447   6.802   2.683   0.262 -0.7493  0.6371 -0.1542
   98MOL   C21431448   6.882   2.796   0.241  0.3088  0.3391  0.2529
   98MOL   C21531449   7.003   2.783   0.169 -0.0191  0.6130  0.6335
   98MOL   C21631450   7.041   2.649   0.131  1.1075  0.7818 -0.5638
   98MOL   C21731451   6.963   2.535   0.152  0.2371 -0.2826 -0.3930
   98MOL   H21831452   6.763   2.227   0.300  1.5225 -0.8405  1.3474
   98MOL   H21931453   6.907   2.287   0.217 -0.7424  0.6937 -0.3018
   98MOL   H22031454   6.679   2.470   0.307 -0.7034 -0.9069 -0.3988
   98MOL   H22131455   6.709   2.687   0.316 -1.9389 -1.5289 -1.9332
   98MOL   H22231456   6.863   2.888   0.295  2.1031  1.0511 -0.2567
   98MOL   H22331457   7.067   2.869   0.156 -0.3426  0.5579 -1.3935
   98MOL   H22431458   7.131   2.628   0.075  1.3714 -1.7811  0.7342
   98MOL   H22531459   6.987   2.442   0.102  0.0842 -0.8149  0.5178
   98MOL   C22631460   6.686   2.394   0.098 -0.3987  0.4823 -0.0006
   98MOL   C22731461   6.570   2.291   0.107 -0.2135  0.0066 -0.8049
   98MOL   C22831462   6.466   2.317   0.219 -0.7385  0.4897  0.2644
   98MOL   C22931463   6.412   2.204   0.282  0.8553  0.5456 -0.0888
   98MOL   C23031464   6.305   2.219   0.373 -0.6649 -0.0956  0.4818
   98MOL   C23131465   6.245   2.341   0.393 -0.3542 -0.6409 -0.2439
   98MOL   C23231466   6.292   2.454   0.325  0.5233  0.3485 -0.4121
   98MOL   C23331467   6.404   2.446   0.239 -0.1811 -0.3692 -0.4336
   98MOL   H23431468   6.759   2.347   0.032 -0.9904 -0.3880 -0.0325
   98MOL   H23531469   6.647   2.481   0.043  0.8124  1.6084  0.8897
   98MOL   H23631470   6.622   2.201   0.140 -2.9490 -1.2219  0.3073
   98MOL   H23731471   6.453   2.106   0.262  0.7172  0.3999  0.3354
   98MOL   H23831472   6.256   2.138   0.425  2.0575 -0.6695  2.2972
   98MOL   H23931473   6.167   2.353   0.467  0.2503 -0.5085  0.3724
   98MOL   H24031474   6.243   2.549   0.338 -1.3441 -0.4712 -1.2441
   98MOL   H24131475   6.436   2.534   0.184  1.1726 -1.0110 -0.7056
   98MOL   C24231476   6.512   2.249   8.085 -0.3239 -0.9783  0.0111
   98MOL   C24331477   6.552   2.107   8.034  0.1391  0.1001  0.0062
   98MOL   C24431478   6.460   2.064   7.916  0.1057  0.0811  0.2894
   98MOL   C24531479   6.376   1.955   7.945 -0.3467 -0.3452 -0.1454
   98MOL   C24631480   6.299   1.903   7.840  0.6623 -0.2972  0.7659
   98MOL   C24731481   6.300   1.966   7.712  0.1510 -0.0144 -0.0558
   98MOL   C24831482   6.385   2.075   7.685 -0.2044  0.6892  0.0549
   98MOL   C24931483   6.463   2.125   7.787 -0.8622 -0.4974 -0.4021
   98MOL   H25031484   6.529   2.324   8.008  3.4745 -0.0016  1.6759
   98MOL   H25131485   6.403   2.251   8.090 -0.2969 -0.9038  0.6311
   98MOL   H25231486   6.522   2.039   8.113  0.5519  3.1563  2.9497
   98MOL   H25331487   6.369   1.905   8.040  1.8283  1.4976  1.0464
   98MOL   H25431488   6.237   1.819   7.868  0.6031 -0.7562 -0.6972
   98MOL   H25531489   6.237   1.928   7.633 -0.5344  1.7056 -0.3700
   98MOL   H25631490   6.387   2.105   7.581  0.1413 -0.2215 -0.2059
   98MOL   H25731491   6.535   2.204   7.774 -0.8363 -0.2880  1.0064
   98MOL   C25831492   6.704   2.106   7.995  0.0152 -0.7192 -0.3706
   98MOL   C25931493   6.744   1.984   7.902 -0.3268  0.5106  0.1856
   98MOL   C26031494   6.870   2.020   7.817  0.0292 -0.1031 -0.6194
   98MOL   C26131495   7.001   2.025   7.865 -0.4445 -0.1024 -0.2545
   98MOL   C26231496   7.113   2.062   7.787 -0.3619  0.0701 -0.3509
   98MOL   C26331497   7.091   2.098   7.650 -0.2436 -0.4099  0.2192
   98MOL   C26431498   6.960   2.115   7.608 -0.1659 -0.2598  0.7732
   98MOL   C26531499   6.850   2.071   7.683  0.5745  0.0054  0.3449
   98MOL   H26631500   6.769   2.095   8.082 -0.9664  2.9179  0.9654
   98MOL   H26731501   6.728   2.202   7.949  0.6243  0.2192  1.8162
   98MOL   H26831502   6.666   1.962   7.829  0.4174  1.6553 -0.9880
   98MOL   H26931503   7.024   1.997   7.967 -0.6555 -0.9555 -0.4355
   98MOL   H27031504   7.212   2.063   7.830 -1.2322  0.1309  1.6736
   98MOL   H27131505   7.179   2.120   7.592 -1.1783  0.5771 -0.8472
   98MOL   H27231506   6.931   2.156   7.512  0.2552  3.2613  2.0811
   98MOL   H27331507   6.750   2.077   7.643 -0.1549 -0.2566  2.1211
   98MOL   C27431508   6.764   1.852   7.980 -0.5893 -0.0460  0.8818
   98MOL   C27531509   6.793   1.733   7.892  0.8931 -0.6017 -0.2325
   98MOL   C27631510   6.873   1.631   7.974 -0.4413 -0.6193  0.1685
   98MOL   C27731511   7.017   1.630   7.972  0.4334  0.1852  0.6850
   98MOL   C27831512   7.087   1.545   8.060 -0.0297  0.3423 -0.6375
   98MOL   C27931513   7.025   1.470   0.045 -0.3380 -0.1269  0.2933
   98MOL   C28031514   6.883   1.475   0.051 -0.9206  0.0776  0.0766
   98MOL   C28131515   6.814   1.556   8.078 -0.0882  0.8087  0.1137
   98MOL   H28231516   6.681   1.832   8.048 -0.1890  0.3911  1.5030
   98MOL   H28331517   6.850   1.869   8.044  0.8623  0.2462 -1.1173
   98MOL   H28431518   6.858   1.767   7.811 -0.7883 -1.6587 -2.0718
   98MOL   H28531519   7.066   1.700   7.906 -3.0753  1.2336 -0.8939
   98MOL   H28631520   7.195   1.536   8.057 -0.0568  0.2374 -1.3243
   98MOL   H28731521   7.083   1.401   0.105  0.1282 -0.9359 -1.0599
   98MOL   H28831522   6.829   1.417   0.125  1.6343 -2.1712  0.2840
   98MOL   H28931523   6.708   1.569   8.094 -0.0677 -0.8419  1.6625
   98MOL   C29031524   6.668   1.673   7.821 -0.4438  0.3733  0.6303
   98MOL   C29131525   6.694   1.633   7.678 -0.4823 -0.3907  0.3283
   98MOL   C29231526   6.600   1.514   7.659 -0.8168  0.0504  0.1100
   98MOL   C29331527   6.655   1.385   7.650  0.0441 -1.0058  0.2703
   98MOL   C29431528   6.579   1.266   7.632 -0.0528 -0.1119 -0.1314
   98MOL   C29531529   6.441   1.279   7.630  0.5634 -0.4426 -0.0998
   98MOL   C29631530   6.384   1.413   7.643 -0.1794  0.1374  0.5611
   98MOL   C29731531   6.460   1.530   7.655 -0.4478  0.0113 -0.3315
   98MOL   H29831532   6.588   1.747   7.813 -0.8070 -0.0968 -0.2613
   98MOL   H29931533   6.615   1.600   7.882 -1.4621  1.2552  0.8191
   98MOL   H30031534   6.799   1.604   7.668 -0.4475 -0.4171  0.7798
   98MOL   H30131535   6.762   1.374   7.661 -0.1440 -0.7289  2.7811
   98MOL   H30231536   6.641   1.178   7.623  0.6586  0.2416  1.1857
   98MOL   H30331537   6.387   1.186   7.626  1.1846 -0.8851  1.2648
   98MOL   H30431538   6.276   1.417   7.644 -0.2083 -0.7446  1.8100
   98MOL   H30531539   6.421   1.631   7.652 -2.3908 -0.7539 -1.9285
   98MOL   C30631540   6.665   1.748   7.577 -0.5761 -0.4684 -0.3768
   98MOL   C30731541   6.665   1.716   7.424  0.2498 -0.4869  0.7832
   98MOL   C30831542   6.694   1.835   7.330 -0.5521  0.1803  1.0609
   98MOL   C30931543   6.770   1.818   7.214 -0.4776 -0.0695 -0.8874
   98MOL   C31031544   6.782   1.930   7.131  0.6283  0.6595 -0.0052
   98MOL   C31131545   6.743   2.058   7.176  0.0141  0.3566  0.3817
   98MOL   C31231546   6.664   2.082   7.292 -0.2122 -0.0885  0.0112
   98MOL   C31331547   6.638   1.961   7.367  0.4058  0.3024  0.3778
   98MOL   H31431548   6.742   1.823   7.591  0.3119 -1.4379 -0.0367
   98MOL   H31531549   6.575   1.805   7.599  0.8712  1.2744  1.1427
   98MOL   H31631550   6.568   1.678   7.393 -0.4861  2.3924 -0.5031
   98MOL   H31731551   6.819   1.726   7.185 -0.7118  0.1807 -2.0908
   98MOL   H31831552   6.841   1.922   7.041 -0.0773  0.2017 -0.4308
   98MOL   H31931553   6.772   2.143   7.117 -1.8072  1.7590  1.4271
   98MOL   H32031554   6.621   2.179   7.312 -1.4220 -0.5430 -0.3746
   98MOL   H32131555   6.569   1.975   7.449 -0.0286 -0.0373  0.0762
   98MOL   H32231556   6.728   1.631   7.396  1.1392  0.5727 -0.4623
   99MOL     C131557   1.823   2.188   2.528  0.1826 -0.0372 -0.2403
   99MOL     C231558   1.701   2.103   2.522 -0.0409  0.3473 -0.3464
   99MOL     C331559   1.585   2.186   2.478  0.4582  0.9056  0.6311
   99MOL     C431560   1.504   2.256   2.573 -0.3950 -0.7607  0.3728
   99MOL     C531561   1.390   2.328   2.538 -0.1428  0.8168  0.1467
   99MOL     C631562   1.358   2.338   2.401  0.0796  0.0315  0.2352
   99MOL     C731563   1.433   2.272   2.306  0.5919 -0.2156  0.0865
   99MOL     C831564   1.545   2.201   2.346 -0.0592  0.3683  0.0364
   99MOL     H931565   1.804   2.271   2.596 -1.8654 -1.0089  0.4104
   99MOL    H1031566   1.915   2.137   2.558 -0.3789 -1.1604 -0.4316
   99MOL    H1131567   1.684   2.068   2.624 -2.4836  0.4013 -0.6896
   99MOL    H1231568   1.536   2.254   2.676  0.2183  1.1290  0.2477
   99MOL    H1331569   1.333   2.366   2.622 -0.6127 -0.8448  0.5957
   99MOL    H1431570   1.267   2.385   2.367  1.3800  1.7166 -0.9275
   99MOL    H1531571   1.404   2.274   2.202 -0.1628 -1.9625  0.2389
   99MOL    H1631572   1.606   2.150   2.273 -0.5177  0.2062 -0.2340
   99MOL    H1731573   1.845   2.230   2.430  0.0497  2.0355  0.5796
   99MOL    C1831574   1.727   1.970   2.438  0.5884 -0.1304  0.4343
   99MOL    C1931575   1.849   1.886   2.484  0.2594  1.2995  0.3038
   99MOL    C2031576   1.832   1.820   2.627  0.1084  0.2752 -0.4082
   99MOL    C2131577   1.885   1.890   2.739 -0.2773  0.8282  0.3719
   99MOL    C2231578   1.877   1.828   2.864 -1.0001  0.0889  0.1077
   99MOL    C2331579   1.840   1.693   2.874 -0.3343  0.1390 -0.1524
   99MOL    C2431580   1.788   1.623   2.763  0.0373  0.5979 -0.3635
   99MOL    C2531581   1.771   1.690   2.639 -0.0623  0.0375  0.6547
   99MOL    H2631582   1.746   2.001   2.335 -2.4767 -2.1906 -0.8617
   99MOL    H2731583   1.640   1.904   2.426  0.4778  0.1309 -0.2102
   99MOL    H2831584   1.939   1.948   2.488  0.5871  0.7786  1.4222
   99MOL    H2931585   1.920   1.990   2.717  0.6071  0.6660  1.0032
   99MOL    H3031586   1.920   1.889   2.942  2.5385 -0.5035 -1.3012
   99MOL    H3131587   1.843   1.641   2.968 -0.9388  0.5544  0.0988
   99MOL    H3231588   1.765   1.517   2.766  2.9689 -0.1329 -1.6720
   99MOL    H3331589   1.728   1.651   2.548 -1.5390  2.9804  0.0099
   99MOL    C3431590   1.888   1.782   2.381 -0.0391  0.5002 -0.4120
   99MOL    C3531591   1.967   1.837   2.261 -0.4141 -0.2881 -0.1079
   99MOL    C3631592   2.107   1.853   2.301 -0.6881  0.2250  0.1674
   99MOL    C3731593   2.189   1.741   2.350  0.1460 -0.7201  0.4252
   99MOL    C3831594   2.323   1.751   2.392 -0.1129  0.3511 -0.2731
   99MOL    C3931595   2.387   1.873   2.373  1.1328 -0.2428 -0.5052
   99MOL    C4031596   2.311   1.989   2.333  0.7860  0.7093  0.7132
   99MOL    C4131597   2.174   1.975   2.303 -0.2630 -0.2493 -0.0706
   99MOL    H4231598   1.789   1.755   2.345 -0.0199  0.6951 -0.6142
   99MOL    H4331599   1.940   1.692   2.413  0.2015  0.3827 -1.1148
   99MOL    H4431600   1.938   1.941   2.248 -0.2882 -0.2776 -0.3099
   99MOL    H4531601   2.149   1.641   2.355 -1.2382 -0.1348  1.5599
   99MOL    H4631602   2.371   1.656   2.411  1.5072  1.0886 -0.5785
   99MOL    H4731603   2.494   1.868   2.387  1.0929  2.0003  0.7739
   99MOL    H4831604   2.367   2.080   2.319 -1.4021  2.2884  1.9700
   99MOL    H4931605   2.116   2.063   2.283 -0.5118 -0.5887 -0.8573
   99MOL    C5031606   1.944   1.742   2.146  0.0987  0.5730  0.3040
   99MOL    C5131607   1.811   1.745   2.061  0.7643 -0.4953  0.2341
   99MOL    C5231608   1.761   1.878   2.019 -0.3825 -0.3753  0.3793
   99MOL    C5331609   1.839   1.952   1.930 -0.1349 -0.4641 -0.1951
   99MOL    C5431610   1.796   2.082   1.889 -0.4411  0.4343  0.4539
   99MOL    C5531611   1.679   2.136   1.948  0.0500  0.3474 -0.0011
   99MOL    C5631612   1.593   2.055   2.022 -0.3111  0.2203 -0.7489
   99MOL    C5731613   1.638   1.924   2.061  0.8105 -0.3223 -0.7446
   99MOL    H5831614   1.973   1.641   2.175 -1.2462 -0.1401 -0.7530
   99MOL    H5931615   2.007   1.772   2.063  0.2856 -0.3498  0.1070
   99MOL    H6031616   1.739   1.708   2.134 -0.9545 -1.3263 -1.8448
   99MOL    H6131617   1.935   1.914   1.899  1.1036  0.4110  2.4547
   99MOL    H6231618   1.856   2.146   1.826  1.2462 -2.9511 -1.5669
   99MOL    H6331619   1.648   2.237   1.926  2.6411  1.3664  0.8110
   99MOL    H6431620   1.501   2.096   2.061 -2.1192 -0.6863 -3.8871
   99MOL    H6531621   1.574   1.862   2.123 -0.8881  1.2116 -0.8932
   99MOL    C6631622   1.817   1.649   1.933  0.1297 -1.1912 -0.5203
   99MOL    C6731623   1.833   1.501   1.973 -0.1511  0.4829 -0.4934
   99MOL    C6831624   1.716   1.449   2.056  0.2450  0.0042  0.0021
   99MOL    C6931625   1.582   1.440   2.008 -1.1388 -0.4316 -0.3896
   99MOL    C7031626   1.486   1.393   2.103 -0.2655  0.0877  1.0505
   99MOL    C7131627   1.514   1.366   2.237 -0.6613  0.3966 -0.1283
   99MOL    C7231628   1.644   1.393   2.282 -0.2498  0.2175 -0.2300
   99MOL    C7331629   1.741   1.437   2.193 -0.6215 -0.0435 -0.9032
   99MOL    H7431630   1.914   1.674   1.889 -0.8877  0.8974 -1.6574
   99MOL    H7531631   1.737   1.662   1.860 -1.1381 -0.6252  0.9559
   99MOL    H7631632   1.926   1.487   2.027 -0.9997 -1.8424  0.4343
   99MOL    H7731633   1.551   1.474   1.911 -0.3855  1.1500 -0.0919
   99MOL    H7831634   1.386   1.372   2.068  1.6853 -2.2161 -3.5143
   99MOL    H7931635   1.445   1.328   2.311  0.1768  0.3007  0.6113
   99MOL    H8031636   1.664   1.378   2.387 -0.4445  1.8095  0.0502
   99MOL    H8131637   1.835   1.458   2.242 -1.4580 -0.3413  0.8951
   99MOL    C8231638   1.858   1.413   1.850  0.2769 -0.0689 -0.0120
   99MOL    C8331639   2.003   1.419   1.789 -0.2702 -0.3757 -0.4924
   99MOL    C8431640   2.113   1.370   1.880  0.6494  0.7412  0.3846
   99MOL    C8531641   2.201   1.461   1.947  0.0871  0.1780  0.0776
   99MOL    C8631642   2.291   1.406   2.044  0.4501 -0.4284  0.1163
   99MOL    C8731643   2.295   1.265   2.075  0.5370 -0.0793  0.0938
   99MOL    C8831644   2.215   1.176   2.002  0.5392  0.1772 -0.0907
   99MOL    C8931645   2.131   1.227   1.906  0.0313 -0.6910  0.5895
   99MOL    H9031646   1.775   1.433   1.783 -0.1477  0.7655  0.7475
   99MOL    H9131647   1.839   1.309   1.878 -1.1875  0.0644 -0.4709
   99MOL    H9231648   2.018   1.522   1.757 -1.4809  0.5672  1.8176
   99MOL    H9331649   2.187   1.566   1.927  0.0623  0.5048  1.7002
   99MOL    H9431650   2.357   1.476   2.095 -0.7804  1.0201 -0.2537
   99MOL    H9531651   2.357   1.211   2.146  2.0254 -0.3380 -1.3723
   99MOL    H9631652   2.226   1.072   2.028  0.2021 -0.4522 -2.3554
   99MOL    H9731653   2.063   1.153   1.868 -0.3311 -0.6478  1.1384
   99MOL    C9831654   2.013   1.352   1.653  0.2743  0.3338  0.7851
   99MOL    C9931655   1.928   1.407   1.536  0.1776  0.1468 -0.2494
   99MOL   C10031656   1.934   1.555   1.540  0.7504  0.1519  0.2374
   99MOL   C10131657   1.818   1.631   1.574 -0.2501 -0.1569 -0.2998
   99MOL   C10231658   1.823   1.771   1.590 -0.1364 -0.1792  0.0601
   99MOL   C10331659   1.941   1.840   1.558 -0.0091 -0.9508  0.1178
   99MOL   C10431660   2.056   1.767   1.513  0.1987  0.6905  0.0087
   99MOL   C10531661   2.051   1.626   1.503 -0.3587  1.0811 -0.1543
   99MOL   H10631662   2.011   1.244   1.671 -1.3124  0.0370 -0.9730
   99MOL   H10731663   2.119   1.366   1.634  0.2664 -1.1669 -0.5116
   99MOL   H10831664   1.830   1.367   1.563 -0.1884 -0.1051 -1.9033
   99MOL   H10931665   1.727   1.574   1.586 -0.5356 -0.1382 -2.2823
   99MOL   H11031666   1.736   1.825   1.623  1.0371  0.2612  2.5740
   99MOL   H11131667   1.952   1.948   1.549  0.7045 -1.0057  0.2607
   99MOL   H11231668   2.137   1.831   1.483  0.3890  0.7147  0.5608
   99MOL   H11331669   2.135   1.571   1.465  1.1458  2.3017  1.3011
   99MOL   C11431670   1.975   1.349   1.403 -0.6053 -0.1869 -0.0448
   99MOL   C11531671   1.901   1.393   1.281  0.3990  0.2128  0.5659
   99MOL   C11631672   1.966   1.330   1.160 -0.2308  0.3898 -0.1753
   99MOL   C11731673   2.041   1.408   1.073  0.3820  0.3320 -0.0826
   99MOL   C11831674   2.125   1.344   0.980 -0.8972  0.3060  0.2107
   99MOL   C11931675   2.113   1.202   0.960 -0.3038  0.0941  0.6658
   99MOL   C12031676   2.026   1.124   1.042  0.6506 -0.8981 -0.1644
   99MOL   C12131677   1.955   1.184   1.142 -0.4316 -1.1723  0.6355
   99MOL   H12231678   1.965   1.244   1.429 -3.0964  0.1599  0.5136
   99MOL   H12331679   2.077   1.379   1.381 -0.2752 -0.3791  1.1956
   99MOL   H12431680   1.905   1.502   1.275  2.9973  0.1234  0.2332
   99MOL   H12531681   2.055   1.514   1.081  0.4195  0.5984 -2.8896
   99MOL   H12631682   2.189   1.414   0.928 -0.5033 -0.9964 -1.1295
   99MOL   H12731683   2.174   1.159   0.882 -2.0224  1.5279 -1.5437
   99MOL   H12831684   2.013   1.018   1.028  0.6539 -0.7449 -1.3599
   99MOL   H12931685   1.889   1.123   1.202 -1.4974  0.2275  0.9300
   99MOL   C13031686   1.751   1.361   1.293 -0.7279  0.9268 -0.1121
   99MOL   C13131687   1.670   1.408   1.168  0.0881  0.0857  0.4998
   99MOL   C13231688   1.528   1.339   1.160  0.3492  0.3256 -0.5782
   99MOL   C13331689   1.498   1.246   1.060  0.2431  0.3950  0.5071
   99MOL   C13431690   1.372   1.184   1.038  0.3250 -0.0555  0.2120
   99MOL   C13531691   1.274   1.210   1.136  0.4750 -0.1120  0.2088
   99MOL   C13631692   1.300   1.300   1.244 -0.1584  0.5598  1.0478
   99MOL   C13731693   1.426   1.366   1.251  0.1868  0.9163  0.7481
   99MOL   H13831694   1.704   1.410   1.378 -0.5717 -0.7666  0.9737
   99MOL   H13931695   1.730   1.255   1.310  0.4478  0.8634  1.0267
   99MOL   H14031696   1.727   1.374   1.082 -0.7971 -2.2950  0.8268
   99MOL   H14131697   1.570   1.215   0.986 -1.5745 -0.3684 -1.0084
   99MOL   H14231698   1.361   1.113   0.957 -0.0813  0.0503  0.1714
   99MOL   H14331699   1.175   1.169   1.122  1.4120 -2.1088 -0.7613
   99MOL   H14431700   1.230   1.315   1.324 -1.0185 -0.3056  0.4672
   99MOL   H14531701   1.443   1.435   1.333 -0.9358 -0.8984  2.5540
   99MOL   C14631702   1.667   1.564   1.160  0.4849 -0.1113 -0.4948
   99MOL   C14731703   1.697   1.622   1.017  0.0406 -0.1972  0.0794
   99MOL   C14831704   1.639   1.544   0.900 -0.1074  0.0597  0.3650
   99MOL   C14931705   1.512   1.578   0.853 -0.2041 -0.2084 -0.2197
   99MOL   C15031706   1.472   1.525   0.731 -0.1914 -0.3345  0.7664
   99MOL   C15131707   1.551   1.434   0.659 -0.2291 -0.4086 -0.4092
   99MOL   C15231708   1.677   1.402   0.711  0.1088 -0.0009 -0.1964
   99MOL   C15331709   1.723   1.444   0.837 -0.0288 -0.5602 -0.1417
   99MOL   H15431710   1.723   1.610   1.242 -1.5632  1.5056  0.0395
   99MOL   H15531711   1.565   1.596   1.181  0.8525 -0.1156  1.3971
   99MOL   H15631712   1.805   1.615   1.011  0.2019  0.8256  1.4846
   99MOL   H15731713   1.457   1.652   0.910  1.3246  0.8292 -0.0669
   99MOL   H15831714   1.375   1.542   0.686 -0.6084 -0.5050  1.5851
   99MOL   H15931715   1.533   1.397   0.560  0.8631 -1.9095 -0.0704
   99MOL   H16031716   1.751   1.339   0.664 -1.6448 -0.8540 -1.8693
   99MOL   H16131717   1.816   1.424   0.886 -1.7321 -0.0500  3.4431
   99MOL   C16231718   1.657   1.766   1.017  0.3436  0.3227 -0.3692
   99MOL   C16331719   1.754   1.856   1.100  0.0274  0.2600  0.5685
   99MOL   C16431720   1.899   1.840   1.057  1.0367 -0.7497  0.0769
   99MOL   C16531721   1.944   1.829   0.926  0.5765 -0.9921  0.3716
   99MOL   C16631722   2.082   1.806   0.903  0.2889 -0.1344 -0.0975
   99MOL   C16731723   2.173   1.776   1.006 -0.5414  0.2253 -0.1256
   99MOL   C16831724   2.127   1.785   1.139 -0.1193  0.9697  0.6631
   99MOL   C16931725   1.991   1.823   1.157 -0.7520  0.4080  0.3843
   99MOL   H17031726   1.553   1.785   1.043  1.0998  2.4970  1.1996
   99MOL   H17131727   1.673   1.799   0.915  0.0870  0.6110 -0.3134
   99MOL   H17231728   1.742   1.835   1.206 -0.6083  0.2499  0.4982
   99MOL   H17331729   1.877   1.836   0.841  1.0290 -1.3022 -0.0088
   99MOL   H17431730   2.119   1.800   0.802  0.2462 -2.2782 -0.0145
   99MOL   H17531731   2.277   1.756   0.986 -1.0579 -3.4295  0.6132
   99MOL   H17631732   2.189   1.778   1.228  1.1750  2.9085 -0.0456
   99MOL   H17731733   1.971   1.840   1.261 -0.6406  3.3681 -0.0486
   99MOL   C17831734   1.718   2.006   1.067 -0.3616  0.3642  0.9169
   99MOL   C17931735   1.614   2.057   1.169  0.7968  0.5442 -0.1976
   99MOL   C18031736   1.668   2.099   1.300 -0.2077  0.0979  0.3423
   99MOL   C18131737   1.757   2.208   1.299 -0.2422 -0.2692 -0.4862
   99MOL   C18231738   1.813   2.247   1.418 -0.1882  0.1849 -0.3940
   99MOL   C18331739   1.783   2.185   1.544 -0.0235 -0.1365  1.1204
   99MOL   C18431740   1.698   2.075   1.546 -0.0037  0.4015  0.4534
   99MOL   C18531741   1.634   2.038   1.428 -0.2832  0.6049  0.8782
   99MOL   H18631742   1.685   2.023   0.964  1.4129 -1.5873 -0.0180
   99MOL   H18731743   1.798   2.080   1.075 -0.0404 -0.1350  2.5122
   99MOL   H18831744   1.549   1.973   1.191  0.6241  0.7710  0.1649
   99MOL   H18931745   1.783   2.251   1.203 -0.0467 -2.0056 -1.2310
   99MOL   H19031746   1.876   2.335   1.416  0.3592 -0.1657  0.8584
   99MOL   H19131747   1.845   2.215   1.627  2.2242  0.9185 -0.8734
   99MOL   H19231748   1.676   2.019   1.636 -2.6927  1.3047  0.3949
   99MOL   H19331749   1.566   1.955   1.428  0.1145  0.2417 -2.0387
   99MOL   C19431750   1.524   2.171   1.099  0.1741  0.5571 -0.8481
   99MOL   C19531751   1.413   2.119   1.002 -0.1336  0.0364 -0.7541
   99MOL   C19631752   1.333   2.002   1.060 -0.2844  0.7093 -0.2587
   99MOL   C19731753   1.311   1.892   0.979 -0.0092  0.1631 -0.2661
   99MOL   C19831754   1.234   1.784   1.025 -0.3663  0.5735 -0.5533
   99MOL   C19931755   1.180   1.778   1.153 -0.0014  0.3712  0.1605
   99MOL   C20031756   1.205   1.895   1.237  0.4389  0.2758  0.2447
   99MOL   C20131757   1.282   2.004   1.190  0.0472  0.3734  1.3499
   99MOL   H20231758   1.579   2.257   1.061  0.3568  1.9613  2.4561
   99MOL   H20331759   1.468   2.216   1.181 -1.6609  0.5231 -2.0485
   99MOL   H20431760   1.462   2.079   0.913  1.0686  0.4115 -0.2730
   99MOL   H20531761   1.345   1.879   0.878 -1.9322  0.6695 -1.0000
   99MOL   H20631762   1.220   1.704   0.954 -0.7760  0.8422 -0.7791
   99MOL   H20731763   1.130   1.689   1.188  1.2148 -0.1995  0.4698
   99MOL   H20831764   1.169   1.904   1.339 -0.7988 -3.2225  0.2176
   99MOL   H20931765   1.303   2.088   1.253  0.5740  2.0545 -0.9925
   99MOL   C21031766   1.313   2.229   0.946 -0.6892  0.2833 -0.4666
   99MOL   C21131767   1.343   2.293   0.813  0.2756  0.3127 -0.3718
   99MOL   C21231768   1.461   2.393   0.812 -0.0433  0.0682  0.2264
   99MOL   C21331769   1.594   2.351   0.810  0.2277  0.0912 -0.1694
   99MOL   C21431770   1.698   2.446   0.832 -0.0532  0.0253  0.2475
   99MOL   C21531771   1.660   2.579   0.863 -0.3171 -0.1276  0.2061
   99MOL   C21631772   1.527   2.619   0.862 -0.0669  0.1671 -0.1132
   99MOL   C21731773   1.425   2.526   0.840  0.2257  0.7781 -0.3535
   99MOL   H21831774   1.303   2.311   1.017  1.8024  0.5157 -0.3144
   99MOL   H21931775   1.214   2.186   0.935  0.2378 -1.6856 -1.1720
   99MOL   H22031776   1.247   2.344   0.814 -0.3791 -0.8701  1.7128
   99MOL   H22131777   1.633   2.251   0.798 -2.9045 -1.0858 -0.9433
   99MOL   H22231778   1.804   2.429   0.823  0.0250  0.3840  0.4976
   99MOL   H22331779   1.739   2.651   0.877 -0.9491  0.3021  1.6250
   99MOL   H22431780   1.491   2.718   0.888  1.8922  0.4578  1.5739
   99MOL   H22531781   1.324   2.548   0.872  1.4728  3.3965  1.9455
   99MOL   C22631782   1.332   2.198   0.685  0.0371 -0.6578  0.2666
   99MOL   C22731783   1.301   2.265   0.552 -0.3028  0.1639  0.2572
   99MOL   C22831784   1.420   2.346   0.502 -0.0804 -0.3149  0.0995
   99MOL   C22931785   1.411   2.481   0.478  0.6041 -0.5718  0.4897
   99MOL   C23031786   1.526   2.555   0.425  0.0033  0.1355  0.5355
   99MOL   C23131787   1.652   2.488   0.407 -0.1353  0.3273  0.3441
   99MOL   C23231788   1.659   2.349   0.424 -0.3606  0.3157  0.3296
   99MOL   C23331789   1.546   2.276   0.469 -0.1824 -0.5248  0.0881
   99MOL   H23431790   1.255   2.123   0.702 -1.4469  0.5789 -0.8975
   99MOL   H23531791   1.429   2.150   0.669  0.5601  0.4283  0.1026
   99MOL   H23631792   1.221   2.336   0.572 -1.2511 -0.5028 -1.0527
   99MOL   H23731793   1.323   2.540   0.501  1.7733  0.8360  1.4497
   99MOL   H23831794   1.521   2.663   0.424 -1.5137  0.1009  1.9900
   99MOL   H23931795   1.742   2.542   0.379  0.8689 -0.8018  1.3250
   99MOL   H24031796   1.754   2.298   0.412 -0.3800 -0.3234  2.6837
   99MOL   H24131797   1.559   2.172   0.494 -0.3853 -0.2970  1.1802
   99MOL   C24231798   1.260   2.159   0.446  0.0525  0.6920 -0.4756
   99MOL   C24331799   1.111   2.130   0.428  0.4971  0.0764 -0.7178
   99MOL   C24431800   1.023   2.257   0.429 -0.3020  0.2544  0.0653
   99MOL   C24531801   1.058   2.374   0.357  0.2505  0.1054 -0.2367
   99MOL   C24631802   0.977   2.489   0.358 -0.0622  0.3299  0.8918
   99MOL   C24731803   0.858   2.487   0.432 -1.1606  0.0212 -0.3505
   99MOL   C24831804   0.830   2.373   0.512  0.6165  0.2257  0.4667
   99MOL   C24931805   0.909   2.263   0.516 -0.7586  0.1571 -0.0908
   99MOL   H25031806   1.314   2.065   0.459  1.5794  1.4559 -1.1425
   99MOL   H25131807   1.290   2.213   0.356  0.9019  0.3888 -0.3829
   99MOL   H25231808   1.076   2.066   0.509  0.3980  0.2217 -0.6455
   99MOL   H25331809   1.144   2.385   0.292 -1.3783  0.5122 -2.3755
   99MOL   H25431810   1.001   2.570   0.291  0.3480 -0.0389  0.5891
   99MOL   H25531811   0.786   2.565   0.414 -1.1766  0.1162  0.1263
   99MOL   H25631812   0.741   2.370   0.572  1.4431 -0.0733  1.7114
   99MOL   H25731813   0.893   2.174   0.575  1.6679 -2.1046 -2.6726
   99MOL   C25831814   1.082   2.049   0.298  0.1528 -0.3744  0.2563
   99MOL   C25931815   1.129   1.908   0.281  0.5475 -0.7721 -0.7077
   99MOL   C26031816   1.077   1.814   0.393  0.2959 -0.1038 -1.1511
   99MOL   C26131817   1.165   1.727   0.461 -0.1126 -0.1194  0.6017
   99MOL   C26231818   1.116   1.621   0.533  0.1190  0.7826 -0.1444
   99MOL   C26331819   0.978   1.604   0.546  0.6528 -0.3447 -0.6511
   99MOL   C26431820   0.884   1.688   0.481 -0.3014  0.5975 -0.3740
   99MOL   C26531821   0.938   1.793   0.401  0.2595 -0.4988 -0.2780
   99MOL   H26631822   1.121   2.110   0.217  1.6974 -1.5177  0.0968
   99MOL   H26731823   0.975   2.044   0.283  0.7097 -1.1654 -3.9422
   99MOL   H26831824   1.237   1.916   0.295  0.4875  1.1401 -1.2140
   99MOL   H26931825   1.273   1.734   0.455 -0.1528 -0.1379 -0.2021
   99MOL   H27031826   1.186   1.551   0.576  0.7896  0.9938 -0.8760
   99MOL   H27131827   0.945   1.533   0.620  1.7048 -1.3940 -1.1672
   99MOL   H27231828   0.779   1.665   0.488 -0.1377  0.3505  1.8191
   99MOL   H27331829   0.869   1.853   0.342  0.7628 -0.9400 -1.3216
   99MOL   C27431830   1.103   1.855   0.140  0.4075  0.3760 -0.1755
   99MOL   C27531831   1.222   1.848   0.046  0.0613  0.0883  0.2136
   99MOL   C27631832   1.287   1.985   0.041 -0.4868 -0.3460  0.3061
   99MOL   C27731833   1.227   2.085   8.073  0.5335 -0.6989 -0.7043
   99MOL   C27831834   1.283   2.213   8.064 -0.2167  0.0700  0.5027
   99MOL   C27931835   1.401   2.241   0.020 -0.3614 -0.6511 -0.2057
   99MOL   C28031836   1.458   2.146   0.107  0.3078  0.2636  0.4755
   99MOL   C28131837   1.399   2.022   0.116  0.5066 -0.1235  0.3464
   99MOL   H28231838   1.032   1.916   0.085  1.5931  1.4135 -0.5778
   99MOL   H28331839   1.069   1.752   0.136  0.2752  0.3415  1.3958
   99MOL   H28431840   1.194   1.829   8.057 -1.8120  1.4864  0.4397
   99MOL   H28531841   1.139   2.053   8.019  1.1640 -1.9603 -1.0055
   99MOL   H28631842   1.237   2.282   7.995 -1.2672 -0.6824  0.4175
   99MOL   H28731843   1.452   2.336   0.011 -1.6624 -0.1319 -2.4123
   99MOL   H28831844   1.547   2.169   0.164  0.2270 -0.5378  0.9366
   99MOL   H28931845   1.447   1.946   0.175  1.0562 -1.8080 -2.2123
   99MOL   C29031846   1.318   1.735   0.096  0.1912  0.5560  1.0378
   99MOL   C29131847   1.273   1.590   0.061  0.5633  0.3247  0.2111
   99MOL   C29231848   1.229   1.574   8.030  0.4199  0.2865  0.1454
   99MOL   C29331849   1.303   1.624   7.921  0.2265 -0.0027 -0.2407
   99MOL   C29431850   1.260   1.606   7.790  0.2097 -0.0406 -0.1555
   99MOL   C29531851   1.143   1.535   7.766 -0.6448 -0.2592 -0.4661
   99MOL   C29631852   1.063   1.496   7.873  0.0720  0.6600  0.1702
   99MOL   C29731853   1.108   1.507   8.002 -0.6560  0.4084  0.0438
   99MOL   H29831854   1.345   1.743   0.202  0.0212 -0.5924  1.1801
   99MOL   H29931855   1.413   1.747   0.044 -1.0555 -0.8504 -1.6310
   99MOL   H30031856   1.191   1.570   0.130  0.0412 -0.0303 -0.5110
   99MOL   H30131857   1.393   1.677   7.947 -1.1664  2.1533  0.3443
   99MOL   H30231858   1.322   1.648   7.712 -0.1271  1.6857  0.4863
   99MOL   H30331859   1.103   1.521   7.667 -2.8501 -0.4408  0.4380
   99MOL   H30431860   0.971   1.441   7.863  0.8262 -0.9248  1.6970
   99MOL   H30531861   1.048   1.463   8.079  1.2990 -0.7617  0.9490
   99MOL   C30631862   1.391   1.495   0.085  0.0684 -0.0362  0.2597
   99MOL   C30731863   1.362   1.345   0.045 -0.1834 -0.1257  0.2908
   99MOL   C30831864   1.482   1.299   8.083 -0.1264  0.7546 -0.6198
   99MOL   C30931865   1.572   1.203   0.019  0.5493 -0.3806  0.2480
   99MOL   C31031866   1.679   1.155   8.056 -0.7019  0.3841 -0.1097
   99MOL   C31131867   1.690   1.202   7.919 -0.7053  0.1567 -0.7784
   99MOL   C31231868   1.602   1.293   7.877  0.2670  0.2191  0.1890
   99MOL   C31331869   1.493   1.330   7.947 -0.1241  0.6218 -0.2992
   99MOL   H31431870   1.412   1.506   0.191 -0.2743 -0.5733  0.3851
   99MOL   H31531871   1.479   1.531   0.032  1.5653 -0.0177  2.6755
   99MOL   H31631872   1.270   1.334   8.103 -0.8203  1.0274  1.0945
   99MOL   H31731873   1.562   1.161   0.118 -1.0847  1.0112  0.7063
   99MOL   H31831874   1.752   1.089   8.100 -0.3471  1.6432  1.2461
   99MOL   H31931875   1.776   1.166   7.864 -1.4099  1.1420 -2.5466
   99MOL   H32031876   1.624   1.331   7.778 -2.3698 -2.5513 -1.5518
   99MOL   H32131877   1.420   1.393   7.897 -0.3544  0.3682 -0.2847
   99MOL   H32231878   1.356   1.288   0.138  2.0710  0.4020  0.7999
  100MOL     C131879   7.031   4.021   7.156 -0.4192  0.0329  0.2090
  100MOL     C231880   6.978   3.938   7.274  0.3299 -0.5767 -0.6211
  100MOL     C331881   7.051   3.804   7.276 -0.2718  0.1172 -0.1540
  100MOL     C431882   7.158   3.776   7.359 -0.5448  0.2136 -0.5509
  100MOL     C531883   7.228   3.655   7.353  0.5307 -0.9389 -0.5080
  100MOL     C631884   7.191   3.560   7.254  0.0970  0.0442 -0.2060
  100MOL     C731885   7.076   3.579   7.176 -0.0907 -0.0753 -0.5301
  100MOL     C831886   7.008   3.701   7.185  0.3580  0.5216  0.1438
  100MOL     H931887   7.127   4.062   7.189 -0.6052 -0.6935  1.6751
  100MOL    H1031888   7.042   3.953   7.072 -1.8746  0.9835 -0.7631
  100MOL    H1131889   6.873   3.914   7.258  0.1999 -0.3573 -0.1182
  100MOL    H1231890   7.195   3.845   7.433 -0.4577 -0.5040  0.0720
  100MOL    H1331891   7.320   3.633   7.406  0.6434  1.0732  0.1836
  100MOL    H1431892   7.260   3.478   7.236  0.0783 -0.0696  0.2324
  100MOL    H1531893   7.035   3.510   7.104  0.7397 -0.0978 -0.9852
  100MOL    H1631894   6.920   3.729   7.129  1.7344 -0.4625 -2.6168
  100MOL    H1731895   6.963   4.103   7.132 -0.4787  0.4919  1.8176
  100MOL    C1831896   6.976   4.007   7.407  0.4674 -0.1613 -0.0936
  100MOL    C1931897   6.893   4.139   7.422  0.2816  0.1780 -0.4785
  100MOL    C2031898   6.743   4.114   7.426  0.2030 -0.4114  0.1055
  100MOL    C2131899   6.686   3.987   7.466  0.4711  0.5259  0.7324
  100MOL    C2231900   6.545   3.978   7.485  0.2871  0.1178 -0.4698
  100MOL    C2331901   6.464   4.090   7.465  0.1819  0.4486 -0.3899
  100MOL    C2431902   6.514   4.210   7.414 -0.4808 -0.4291 -0.0440
  100MOL    C2531903   6.655   4.224   7.402  0.1585 -0.3019 -0.4669
  100MOL    H2631904   7.077   4.050   7.409 -0.1294  1.2182  1.8504
  100MOL    H2731905   6.954   3.937   7.487 -1.1354  0.2736 -0.1450
  100MOL    H2831906   6.919   4.214   7.348  1.2770  1.0184  0.6991
  100MOL    H2931907   6.749   3.902   7.487 -2.0578 -0.9839  2.4022
  100MOL    H3031908   6.498   3.887   7.520 -1.1739  1.0633  0.0665
  100MOL    H3131909   6.359   4.081   7.487  0.9517 -0.0208  3.4940
  100MOL    H3231910   6.443   4.289   7.395  0.2541  0.1118 -0.6221
  100MOL    H3331911   6.713   4.311   7.376 -0.6494  0.1455 -0.7857
  100MOL    C3431912   6.931   4.220   7.550  0.6487  0.2932  0.2465
  100MOL    C3531913   7.081   4.267   7.569 -0.2051  0.5215  0.6915
  100MOL    C3631914   7.130   4.357   7.456  0.0206 -0.0679  0.2840
  100MOL    C3731915   7.081   4.494   7.443 -0.0461 -0.1482  0.6117
  100MOL    C3831916   7.142   4.577   7.346 -0.6797  0.1086  0.3081
  100MOL    C3931917   7.239   4.529   7.260  0.1690 -0.1209 -0.5113
  100MOL    C4031918   7.292   4.397   7.275  0.3984  0.2744  0.1048
  100MOL    C4131919   7.233   4.315   7.374 -0.2375 -0.4108  0.6488
  100MOL    H4231920   6.902   4.159   7.636  0.4206  0.5069  0.3206
  100MOL    H4331921   6.872   4.311   7.550 -2.0860 -1.3612  3.1040
  100MOL    H4431922   7.146   4.179   7.567 -2.7515 -1.3825 -0.3182
  100MOL    H4531923   7.001   4.515   7.512  0.0036 -1.3920  1.0565
  100MOL    H4631924   7.098   4.674   7.328 -0.8689  0.0537  0.4776
  100MOL    H4731925   7.266   4.594   7.178  0.9244  1.4527  0.9417
  100MOL    H4831926   7.367   4.343   7.219 -1.0616 -1.8207  0.1402
  100MOL    H4931927   7.271   4.214   7.380  2.4854  0.6074  1.2175
  100MOL    C5031928   7.109   4.316   7.709  0.1027 -0.1263  0.0623
  100MOL    C5131929   7.086   4.211   7.821  0.3676 -0.0080  0.0548
  100MOL    C5231930   7.171   4.090   7.801 -0.1633 -0.7918  0.6981
  100MOL    C5331931   7.308   4.090   7.832  0.4091 -0.3215 -1.0185
  100MOL    C5431932   7.383   3.972   7.840  0.3799  0.1480  0.7141
  100MOL    C5531933   7.319   3.847   7.810 -0.2594 -0.1359  0.7534
  100MOL    C5631934   7.190   3.845   7.760 -0.3231  0.2869 -0.5710
  100MOL    C5731935   7.116   3.967   7.760  0.4154 -0.2176  0.6044
  100MOL    H5831936   7.051   4.408   7.717 -0.9592 -0.6120 -1.7525
  100MOL    H5931937   7.209   4.359   7.712  0.0370  0.3616 -3.0372
  100MOL    H6031938   6.983   4.176   7.819  0.5056 -0.4981  1.0734
  100MOL    H6131939   7.352   4.184   7.863  1.0045 -1.4295  1.6430
  100MOL    H6231940   7.482   3.978   7.882  0.0382 -2.5065  1.9904
  100MOL    H6331941   7.369   3.755   7.836 -1.0977 -0.7133  0.3739
  100MOL    H6431942   7.144   3.750   7.738  0.0761 -0.0076 -0.1326
  100MOL    H6531943   7.013   3.966   7.727  0.2685 -0.5866  1.0500
  100MOL    C6631944   7.079   4.272   7.962 -0.1131  0.8447  0.9675
  100MOL    C6731945   6.952   4.353   7.993 -0.5712  0.6918 -0.1744
  100MOL    C6831946   6.824   4.272   7.978 -0.3617  0.5168 -0.0666
  100MOL    C6931947   6.737   4.295   7.870  0.0788 -0.0177  0.5869
  100MOL    C7031948   6.622   4.215   7.851 -0.0227  0.0226 -0.2352
  100MOL    C7131949   6.606   4.099   7.934 -0.0212 -0.0041  0.3082
  100MOL    C7231950   6.690   4.077   8.047  0.1708  0.2519  0.2203
  100MOL    C7331951   6.800   4.168   8.071  0.5254 -0.4904  0.4139
  100MOL    H7431952   7.169   4.330   7.981  1.5647 -1.5183  0.5006
  100MOL    H7531953   7.084   4.187   8.029 -2.4651 -2.1477 -2.4200
  100MOL    H7631954   6.948   4.436   7.922  0.2519  0.8983  0.0120
  100MOL    H7731955   6.757   4.374   7.798 -0.4788 -0.5267 -0.1356
  100MOL    H7831956   6.555   4.232   7.768  0.0223  0.7763 -0.1173
  100MOL    H7931957   6.517   4.039   7.916  1.3415 -2.1175  0.4564
  100MOL    H8031958   6.674   3.992   8.112  1.2031  0.1797  0.3807
  100MOL    H8131959   6.851   4.160   0.051  1.4486 -1.8845 -0.1667
  100MOL    C8231960   6.956   4.417   0.017  0.4686  0.5569 -0.1988
  100MOL    C8331961   6.846   4.518   0.060  0.4968 -0.3968  0.2458
  100MOL    C8431962   6.875   4.574   0.199 -0.7274 -0.0551 -0.4691
  100MOL    C8531963   6.784   4.565   0.305 -0.4954  0.1954  1.0486
  100MOL    C8631964   6.817   4.618   0.433  0.7292 -0.2466 -0.3304
  100MOL    C8731965   6.945   4.680   0.454  0.0259  0.3913  1.1252
  100MOL    C8831966   7.021   4.699   0.338 -0.1883 -0.2617 -0.3872
  100MOL    C8931967   6.991   4.647   0.209  0.4479 -0.0488 -0.0736
  100MOL    H9031968   7.052   4.467   0.024  1.3714 -0.9947 -1.2142
  100MOL    H9131969   6.955   4.335   0.088 -0.6570  1.3956  0.7611
  100MOL    H9231970   6.751   4.463   0.058 -0.9813  2.0933 -0.4988
  100MOL    H9331971   6.686   4.520   0.296  0.5315 -1.6833 -1.2676
  100MOL    H9431972   6.752   4.608   0.518  2.4032 -0.9697  0.8881
  100MOL    H9531973   6.979   4.720   0.548 -1.4524  1.6117  1.1667
  100MOL    H9631974   7.106   4.766   0.336 -0.0185 -0.4894 -1.1957
  100MOL    H9731975   7.055   4.680   0.129 -1.2399  0.1577 -1.3833
  100MOL    C9831976   6.829   4.631   8.073 -0.5280 -0.1405 -0.3806
  100MOL    C9931977   6.764   4.771   8.099 -0.0107 -0.1241 -0.0939
  100MOL   C10031978   6.773   4.856   7.971  0.0657  0.0984 -0.1392
  100MOL   C10131979   6.712   4.813   7.851  0.3926  1.2052  0.9933
  100MOL   C10231980   6.717   4.890   7.737  0.4841 -1.0686  0.5422
  100MOL   C10331981   6.797   5.006   7.743 -0.1850 -0.6752 -0.2718
  100MOL   C10431982   6.854   5.054   7.862  0.8894 -0.0509  0.1603
  100MOL   C10531983   6.836   4.980   7.976 -0.1216  0.2282  0.0762
  100MOL   H10631984   6.773   4.597   7.985  0.0936 -1.0806 -0.4183
  100MOL   H10731985   6.928   4.655   8.036 -1.0743  0.0185 -1.7784
  100MOL   H10831986   6.832   4.807   0.062  1.1336 -1.4189 -0.4670
  100MOL   H10931987   6.654   4.722   7.855  1.1918  0.6653  0.4172
  100MOL   H11031988   6.657   4.866   7.651  1.9570 -0.6126 -0.6413
  100MOL   H11131989   6.808   5.070   7.657  0.9317  1.3686  1.3320
  100MOL   H11231990   6.927   5.133   7.850  2.4693 -1.5665 -0.4519
  100MOL   H11331991   6.906   5.003   8.056  1.8329 -0.7536 -1.3147
  100MOL   C11431992   6.621   4.754   0.032 -0.2203  0.4056 -0.0448
  100MOL   C11531993   6.553   4.863   0.125  0.8372 -0.1308  0.3968
  100MOL   C11631994   6.591   5.002   0.073 -0.0832 -0.6620  0.0720
  100MOL   C11731995   6.516   5.054   8.077  0.6657  0.6275  0.0399
  100MOL   C11831996   6.535   5.191   8.045  0.9257 -0.2245 -0.4142
  100MOL   C11931997   6.630   5.271   8.111  0.3997  0.4426 -0.0349
  100MOL   C12031998   6.699   5.214   0.106 -0.9416  0.5532  0.1545
  100MOL   C12131999   6.679   5.083   0.145  0.6299 -1.1588 -0.0049
  100MOL   H12232000   6.610   4.665   0.094 -1.5043  0.8291  0.3506
  100MOL   H12332001   6.556   4.731   8.063 -0.4715  0.6363  0.0870
  100MOL   H12432002   6.583   4.856   0.230 -0.6243  3.2306  1.1267
  100MOL   H12532003   6.448   4.996   8.017  0.9218 -1.0208  1.3135
  100MOL   H12632004   6.471   5.218   7.962  2.3536  1.7994 -0.8862
  100MOL   H12732005   6.635   5.378   8.096 -1.7336  0.5505 -0.1045
  100MOL   H12832006   6.762   5.280   0.164 -0.8983  1.2263 -0.6509
  100MOL   H12932007   6.738   5.041   0.225  2.2116  2.5299  0.8732
  100MOL   C13032008   6.394   4.841   0.138 -0.2286  0.8186  0.0057
  100MOL   C13132009   6.352   4.745   0.247  0.1803 -0.4324 -0.2711
  100MOL   C13232010   6.396   4.804   0.378 -0.2511 -0.3980  0.0013
  100MOL   C13332011   6.380   4.940   0.408  0.6332  0.5965 -0.6623
  100MOL   C13432012   6.404   4.988   0.538 -0.4409  0.2694 -0.4059
  100MOL   C13532013   6.456   4.903   0.636  0.6602  0.2955 -0.3183
  100MOL   C13632014   6.485   4.769   0.609 -1.0915 -0.1589  0.1326
  100MOL   C13732015   6.461   4.725   0.477  0.0038  0.2730 -0.1203
  100MOL   H13832016   6.347   4.817   0.043  1.3661  0.0988 -0.6183
  100MOL   H13932017   6.344   4.937   0.152  0.3318  0.9122  1.5410
  100MOL   H14032018   6.403   4.649   0.231 -2.2719 -2.4479  3.4118
  100MOL   H14132019   6.318   4.999   0.341  0.2197 -0.5077 -1.2502
  100MOL   H14232020   6.375   5.087   0.570 -0.1971  1.1377 -2.8049
  100MOL   H14332021   6.464   4.940   0.737  2.3177 -1.3191  0.1812
  100MOL   H14432022   6.525   4.709   0.689 -0.3620 -1.4242 -1.1508
  100MOL   H14532023   6.471   4.618   0.460 -0.2283  0.3291 -0.6257
  100MOL   C14632024   6.199   4.702   0.264  0.6181  0.6628 -0.0898
  100MOL   C14732025   6.141   4.621   0.140 -0.0946  0.2079 -0.5633
  100MOL   C14832026   6.211   4.492   0.103 -0.0404  1.1934 -0.2995
  100MOL   C14932027   6.275   4.466   8.093 -0.2208 -0.2292  0.0504
  100MOL   C15032028   6.351   4.341   8.075 -0.0333 -0.0304 -0.0779
  100MOL   C15132029   6.362   4.248   0.061 -0.1396 -1.0454 -0.4150
  100MOL   C15232030   6.290   4.269   0.182 -0.4922  0.0884  0.1050
  100MOL   C15332031   6.218   4.389   0.199 -0.0332 -0.2746 -0.4570
  100MOL   H15432032   6.132   4.786   0.284 -1.2128 -1.0349  1.0099
  100MOL   H15532033   6.184   4.637   0.350 -0.9475  1.8015  0.4983
  100MOL   H15632034   6.154   4.687   0.054  0.3231 -0.2170 -0.8274
  100MOL   H15732035   6.275   4.543   8.017 -1.0900  0.9859  1.2778
  100MOL   H15832036   6.409   4.337   7.984 -1.6397  0.8371 -1.1631
  100MOL   H15932037   6.410   4.153   0.045 -0.2960 -1.1861 -0.0552
  100MOL   H16032038   6.284   4.201   0.265  0.8286  1.6288  1.4815
  100MOL   H16132039   6.170   4.410   0.294 -0.5222 -0.4635 -0.6621
  100MOL   C16232040   5.992   4.577   0.152 -0.3058  0.6279 -0.5051
  100MOL   C16332041   5.889   4.696   0.163 -0.0724 -0.1186 -0.6603
  100MOL   C16432042   5.906   4.805   0.053 -0.1545  0.7057  0.0592
  100MOL   C16532043   5.852   4.781   8.039 -0.5501  0.8254  0.1975
  100MOL   C16632044   5.870   4.875   7.933  0.0291  0.4238  0.1397
  100MOL   C16732045   5.948   4.993   7.962  0.8690 -0.1121  0.1481
  100MOL   C16832046   6.007   5.016   8.091 -0.3254 -0.0804 -0.0248
  100MOL   C16932047   5.978   4.921   0.080 -0.6734 -0.0602 -0.7202
  100MOL   H17032048   5.980   4.516   0.242  0.9909 -0.2962 -0.9459
  100MOL   H17132049   5.961   4.515   0.068 -1.0005 -1.6794  1.3830
  100MOL   H17232050   5.904   4.752   0.255 -1.9366  1.6194 -1.3663
  100MOL   H17332051   5.790   4.694   8.018 -0.8574  1.1790 -0.3620
  100MOL   H17432052   5.818   4.860   7.839  1.0608 -2.4090 -0.0300
  100MOL   H17532053   5.959   5.071   7.888  1.5872 -0.8899 -0.5806
  100MOL   H17632054   6.068   5.104   8.094  0.9112 -0.9710  1.3737
  100MOL   H17732055   6.029   4.928   0.175  1.2586 -1.5758 -1.6222
  100MOL   C17832056   5.751   4.631   0.174 -0.3940 -0.0860 -0.5431
  100MOL   C17932057   5.630   4.726   0.169  0.3136 -0.4442 -0.3268
  100MOL   C18032058   5.502   4.653   0.125 -0.2905 -0.3436 -0.1620
  100MOL   C18132059   5.419   4.709   0.029  0.0530 -0.3079  0.2154
  100MOL   C18232060   5.292   4.664   8.111 -0.3543  0.2979  0.7132
  100MOL   C18332061   5.248   4.555   0.071 -0.0841 -0.9342 -0.5871
  100MOL   C18432062   5.327   4.499   0.173  0.2171 -0.2181 -0.5779
  100MOL   C18532063   5.458   4.541   0.197 -0.2927 -0.5124  0.3101
  100MOL   H18632064   5.752   4.574   0.267  3.8792  1.5650  0.5566
  100MOL   H18732065   5.743   4.568   0.086 -3.9652 -2.0683  1.0775
  100MOL   H18832066   5.649   4.781   0.077 -1.6201 -0.8438 -0.9824
  100MOL   H18932067   5.444   4.805   8.102 -2.4758  0.5135  0.4858
  100MOL   H19032068   5.229   4.719   8.043 -1.7756 -2.4151 -0.2458
  100MOL   H19132069   5.149   4.514   0.058  1.1205 -4.1668 -0.1488
  100MOL   H19232070   5.285   4.420   0.234 -0.6763  0.0096 -0.8813
  100MOL   H19332071   5.517   4.495   0.275 -0.7035 -0.1218  0.8574
  100MOL   C19432072   5.619   4.823   0.293 -0.4664  0.2315 -0.0094
  100MOL   C19532073   5.626   4.975   0.256  0.1798 -0.2244 -0.4371
  100MOL   C19632074   5.524   5.017   0.142 -0.6224  0.6815 -0.4135
  100MOL   C19732075   5.561   5.034   0.006 -0.8572  0.2630 -0.0519
  100MOL   C19832076   5.457   5.074   8.029 -0.4587  0.5884 -0.1052
  100MOL   C19932077   5.325   5.092   8.068 -0.7976 -0.2032  0.0396
  100MOL   C20032078   5.292   5.084   0.088  0.1963  0.3181  0.3337
  100MOL   C20132079   5.387   5.035   0.183  0.5383  0.5407 -0.2887
  100MOL   H20232080   5.688   4.791   0.370  3.1238  0.4749 -2.9714
  100MOL   H20332081   5.529   4.794   0.346 -1.6807 -0.0193 -2.1249
  100MOL   H20432082   5.727   4.981   0.215  0.4588  0.8441  0.3768
  100MOL   H20532083   5.666   5.024   8.100 -0.6096 -1.9841  2.0714
  100MOL   H20632084   5.486   5.076   7.925 -0.5421 -1.8399 -0.1852
  100MOL   H20732085   5.262   5.138   7.993 -0.7364  1.9418  1.2483
  100MOL   H20832086   5.189   5.106   0.111 -0.3785 -2.3069  0.4839
  100MOL   H20932087   5.349   5.009   0.281  2.1297 -2.8628 -0.4890
  100MOL   C21032088   5.617   5.066   0.383  0.7225 -0.2539  0.6016
  100MOL   C21132089   5.748   5.115   0.449  0.7159  0.0643 -0.6453
  100MOL   C21232090   5.806   4.999   0.533 -0.1847 -0.0389 -0.5566
  100MOL   C21332091   5.773   4.982   0.672 -1.3176  0.4892 -0.3659
  100MOL   C21432092   5.814   4.871   0.747  0.5616 -0.2625 -0.4307
  100MOL   C21532093   5.886   4.775   0.681  0.2789 -0.4239 -0.2120
  100MOL   C21632094   5.939   4.799   0.551  0.0520  0.6396 -0.1822
  100MOL   C21732095   5.901   4.911   0.476  0.3388 -0.0617 -0.2825
  100MOL   H21832096   5.550   5.022   0.456  0.1562  0.7121  0.6693
  100MOL   H21932097   5.558   5.154   0.356  0.4860  0.2447  2.6506
  100MOL   H22032098   5.714   5.179   0.530  1.3720  0.2571 -0.5253
  100MOL   H22132099   5.712   5.063   0.707 -2.1049  0.6063 -1.9532
  100MOL   H22232100   5.788   4.865   0.852  0.0971  3.0964 -0.2998
  100MOL   H22332101   5.902   4.690   0.746  1.0015  0.6765  1.0614
  100MOL   H22432102   6.017   4.739   0.505  1.6271  1.1218  1.8256
  100MOL   H22532103   5.937   4.928   0.375 -1.2496 -0.0266 -0.8494
  100MOL   C22632104   5.849   5.195   0.359  0.1489  0.2576 -0.1443
  100MOL   C22732105   5.969   5.267   0.439  0.1148  0.0603  0.6223
  100MOL   C22832106   6.077   5.298   0.345 -0.3618 -0.0004  0.5674
  100MOL   C22932107   6.206   5.258   0.376  0.2837  0.2268  0.1338
  100MOL   C23032108   6.309   5.289   0.287 -0.4015 -0.3993  0.3457
  100MOL   C23132109   6.280   5.353   0.165  0.0644 -0.1131  0.1845
  100MOL   C23232110   6.149   5.393   0.137 -0.4523 -0.2483 -0.1007
  100MOL   C23332111   6.049   5.373   0.230 -0.1508  0.2273 -0.4610
  100MOL   H23432112   5.792   5.273   0.308 -0.7379 -0.8084 -0.8018
  100MOL   H23532113   5.902   5.135   0.286  0.5218 -0.1202  0.4403
  100MOL   H23632114   6.007   5.202   0.518  0.9649  0.5540  0.6266
  100MOL   H23732115   6.229   5.204   0.466  2.5944 -1.5805 -1.4634
  100MOL   H23832116   6.411   5.256   0.302  0.2829  1.6769  0.3671
  100MOL   H23932117   6.356   5.370   0.090  0.0472  2.3823  0.6795
  100MOL   H24032118   6.142   5.443   0.042  0.1107 -0.8640 -0.4670
  100MOL   H24132119   5.954   5.420   0.208  0.2199  0.6804 -1.1117
  100MOL   C24232120   5.919   5.395   0.513 -0.0384 -0.5724  0.3597
  100MOL   C24332121   5.952   5.411   0.663  0.1024  0.0436 -0.0448
  100MOL   C24432122   6.098   5.406   0.690  0.3628 -0.2708  0.0757
  100MOL   C24532123   6.195   5.500   0.642  0.0076  0.4736 -0.3160
  100MOL   C24632124   6.330   5.472   0.672  0.3888 -0.3099  0.4944
  100MOL   C24732125   6.372   5.370   0.761  0.3449 -0.3004 -0.1714
  100MOL   C24832126   6.274   5.286   0.817  0.0283  0.3633 -0.1561
  100MOL   C24932127   6.143   5.295   0.777  0.1311  0.2616  0.9739
  100MOL   H25032128   5.811   5.399   0.503  0.1098 -0.8202 -1.4058
  100MOL   H25132129   5.955   5.487   0.466  1.4509 -0.7452  1.1219
  100MOL   H25232130   5.907   5.333   0.725 -3.4282 -0.3352 -2.9103
  100MOL   H25332131   6.164   5.577   0.574 -1.1133 -0.1639 -0.5415
  100MOL   H25432132   6.396   5.544   0.625  0.3636 -0.4249  0.2831
  100MOL   H25532133   6.475   5.365   0.792 -0.1356 -2.4966  1.1630
  100MOL   H25632134   6.295   5.202   0.881  0.6977  0.7254  0.1032
  100MOL   H25732135   6.067   5.223   0.801 -0.7455 -0.1853 -2.8035
  100MOL   C25832136   5.889   5.546   0.719 -0.2186 -0.6370 -0.1875
  100MOL   C25932137   5.892   5.556   0.873  0.1476 -0.1922  0.7582
  100MOL   C26032138   5.888   5.702   0.917  0.6661  0.0936 -0.6310
  100MOL   C26132139   6.006   5.774   0.942 -0.4263  0.0973  0.1368
  100MOL   C26232140   6.007   5.912   0.977 -0.4539  0.6689 -0.4243
  100MOL   C26332141   5.887   5.979   0.981  0.2699 -0.6435 -0.4110
  100MOL   C26432142   5.764   5.909   0.956 -0.3382  0.2627  0.5052
  100MOL   C26532143   5.771   5.770   0.935 -0.5570 -0.3304 -0.2792
  100MOL   H26632144   5.789   5.576   0.690 -0.0399  0.9880  0.8490
  100MOL   H26732145   5.961   5.623   0.690 -0.1403 -1.4206 -2.1702
  100MOL   H26832146   5.989   5.516   0.902 -0.2015 -2.3678 -0.9262
  100MOL   H26932147   6.104   5.732   0.929 -0.3091  1.0530 -2.3763
  100MOL   H27032148   6.097   5.965   1.002  1.5462 -2.1689 -1.2751
  100MOL   H27132149   5.890   6.083   1.010 -0.6521 -0.7738  0.1681
  100MOL   H27232150   5.668   5.957   0.944 -0.4513  0.1659  1.0323
  100MOL   H27332151   5.676   5.718   0.927 -0.6694 -0.1650 -0.0235
  100MOL   C27432152   5.789   5.468   0.938  0.3766 -0.8247  0.6076
  100MOL   C27532153   5.787   5.465   1.090 -0.2981  0.0190 -0.4275
  100MOL   C27632154   5.669   5.374   1.133 -0.4367 -0.4254  0.4062
  100MOL   C27732155   5.666   5.241   1.093 -0.1966  0.1517 -0.1907
  100MOL   C27832156   5.564   5.149   1.134  0.3565  0.4412 -1.1083
  100MOL   C27932157   5.459   5.200   1.219  0.4711 -0.3029  1.1139
  100MOL   C28032158   5.460   5.337   1.258  0.0800  0.4319 -0.4326
  100MOL   C28132159   5.566   5.416   1.222  0.2092 -0.8685 -0.0359
  100MOL   H28232160   5.798   5.364   0.907  1.7734 -0.0181 -1.7213
  100MOL   H28332161   5.690   5.497   0.901  0.5645  0.1602  0.8684
  100MOL   H28432162   5.783   5.561   1.140  1.0056 -0.1402 -0.0092
  100MOL   H28532163   5.753   5.209   1.039  1.5959  0.7656  2.2718
  100MOL   H28632164   5.572   5.050   1.090 -0.2569 -1.1540  2.1981
  100MOL   H28732165   5.373   5.143   1.250 -0.9803  0.9281 -0.5580
  100MOL   H28832166   5.389   5.380   1.327 -0.2904  0.8550 -1.0814
  100MOL   H28932167   5.575   5.517   1.260  0.7539 -0.9187 -0.0197
  100MOL   C29032168   5.924   5.412   1.149 -0.1022 -0.1219 -0.0949
  100MOL   C29132169   5.935   5.384   1.298  0.4125 -0.2001 -0.1166
  100MOL   C29232170   6.034   5.281   1.325  0.1431 -0.2135 -0.1664
  100MOL   C29332171   6.172   5.312   1.312 -0.3411 -0.0182  0.5601
  100MOL   C29432172   6.266   5.216   1.356  0.3167 -0.2067  0.2592
  100MOL   C29532173   6.227   5.090   1.405  0.0395  0.6273  0.0774
  100MOL   C29632174   6.093   5.051   1.405 -0.2080 -0.3444  0.2239
  100MOL   C29732175   6.000   5.148   1.366 -0.8010 -0.5851  0.0522
  100MOL   H29832176   6.001   5.483   1.119 -1.3080  2.0111  1.7331
  100MOL   H29932177   5.946   5.322   1.092  2.5373  0.7533 -0.5386
  100MOL   H30032178   5.839   5.336   1.317  0.1395 -0.0005 -0.9666
  100MOL   H30132179   6.210   5.409   1.283  0.8943 -0.7025 -0.1615
  100MOL   H30232180   6.370   5.244   1.359 -0.0231  0.9431  1.7180
  100MOL   H30332181   6.307   5.026   1.441  1.6031  1.7552 -1.3036
  100MOL   H30432182   6.058   4.952   1.431 -1.6913  0.3233  0.8352
  100MOL   H30532183   5.895   5.122   1.368 -0.9086 -0.1875 -0.3311
  100MOL   C30632184   5.944   5.509   1.398  0.1998 -0.3199  0.1909
  100MOL   C30732185   5.955   5.469   1.546 -0.1507 -0.7187  0.0231
  100MOL   C30832186   6.005   5.582   1.630 -0.0551  0.7941 -0.5886
  100MOL   C30932187   6.141   5.629   1.618 -0.7160 -0.2807 -0.2892
  100MOL   C31032188   6.186   5.725   1.708  0.0737  0.1063  0.1847
  100MOL   C31132189   6.099   5.787   1.795  0.0542  0.6345  0.3791
  100MOL   C31232190   5.967   5.745   1.806 -0.4644  0.6239 -0.1170
  100MOL   C31332191   5.923   5.633   1.732 -0.2147 -0.2891 -0.0868
  100MOL   H31432192   5.862   5.579   1.383  0.8431  0.2241 -0.8557
  100MOL   H31532193   6.023   5.575   1.363 -0.9613  0.6283 -0.6868
  100MOL   H31632194   6.017   5.379   1.553 -1.4326 -1.8929 -2.8269
  100MOL   H31732195   6.212   5.583   1.550  0.7849 -0.0716  1.0920
  100MOL   H31832196   6.288   5.759   1.700 -0.3825  1.4140 -0.1166
  100MOL   H31932197   6.137   5.865   1.858 -0.4453  1.7601 -0.6885
  100MOL   H32032198   5.896   5.789   1.874  0.1137 -0.0230  0.9107
  100MOL   H32132199   5.821   5.600   1.743 -0.7717  1.4730  0.1331
  100MOL   H32232200   5.852   5.446   1.574 -0.4645 -0.2333 -0.7299
  101MOL     C132201   1.573   5.787   1.142 -0.4588  0.2017  0.9327
  101MOL     C232202   1.522   5.931   1.117 -0.1391  0.2160  0.2484
  101MOL     C332203   1.482   5.945   0.964  0.6978  0.3865 -0.7662
  101MOL     C432204   1.363   6.008   0.914  0.8959  0.0954 -0.0166
  101MOL     C532205   1.347   6.027   0.780  0.0230 -0.0035  0.1602
  101MOL     C632206   1.434   5.972   0.685 -0.1330  0.3080  0.2174
  101MOL     C732207   1.540   5.896   0.728 -0.0660  0.5042  0.0697
  101MOL     C832208   1.571   5.888   0.865 -0.4108  0.1553  0.3277
  101MOL     H932209   1.494   5.714   1.131  1.4156 -1.8593  0.8546
  101MOL    H1032210   1.664   5.751   1.094 -0.3936  1.1497  0.3263
  101MOL    H1132211   1.616   5.987   1.127  0.6569 -1.3633  2.0958
  101MOL    H1232212   1.285   6.051   0.976 -0.5721 -0.9879 -1.0676
  101MOL    H1332213   1.270   6.089   0.737  2.5902  1.3687 -2.6715
  101MOL    H1432214   1.419   5.986   0.579  1.1213 -0.8841 -0.1274
  101MOL    H1532215   1.605   5.846   0.658 -1.6675  0.0840 -1.1309
  101MOL    H1632216   1.664   5.844   0.900 -0.3738  0.0450  0.0936
  101MOL    H1732217   1.598   5.770   1.247 -0.6237 -1.7974  0.6670
  101MOL    C1832218   1.411   5.973   1.216 -0.1746 -0.5550 -0.5455
  101MOL    C1932219   1.456   5.986   1.359 -0.0381 -0.0634  0.4656
  101MOL    C2032220   1.571   6.078   1.378 -0.5361 -0.1584 -0.0642
  101MOL    C2132221   1.559   6.220   1.361  0.7321 -0.2534 -0.1741
  101MOL    C2232222   1.672   6.303   1.380 -0.0567 -0.4634  0.3604
  101MOL    C2332223   1.798   6.250   1.405 -0.4376  0.0988 -0.7214
  101MOL    C2432224   1.812   6.112   1.417  0.1654  0.7087 -0.3460
  101MOL    C2532225   1.701   6.019   1.402 -0.1037 -0.2497  0.8174
  101MOL    H2632226   1.323   5.911   1.201 -2.4044  1.3765  3.6517
  101MOL    H2732227   1.369   6.070   1.191 -0.0370 -0.0946  0.9612
  101MOL    H2832228   1.471   5.885   1.398 -0.7723 -0.4098 -0.1370
  101MOL    H2932229   1.465   6.268   1.337  0.5466 -0.5747 -0.0930
  101MOL    H3032230   1.662   6.410   1.370  3.5820 -0.2061 -1.1742
  101MOL    H3132231   1.884   6.315   1.408 -1.3497  1.3566 -1.4895
  101MOL    H3232232   1.913   6.075   1.423  0.3912  1.5337  1.1600
  101MOL    H3332233   1.718   5.913   1.415  1.7331 -0.1916 -0.8471
  101MOL    C3432234   1.336   6.031   1.440  0.7158  0.4008 -0.1023
  101MOL    C3532235   1.209   5.933   1.452 -0.3823  0.5617  0.1927
  101MOL    C3632236   1.249   5.792   1.493 -0.3427  0.2006 -0.6004
  101MOL    C3732237   1.245   5.744   1.629 -0.3550 -0.5122  0.5093
  101MOL    C3832238   1.258   5.608   1.656 -0.5417 -0.2042 -0.8429
  101MOL    C3932239   1.278   5.515   1.554  0.3981  0.1093  0.3400
  101MOL    C4032240   1.285   5.554   1.422  0.6709 -0.5552  0.1517
  101MOL    C4132241   1.262   5.690   1.395 -0.8516  0.1265  0.3469
  101MOL    H4232242   1.301   6.127   1.401  0.1170  0.5785  0.8479
  101MOL    H4332243   1.378   6.053   1.539  2.0521 -2.2431 -0.0367
  101MOL    H4432244   1.159   5.919   1.356 -0.4172 -0.3538  0.3396
  101MOL    H4532245   1.233   5.813   1.711  0.6670 -0.1966  0.4001
  101MOL    H4632246   1.266   5.582   1.761 -0.7489 -0.0207 -0.7805
  101MOL    H4732247   1.306   5.414   1.580  1.5802  0.5272  0.7543
  101MOL    H4832248   1.302   5.489   1.338 -0.0963  0.9484 -1.1975
  101MOL    H4932249   1.251   5.714   1.290 -2.6190  1.2644  0.7760
  101MOL    C5032250   1.109   6.003   1.549 -0.1422  0.5654 -0.0039
  101MOL    C5132251   0.983   5.925   1.596  0.0301  0.3491  0.0677
  101MOL    C5232252   0.919   5.993   1.723  0.0021  0.4716 -0.2678
  101MOL    C5332253   0.917   5.925   1.849 -0.3089  0.7005 -0.0297
  101MOL    C5432254   0.876   5.996   1.961 -0.0903  0.3516 -0.0443
  101MOL    C5532255   0.837   6.127   1.961 -0.1622 -0.5368 -0.3136
  101MOL    C5632256   0.838   6.193   1.835  0.0186  0.3428 -0.0487
  101MOL    C5732257   0.879   6.127   1.719 -0.1348 -0.2368  0.0797
  101MOL    H5832258   1.067   6.091   1.500 -0.4712 -0.1016 -0.9428
  101MOL    H5932259   1.166   6.036   1.636 -1.1558 -1.7797  1.5996
  101MOL    H6032260   1.019   5.827   1.624  1.8076  0.3528 -2.0854
  101MOL    H6132261   0.948   5.822   1.863  0.8411  0.8719 -1.1414
  101MOL    H6232262   0.878   5.939   2.053 -0.7100 -0.4950 -0.5573
  101MOL    H6332263   0.812   6.183   2.050  0.6410 -0.1844 -0.3061
  101MOL    H6432264   0.810   6.297   1.833 -0.8623  0.1067 -0.2411
  101MOL    H6532265   0.886   6.194   1.635 -0.4741  2.8721  2.4643
  101MOL    C6632266   0.881   5.898   1.486 -0.7728  0.4266  0.4081
  101MOL    C6732267   0.859   5.751   1.456 -0.1574 -0.2279  0.1646
  101MOL    C6832268   0.841   5.653   1.572 -0.7199 -0.7395 -0.1066
  101MOL    C6932269   0.921   5.533   1.584 -0.7536 -0.0143 -0.4448
  101MOL    C7032270   0.898   5.441   1.691 -0.1726  0.1162  0.0030
  101MOL    C7132271   0.800   5.480   1.785 -0.6130  0.3886  0.1047
  101MOL    C7232272   0.733   5.598   1.781  0.1662 -0.1019  1.0420
  101MOL    C7332273   0.747   5.687   1.674 -0.3976  0.2280  0.0836
  101MOL    H7432274   0.908   5.942   1.390  0.4617  1.2325  1.1110
  101MOL    H7532275   0.786   5.946   1.512 -0.7321  1.5981 -1.5641
  101MOL    H7632276   0.953   5.718   1.411  0.4536  0.1142  1.1624
  101MOL    H7732277   0.998   5.508   1.512 -0.5274  0.4263 -0.3586
  101MOL    H7832278   0.944   5.347   1.715 -1.3070  0.0280  1.8741
  101MOL    H7932279   0.776   5.412   1.866  2.5149 -0.5303  0.3189
  101MOL    H8032280   0.663   5.620   1.860  1.1097 -1.0700  2.1623
  101MOL    H8132281   0.699   5.784   1.683  0.1547  0.5919 -0.8465
  101MOL    C8232282   0.738   5.725   1.353 -0.2863 -0.2133 -0.3335
  101MOL    C8332283   0.759   5.780   1.205 -0.1004  0.4342 -0.2920
  101MOL    C8432284   0.898   5.760   1.154 -0.2775 -0.5379  0.1616
  101MOL    C8532285   0.954   5.869   1.096 -0.5893  0.3350 -0.4713
  101MOL    C8632286   1.075   5.852   1.024  0.1998 -0.4948  0.1291
  101MOL    C8732287   1.138   5.723   1.034  0.0512  0.2932  0.0324
  101MOL    C8832288   1.078   5.608   1.091  0.1890  0.4689  0.4726
  101MOL    C8932289   0.952   5.631   1.150  1.8484  0.3012 -0.3653
  101MOL    H9032290   0.643   5.763   1.390 -0.0973  2.0239 -2.0368
  101MOL    H9132291   0.724   5.617   1.345 -0.0214 -0.2783  0.0218
  101MOL    H9232292   0.741   5.887   1.220 -0.8544  0.1953  0.5045
  101MOL    H9332293   0.902   5.964   1.096  0.3515  0.8538 -1.7566
  101MOL    H9432294   1.109   5.939   0.970  0.5429 -1.1574 -0.7511
  101MOL    H9532295   1.234   5.699   0.991  0.6464 -3.5345  3.2397
  101MOL    H9632296   1.124   5.512   1.074 -0.2261  0.1947  0.8999
  101MOL    H9732297   0.898   5.548   1.194  3.1084  0.6138  1.8528
  101MOL    C9832298   0.659   5.718   1.105  0.7902 -0.2842 -0.7591
  101MOL    C9932299   0.507   5.734   1.129  0.1787 -0.0799  0.1856
  101MOL   C10032300   0.469   5.875   1.173 -1.3303  0.3019  0.2292
  101MOL   C10132301   0.466   5.966   1.064  0.3328 -0.2490  0.7975
  101MOL   C10232302   0.422   6.100   1.085 -0.0218  0.7648 -0.0084
  101MOL   C10332303   0.398   6.140   1.215  0.0908 -0.3469 -0.7300
  101MOL   C10432304   0.390   6.047   1.321 -0.6356 -0.4822 -0.1011
  101MOL   C10532305   0.427   5.914   1.300  0.1459 -0.0614  0.1037
  101MOL   H10632306   0.687   5.614   1.087  1.2958 -0.6933  2.2341
  101MOL   H10732307   0.681   5.761   1.007 -3.8964  2.1951 -0.8631
  101MOL   H10832308   0.485   5.673   1.217 -2.5741  2.6474  1.4650
  101MOL   H10932309   0.500   5.932   0.968 -4.4286 -1.4048 -0.6087
  101MOL   H11032310   0.428   6.170   1.003  0.2976  0.6111 -0.1159
  101MOL   H11132311   0.386   6.247   1.228 -0.9382 -0.5049 -0.3341
  101MOL   H11232312   0.356   6.075   1.419 -0.9091  0.0519 -0.3467
  101MOL   H11332313   0.417   5.841   1.379  1.3563  0.5240  0.8123
  101MOL   C11432314   0.414   5.679   1.030  0.0644  0.0790  0.3165
  101MOL   C11532315   0.405   5.528   1.014 -0.2753  0.6197  0.0455
  101MOL   C11632316   0.381   5.446   1.136 -0.5763  0.2479  0.3229
  101MOL   C11732317   0.263   5.463   1.204  0.3224 -0.6574  0.1756
  101MOL   C11832318   0.219   5.392   1.320 -0.6989 -0.2244  0.1707
  101MOL   C11932319   0.313   5.310   1.380  0.6881  0.5185  0.3769
  101MOL   C12032320   0.440   5.293   1.317  0.3785  0.5387 -0.1917
  101MOL   C12132321   0.475   5.362   1.196 -0.9485  0.0419 -0.1078
  101MOL   H12232322   0.429   5.722   0.930  0.2606  0.6226  0.5780
  101MOL   H12332323   0.313   5.712   1.055 -0.3281 -0.3043 -0.7029
  101MOL   H12432324   0.502   5.494   0.977  0.4515  1.4232  1.1457
  101MOL   H12532325   0.192   5.533   1.161  0.5217  0.2662  1.3347
  101MOL   H12632326   0.121   5.412   1.361 -0.8803  0.0220 -0.3737
  101MOL   H12732327   0.278   5.269   1.473  0.1511 -0.4864 -0.2537
  101MOL   H12832328   0.509   5.230   1.369 -0.2504 -0.3494 -0.4244
  101MOL   H12932329   0.573   5.350   1.154 -0.8923 -2.0484  0.5799
  101MOL   C13032330   0.290   5.494   0.911  0.1017  0.3605 -0.4617
  101MOL   C13132331   0.276   5.349   0.859 -0.3430  0.3412 -0.8739
  101MOL   C13232332   0.135   5.330   0.801 -0.2314  0.4573 -0.5813
  101MOL   C13332333   0.089   5.422   0.703 -0.8704 -0.1923  0.8177
  101MOL   C13432334   8.079   5.405   0.651  0.0360  0.2817 -0.1562
  101MOL   C13532335   7.995   5.292   0.688  0.1433  1.0706  0.4033
  101MOL   C13632336   8.040   5.221   0.798 -0.0636  0.2714 -0.3050
  101MOL   C13732337   0.050   5.236   0.856 -0.9200 -0.4614 -0.1393
  101MOL   H13832338   0.302   5.562   0.827 -0.3768 -0.8120 -1.4977
  101MOL   H13932339   0.196   5.526   0.956  2.0419  1.4907  3.0343
  101MOL   H14032340   0.282   5.285   0.948  2.6390  1.7415  0.0129
  101MOL   H14132341   0.147   5.499   0.654 -3.3680  0.3114 -1.4409
  101MOL   H14232342   8.042   5.472   0.575 -0.5340  0.4165  0.2303
  101MOL   H14332343   7.898   5.275   0.645  0.2471  1.1329  0.1436
  101MOL   H14432344   7.986   5.131   0.825 -1.0468  0.6047 -1.1232
  101MOL   H14532345   0.085   5.170   0.934 -0.3837 -0.1238 -0.0906
  101MOL   C14632346   0.393   5.288   0.775  0.3449  0.3041 -0.5459
  101MOL   C14732347   0.419   5.337   0.634  0.4426  0.7241  1.5074
  101MOL   C14832348   0.451   5.483   0.623  0.0279 -0.2553 -0.1931
  101MOL   C14932349   0.554   5.540   0.698 -0.8509  0.9281 -0.1889
  101MOL   C15032350   0.599   5.674   0.683  0.5442  0.8054 -0.1383
  101MOL   C15132351   0.537   5.755   0.585 -0.0143  0.7265  0.1539
  101MOL   C15232352   0.432   5.701   0.504 -0.2390  0.6469 -0.4565
  101MOL   C15332353   0.385   5.570   0.532  0.2235  0.6949  0.2865
  101MOL   H15432354   0.373   5.181   0.770  0.2594  0.3278 -0.7273
  101MOL   H15532355   0.489   5.295   0.825 -0.1456 -0.1961  0.4810
  101MOL   H15632356   0.325   5.330   0.579  0.9975  1.1769  0.4858
  101MOL   H15732357   0.599   5.474   0.771  2.0046 -0.3616 -3.0002
  101MOL   H15832358   0.677   5.713   0.746  0.9102 -0.6181  0.3004
  101MOL   H15932359   0.576   5.854   0.566  0.8494  0.9102  2.7422
  101MOL   H16032360   0.382   5.769   0.436 -0.8306 -1.3171 -2.0359
  101MOL   H16132361   0.301   5.532   0.477  0.3927  2.1812 -1.0468
  101MOL   C16232362   0.522   5.245   0.569 -0.1621  0.0778 -0.0115
  101MOL   C16332363   0.559   5.272   0.418  0.8906 -0.3218 -0.7580
  101MOL   C16432364   0.679   5.188   0.369 -0.2288  0.7225  0.4211
  101MOL   C16532365   0.701   5.057   0.419  0.0094 -0.1173  0.7337
  101MOL   C16632366   0.819   4.990   0.388  0.0338 -0.3792 -0.1330
  101MOL   C16732367   0.910   5.043   0.294  0.0150  0.2846 -0.2153
  101MOL   C16832368   0.889   5.171   0.239  0.4077 -0.4420  0.0869
  101MOL   C16932369   0.767   5.240   0.276  0.9458 -0.4656  0.2768
  101MOL   H17032370   0.486   5.144   0.585 -0.1428  0.1305  0.3744
  101MOL   H17132371   0.611   5.250   0.631 -0.4432 -1.7922  0.5688
  101MOL   H17232372   0.610   5.368   0.423  0.3919 -0.0940  0.0523
  101MOL   H17332373   0.646   5.000   0.493 -0.5067 -0.1218  0.3491
  101MOL   H17432374   0.830   4.891   0.431  1.3461  0.1817  0.8745
  101MOL   H17532375   0.997   4.986   0.264  0.4267 -0.1739  1.7578
  101MOL   H17632376   0.964   5.215   0.174 -0.2486 -0.3302 -0.5963
  101MOL   H17732377   0.743   5.330   0.222 -1.6431 -2.6657 -2.3786
  101MOL   C17832378   0.445   5.292   0.317  0.2692 -0.3592  0.4421
  101MOL   C17932379   0.392   5.175   0.228 -0.4366 -0.1423  0.3531
  101MOL   C18032380   0.342   5.063   0.320  0.4182 -0.6591 -0.1209
  101MOL   C18132381   0.237   5.083   0.416  0.1416 -0.0097  0.5950
  101MOL   C18232382   0.204   4.988   0.512 -0.3551 -0.0187  0.3765
  101MOL   C18332383   0.268   4.870   0.510 -0.2116  0.1918  0.4575
  101MOL   C18432384   0.371   4.848   0.419  0.5507  0.1251 -0.0299
  101MOL   C18532385   0.411   4.943   0.324 -0.4507  0.2215 -0.3159
  101MOL   H18632386   0.462   5.374   0.247 -0.2261 -0.3772  0.2972
  101MOL   H18732387   0.354   5.329   0.364  0.1686 -0.9062  0.6846
  101MOL   H18832388   0.478   5.134   0.175  1.1224  1.7099  1.3799
  101MOL   H18932389   0.190   5.180   0.418  1.4348  0.6354  0.6187
  101MOL   H19032390   0.126   5.007   0.585 -0.4692  1.4529 -0.1191
  101MOL   H19132391   0.247   4.794   0.583 -1.9848  1.9739  1.8730
  101MOL   H19232392   0.435   4.762   0.431 -0.3518 -0.9215 -2.3513
  101MOL   H19332393   0.497   4.917   0.263 -1.9923 -1.5852 -1.8158
  101MOL   C19432394   0.283   5.221   0.128  0.0554  0.7878 -0.6050
  101MOL   C19532395   0.325   5.282   8.105  0.2351  0.2660  0.1268
  101MOL   C19632396   0.447   5.218   8.048  0.7459  0.1191  0.0059
  101MOL   C19732397   0.579   5.266   8.063 -0.4437  0.0537  0.3993
  101MOL   C19832398   0.683   5.214   7.986 -0.5312 -0.2475 -0.2076
  101MOL   C19932399   0.654   5.108   7.899 -0.9856  0.4542 -0.3463
  101MOL   C20032400   0.521   5.044   7.895 -0.5655 -0.6871 -0.4764
  101MOL   C20132401   0.419   5.106   7.968 -0.1218 -0.4242  0.3880
  101MOL   H20232402   0.208   5.290   0.168  1.2160  1.0704  1.1342
  101MOL   H20332403   0.234   5.126   0.106  0.1379  0.6872 -0.3557
  101MOL   H20432404   0.369   5.381   0.004 -0.1359  0.5148 -0.4235
  101MOL   H20532405   0.600   5.343   0.021  1.8807  0.6815 -0.8977
  101MOL   H20632406   0.785   5.248   7.996  0.8931 -4.0179 -1.1727
  101MOL   H20732407   0.736   5.067   7.842  0.1202  2.4730 -0.2433
  101MOL   H20832408   0.508   4.947   7.849 -0.5934 -0.2345 -1.4173
  101MOL   H20932409   0.320   5.063   7.979 -0.2519  0.2117  1.7928
  101MOL   C21032410   0.196   5.301   8.015  0.1056  0.3276  0.9951
  101MOL   C21132411   0.110   5.437   8.032 -0.9618 -0.1820  0.6700
  101MOL   C21232412   0.197   5.562   8.030 -1.1367 -0.4957 -0.8913
  101MOL   C21332413   0.257   5.589   7.912 -0.0327  0.4249  0.5363
  101MOL   C21432414   0.343   5.700   7.901  0.3768 -0.5405 -0.5957
  101MOL   C21532415   0.373   5.781   8.010  0.0058  0.7145 -0.0412
  101MOL   C21632416   0.316   5.753   0.017 -0.0870  0.2104 -0.5352
  101MOL   C21732417   0.232   5.644   0.030  0.3562  0.9427  0.3274
  101MOL   H21832418   0.137   5.210   8.015  0.8797 -0.2166  3.0117
  101MOL   H21932419   0.238   5.309   7.915 -0.6759  1.5081  0.7524
  101MOL   H22032420   0.057   5.445   0.012 -0.2730 -1.7800  1.2129
  101MOL   H22132421   0.246   5.535   7.818  0.0899  0.3590  0.5600
  101MOL   H22232422   0.377   5.729   7.803  1.5174  1.4007  0.3685
  101MOL   H22332423   0.423   5.876   8.007 -0.1092  0.8542  2.0088
  101MOL   H22432424   0.336   5.827   0.094  0.9608  1.1985 -1.7363
  101MOL   H22532425   0.194   5.619   0.128 -1.0493  0.0277 -0.4281
  101MOL   C22632426   0.004   5.439   7.928  0.4568  0.7746  0.1450
  101MOL   C22732427   8.015   5.324   7.931 -0.2120  0.2743  0.2103
  101MOL   C22832428   7.964   5.297   8.066 -0.3873  0.2115  0.2861
  101MOL   C22932429   7.860   5.371   0.010 -0.0809 -0.3966 -1.0733
  101MOL   C23032430   7.824   5.355   0.145 -0.4457  0.4250 -0.3074
  101MOL   C23132431   7.891   5.258   0.222  0.0043  0.8875  0.0841
  101MOL   C23232432   7.991   5.178   0.161 -0.5421  0.6254  0.0251
  101MOL   C23332433   8.020   5.191   0.025  0.4613  0.0145 -0.3859
  101MOL   H23432434   0.053   5.430   7.832 -0.6872  0.2561 -0.4040
  101MOL   H23532435   8.078   5.539   7.948 -0.6192  0.0057  1.9584
  101MOL   H23632436   8.066   5.229   7.913 -0.5366 -0.0346  0.9261
  101MOL   H23732437   7.809   5.445   8.065  0.0239 -0.4931 -1.2827
  101MOL   H23832438   7.753   5.416   0.198 -0.0444  1.0539 -0.4842
  101MOL   H23932439   7.868   5.233   0.324  0.4215  1.7582  0.3946
  101MOL   H24032440   8.036   5.107   0.230 -1.8774 -1.1183 -0.8730
  101MOL   H24132441   8.084   5.117   8.094  0.0108 -0.9282  0.4793
  101MOL   C24232442   7.903   5.332   7.827 -0.0407  0.4804 -0.4346
  101MOL   C24332443   7.930   5.302   7.684 -0.2907  0.2288  0.8221
  101MOL   C24432444   8.048   5.214   7.663  0.4884  0.1005  0.5036
  101MOL   C24532445   0.057   5.271   7.621  0.2075 -0.5507 -0.6362
  101MOL   C24632446   0.174   5.195   7.618 -0.7413  0.5913 -0.2485
  101MOL   C24732447   0.169   5.060   7.646 -0.0291 -0.6932 -0.2230
  101MOL   C24832448   0.050   5.005   7.690 -0.2609  0.7268 -0.6043
  101MOL   C24932449   8.047   5.079   7.704 -0.4574  0.2574 -0.1219
  101MOL   H25032450   7.856   5.428   7.849  2.6400  1.5614  0.8709
  101MOL   H25132451   7.823   5.271   7.869 -0.7884  1.5877 -0.2348
  101MOL   H25232452   7.957   5.394   7.632 -1.3540 -1.4707 -2.9796
  101MOL   H25332453   0.064   5.378   7.604  0.7517 -0.6218 -0.8861
  101MOL   H25432454   0.272   5.235   7.596 -0.2074 -0.1458  0.7470
  101MOL   H25532455   0.257   4.997   7.641  0.2979 -0.3514  1.0668
  101MOL   H25632456   0.049   4.905   7.732 -3.2335  0.3745 -1.3564
  101MOL   H25732457   7.961   5.031   7.749  1.6585 -2.5895  1.0392
  101MOL   C25832458   7.803   5.238   7.614 -0.0882  0.2765 -0.2134
  101MOL   C25932459   7.683   5.328   7.591 -0.9939  0.0794 -0.1579
  101MOL   C26032460   7.731   5.450   7.513 -0.6698  0.0003  0.1961
  101MOL   C26132461   7.688   5.580   7.543  0.0758  0.1401 -0.4248
  101MOL   C26232462   7.734   5.695   7.475 -0.5061  0.5606 -0.2627
  101MOL   C26332463   7.824   5.678   7.367 -0.5787 -0.6825 -0.5132
  101MOL   C26432464   7.865   5.549   7.335  0.2663 -0.0975 -0.5425
  101MOL   C26532465   7.819   5.436   7.404  1.0478  0.6091  0.1414
  101MOL   H26632466   7.776   5.155   7.680  0.9403 -1.1603 -1.5675
  101MOL   H26732467   7.831   5.180   7.526 -0.7289 -1.1402  0.4902
  101MOL   H26832468   7.643   5.362   7.686 -0.8462 -1.0660  0.3206
  101MOL   H26932469   7.613   5.588   7.621  1.3549 -0.4122  0.8940
  101MOL   H27032470   7.689   5.791   7.496  1.6909  1.8980 -1.4431
  101MOL   H27132471   7.865   5.762   7.314  0.1727 -0.7873 -0.1068
  101MOL   H27232472   7.935   5.525   7.257  0.6462  1.1246 -0.5904
  101MOL   H27332473   7.857   5.339   7.374  0.3624  0.6363 -0.8247
  101MOL   C27432474   7.560   5.266   7.520  0.2854 -0.1699  0.0815
  101MOL   C27532475   7.456   5.182   7.605 -0.2023  0.6492  0.6810
  101MOL   C27632476   7.410   5.257   7.725  0.1610 -0.5542 -0.4199
  101MOL   C27732477   7.478   5.241   7.845  0.1548  0.3863  0.3583
  101MOL   C27832478   7.441   5.305   7.965 -0.6267 -0.4042  0.1208
  101MOL   C27932479   7.330   5.400   7.965 -0.2921  0.2549  0.1786
  101MOL   C28032480   7.262   5.416   7.838 -0.4001  0.0718 -0.2120
  101MOL   C28132481   7.300   5.346   7.723  0.0188 -0.6366  0.7605
  101MOL   H28232482   7.594   5.217   7.429 -1.8840 -0.8868 -0.3751
  101MOL   H28332483   7.501   5.347   7.477  1.8326  0.2728 -1.2717
  101MOL   H28432484   7.517   5.102   7.646  0.6706  1.1119  0.2990
  101MOL   H28532485   7.563   5.175   7.849 -0.9103 -1.0004  0.2250
  101MOL   H28632486   7.500   5.296   8.055 -1.7522  0.1698  0.9308
  101MOL   H28732487   7.301   5.464   8.047  0.4667 -1.7994  2.0897
  101MOL   H28832488   7.170   5.473   7.836 -0.8698 -0.6939 -0.7233
  101MOL   H28932489   7.241   5.347   7.633  0.9949  2.1002  0.1136
  101MOL   C29032490   7.345   5.126   7.512 -0.5795 -0.6988 -0.2085
  101MOL   C29132491   7.232   5.047   7.582 -0.0710 -0.6572  0.1895
  101MOL   C29232492   7.119   5.031   7.478  0.1375  0.3328 -0.7953
  101MOL   C29332493   7.134   4.940   7.371 -0.6407  0.6271 -0.5622
  101MOL   C29432494   7.043   4.928   7.263  0.5723  0.3819  0.1257
  101MOL   C29532495   6.940   5.024   7.261  0.7865  0.4729 -0.0222
  101MOL   C29632496   6.929   5.115   7.363 -0.2815  0.2894  0.7289
  101MOL   C29732497   7.015   5.127   7.477 -0.4701  0.1552  0.5103
  101MOL   H29832498   7.389   5.073   7.428 -0.6324 -0.2192 -0.5398
  101MOL   H29932499   7.299   5.209   7.459  2.9053  1.7954  0.4873
  101MOL   H30032500   7.204   5.108   7.668 -0.5668 -0.5517 -0.0408
  101MOL   H30132501   7.219   4.874   7.375 -0.3875  1.0474  1.6021
  101MOL   H30232502   7.057   4.851   7.189 -1.6598 -0.5214  0.6051
  101MOL   H30332503   6.871   5.031   7.177  0.0301 -0.7710  0.4769
  101MOL   H30432504   6.848   5.185   7.348  0.3896  0.6957 -1.2445
  101MOL   H30532505   7.003   5.210   7.545 -0.0620  1.2809 -0.7889
  101MOL   C30632506   7.291   4.925   7.648 -0.4396  0.2564  0.3704
  101MOL   C30732507   7.183   4.823   7.693 -0.6668  0.2061  0.2594
  101MOL   C30832508   7.243   4.707   7.777 -0.1083 -0.1681  0.2048
  101MOL   C30932509   7.326   4.609   7.717  0.2547  0.2472 -0.3237
  101MOL   C31032510   7.403   4.518   7.801  0.1094 -0.0378  0.2828
  101MOL   C31132511   7.374   4.517   7.936 -0.9985 -0.2540  0.4179
  101MOL   C31232512   7.289   4.608   7.996 -0.3808  0.1292  0.3423
  101MOL   C31332513   7.224   4.703   7.916  0.2712  0.3200 -0.7012
  101MOL   H31432514   7.348   4.963   7.733  1.4964  0.0613 -0.8004
  101MOL   H31532515   7.361   4.872   7.583 -1.0779  0.7482 -0.7150
  101MOL   H31632516   7.144   4.774   7.604  2.5343  2.1971 -2.3567
  101MOL   H31732517   7.332   4.618   7.610  0.4535  0.2858 -0.3090
  101MOL   H31832518   7.460   4.440   7.753 -1.3748  0.5509 -2.5364
  101MOL   H31932519   7.426   4.448   8.002  1.3850  1.7149  0.6825
  101MOL   H32032520   7.263   4.602   8.101 -0.4512  0.5930  0.3527
  101MOL   H32132521   7.153   4.776   7.953 -2.0752 -2.3444  0.2866
  101MOL   H32232522   7.100   4.873   7.743 -0.9236 -0.1160  0.1583
  102MOL     C132523   6.166   0.860   4.338  0.9218 -0.6998 -0.0747
  102MOL     C232524   6.283   0.790   4.272  0.4593 -0.2703  0.7852
  102MOL     C332525   6.278   0.797   4.116 -0.8500 -0.4330 -0.6658
  102MOL     C432526   6.290   0.923   4.049  0.4720  0.8781  0.5732
  102MOL     C532527   6.279   0.926   3.907  0.2794 -0.4182  0.2037
  102MOL     C632528   6.269   0.808   3.837 -0.7100 -0.1469  0.0899
  102MOL     C732529   6.284   0.686   3.898  0.3053  0.5271 -0.1924
  102MOL     C832530   6.284   0.679   4.037  1.2612 -0.1952 -0.0167
  102MOL     H932531   6.175   0.968   4.346 -1.8958 -0.3771 -0.7646
  102MOL    H1032532   6.079   0.845   4.274  1.4034 -1.5569 -0.5308
  102MOL    H1132533   6.273   0.685   4.300  1.7175 -0.7896 -0.6580
  102MOL    H1232534   6.294   1.019   4.099  0.6666 -0.1846  2.6402
  102MOL    H1332535   6.278   1.023   3.859  1.5827 -0.6752 -0.3561
  102MOL    H1432536   6.258   0.817   3.730 -1.7620  1.1827  0.2880
  102MOL    H1532537   6.290   0.594   3.841 -0.1244 -0.0947  0.7488
  102MOL    H1632538   6.286   0.578   4.077 -1.0443 -0.2789 -0.0478
  102MOL    H1732539   6.151   0.833   4.443 -0.7216 -0.2536 -0.1795
  102MOL    C1832540   6.412   0.840   4.334 -0.0401  0.3903  0.5620
  102MOL    C1932541   6.427   0.819   4.487 -0.6280 -0.3832 -0.6281
  102MOL    C2032542   6.397   0.673   4.526  1.1826 -0.3484 -0.0071
  102MOL    C2132543   6.485   0.579   4.470  0.0494 -0.5868 -0.1981
  102MOL    C2232544   6.476   0.448   4.521 -0.2377  0.1845 -0.3725
  102MOL    C2332545   6.381   0.415   4.627  0.2615  0.3654 -0.1499
  102MOL    C2432546   6.303   0.515   4.687 -0.5978  0.2330 -0.0354
  102MOL    C2532547   6.311   0.646   4.632 -0.0243  0.3685  0.0426
  102MOL    H2632548   6.437   0.944   4.309 -1.1767  0.3229 -0.8916
  102MOL    H2732549   6.481   0.779   4.276 -1.6137  0.2009 -1.1427
  102MOL    H2832550   6.350   0.880   4.533  0.1804 -0.6296  1.0988
  102MOL    H2932551   6.556   0.617   4.398  1.0696 -0.2498  0.9792
  102MOL    H3032552   6.535   0.367   4.481  1.2701  1.1681 -0.1631
  102MOL    H3132553   6.373   0.311   4.654 -0.3109  0.1576 -1.0845
  102MOL    H3232554   6.247   0.502   4.778  1.2375  0.3998  1.1431
  102MOL    H3332555   6.247   0.723   4.672  0.0653 -0.0602  1.0531
  102MOL    C3432556   6.565   0.856   4.526 -0.0846  0.0678  0.0691
  102MOL    C3532557   6.577   1.002   4.579 -0.2418 -0.5148 -0.0988
  102MOL    C3632558   6.504   1.039   4.700 -0.4995  0.3821 -0.1929
  102MOL    C3732559   6.394   1.128   4.693 -0.4288  0.2249  0.8155
  102MOL    C3832560   6.326   1.169   4.807 -0.9322 -0.3599  0.5375
  102MOL    C3932561   6.359   1.101   4.931  0.0590  0.6724 -0.2631
  102MOL    C4032562   6.462   1.006   4.934  0.0383  0.4925  0.8970
  102MOL    C4132563   6.539   0.981   4.822  0.1685 -0.6748 -0.1757
  102MOL    H4232564   6.636   0.859   4.444  1.3222 -1.0239  1.1956
  102MOL    H4332565   6.602   0.793   4.608 -1.1825  0.4776  0.8975
  102MOL    H4432566   6.529   1.067   4.506 -1.5366 -1.8502 -0.4728
  102MOL    H4532567   6.373   1.170   4.596 -0.9897 -2.0184 -0.0579
  102MOL    H4632568   6.266   1.258   4.797  0.7017  0.5843 -1.3194
  102MOL    H4732569   6.292   1.116   5.015 -2.1550 -0.1525 -1.8212
  102MOL    H4832570   6.495   0.969   5.030  0.1209  4.4689  2.5418
  102MOL    H4932571   6.621   0.910   4.823 -0.7863 -1.8253 -1.0381
  102MOL    C5032572   6.728   1.053   4.594 -0.3433  0.4421  0.2440
  102MOL    C5132573   6.809   1.075   4.459  0.4990  0.0470 -0.1886
  102MOL    C5232574   6.720   1.142   4.355  0.0743 -0.0726 -0.1264
  102MOL    C5332575   6.673   1.072   4.239 -0.3973 -0.7375  0.4221
  102MOL    C5432576   6.599   1.141   4.145  0.2357  0.4997  0.2960
  102MOL    C5532577   6.561   1.273   4.160 -0.2568 -0.3967  0.0372
  102MOL    C5632578   6.601   1.344   4.274  0.4097  0.2035 -0.6717
  102MOL    C5732579   6.673   1.271   4.372  0.7615 -0.1846  0.2719
  102MOL    H5832580   6.787   0.983   4.654 -0.7154  0.1231  0.2383
  102MOL    H5932581   6.725   1.152   4.638 -1.4810 -0.2329  1.7266
  102MOL    H6032582   6.826   0.980   4.409  0.4869 -0.1465  0.1775
  102MOL    H6132583   6.701   0.969   4.226 -0.4957 -0.6622 -0.4671
  102MOL    H6232584   6.566   1.082   4.061 -1.1899  1.0365  0.4532
  102MOL    H6332585   6.493   1.317   4.088  1.5330  0.6979 -1.0022
  102MOL    H6432586   6.578   1.449   4.284  2.5626  0.9273 -2.6984
  102MOL    H6532587   6.704   1.336   4.453  0.7894  0.9822 -0.6615
  102MOL    C6632588   6.936   1.167   4.472 -0.2555  0.7901  0.2408
  102MOL    C6732589   7.057   1.114   4.561 -0.3953  0.0701 -0.1061
  102MOL    C6832590   7.135   1.012   4.478  0.7799 -0.1381 -0.0045
  102MOL    C6932591   7.159   0.883   4.534  0.7346  0.1807 -0.3772
  102MOL    C7032592   7.246   0.799   4.474  0.6208 -0.0914  0.6230
  102MOL    C7132593   7.304   0.832   4.348  0.1533 -0.2671  0.2823
  102MOL    C7232594   7.269   0.952   4.281 -0.3115 -0.1769  0.0552
  102MOL    C7332595   7.191   1.041   4.350 -0.5125  0.3030  0.3232
  102MOL    H7432596   6.909   1.263   4.513 -0.5305  0.5748  0.5636
  102MOL    H7532597   6.971   1.186   4.371  3.6410 -0.9372  1.1770
  102MOL    H7632598   7.009   1.071   4.649  2.8101  0.0866  1.7428
  102MOL    H7732599   7.123   0.857   4.633 -0.6041  0.4986 -0.7632
  102MOL    H7832600   7.268   0.704   4.520 -0.1189 -0.0247  1.1319
  102MOL    H7932601   7.357   0.748   4.306 -1.1315 -0.9069 -0.0584
  102MOL    H8032602   7.298   0.969   4.179 -0.5715  0.8935  0.1627
  102MOL    H8132603   7.177   1.133   4.295  0.7569  0.7340  0.6931
  102MOL    C8232604   7.154   1.225   4.612  0.2317  0.4469  0.5536
  102MOL    C8332605   7.101   1.318   4.722 -0.0982 -1.0713 -0.5195
  102MOL    C8432606   7.027   1.243   4.837 -0.3562 -1.0570 -0.0340
  102MOL    C8532607   7.101   1.161   4.925 -0.2413  0.0119 -0.3517
  102MOL    C8632608   7.036   1.097   5.032 -0.2983 -0.5305  0.8864
  102MOL    C8732609   6.898   1.102   5.041  0.4332  0.0291  0.1548
  102MOL    C8832610   6.827   1.189   4.953 -0.0281 -0.9674  0.1178
  102MOL    C8932611   6.889   1.248   4.841  0.3003  0.5672 -0.4339
  102MOL    H9032612   7.177   1.294   4.532 -0.5876  1.7190  1.3829
  102MOL    H9132613   7.244   1.181   4.655 -0.0587  2.5311  3.4769
  102MOL    H9232614   7.029   1.388   4.679 -1.0121 -1.0142  1.0877
  102MOL    H9332615   7.207   1.162   4.907 -0.0853 -1.8411  0.4100
  102MOL    H9432616   7.106   1.045   5.095  2.7489  0.9781 -1.1170
  102MOL    H9532617   6.854   1.044   5.121  0.6127 -0.1962  0.0890
  102MOL    H9632618   6.719   1.195   4.960  0.0246  1.6201 -0.8559
  102MOL    H9732619   6.828   1.302   4.770  1.4902 -1.3390 -2.9610
  102MOL    C9832620   7.211   1.403   4.783  0.0438  0.1443  0.0296
  102MOL    C9932621   7.276   1.515   4.692  0.1564 -0.4077 -0.1381
  102MOL   C10032622   7.174   1.619   4.642  0.0985  0.2088 -0.1574
  102MOL   C10132623   7.146   1.620   4.505  0.0061 -0.1493 -0.0227
  102MOL   C10232624   7.052   1.709   4.465 -0.0496  0.1124 -0.2869
  102MOL   C10332625   6.973   1.789   4.548  0.3727  0.6210 -0.9193
  102MOL   C10432626   6.996   1.780   4.684  0.1904 -0.2839  0.9518
  102MOL   C10532627   7.102   1.695   4.733 -0.3822 -0.0977 -0.2448
  102MOL   H10632628   7.296   1.346   4.822  0.8838  1.1900 -0.2589
  102MOL   H10732629   7.159   1.455   4.864 -0.1944  1.3578 -0.8985
  102MOL   H10832630   7.323   1.470   4.605 -0.3611 -0.5797 -0.3352
  102MOL   H10932631   7.212   1.570   4.436 -0.0447 -1.3342  0.7797
  102MOL   H11032632   7.034   1.720   4.359  0.5370  2.9302 -0.1465
  102MOL   H11132633   6.898   1.859   4.512  0.6769  0.1279 -2.5276
  102MOL   H11232634   6.931   1.836   4.750 -0.1728  0.7998 -0.2940
  102MOL   H11332635   7.125   1.691   4.839 -0.8681 -2.4969 -0.2042
  102MOL   C11432636   7.395   1.573   4.768 -0.0355  0.2113 -0.1787
  102MOL   C11532637   7.454   1.715   4.727  0.6565 -0.1633 -1.3551
  102MOL   C11632638   7.539   1.765   4.845  0.2202  0.2741 -0.1824
  102MOL   C11732639   7.679   1.742   4.853  0.1381 -0.0385  1.1093
  102MOL   C11832640   7.757   1.811   4.945 -0.5079  0.9928  0.0567
  102MOL   C11932641   7.703   1.894   5.041  0.4060  0.5283  0.2503
  102MOL   C12032642   7.562   1.905   5.046  0.8200  0.0609  0.8261
  102MOL   C12132643   7.484   1.841   4.947  0.0713 -0.3523  0.1318
  102MOL   H12232644   7.473   1.497   4.775  0.3768  0.6604  0.1565
  102MOL   H12332645   7.364   1.582   4.872 -1.1215 -0.0251 -0.4769
  102MOL   H12432646   7.368   1.780   4.714  2.7399  2.7242 -0.9673
  102MOL   H12532647   7.725   1.671   4.786 -0.1695 -1.5958  2.4985
  102MOL   H12632648   7.865   1.810   4.939 -0.4724 -3.3332  0.2604
  102MOL   H12732649   7.761   1.950   5.113  1.1262  1.0301 -0.7012
  102MOL   H12832650   7.523   1.977   5.117  0.3369 -0.6986  1.3356
  102MOL   H12932651   7.379   1.866   4.943 -0.2224 -1.6684 -0.5341
  102MOL   C13032652   7.522   1.702   4.592 -0.8842 -0.0051  1.2872
  102MOL   C13132653   7.569   1.840   4.537 -0.2600  0.2464  0.0261
  102MOL   C13232654   7.706   1.843   4.472 -0.0730  0.1051 -0.2067
  102MOL   C13332655   7.741   1.763   4.360 -0.4317  0.0275 -0.0942
  102MOL   C13432656   7.866   1.775   4.295 -0.7754 -0.0977 -0.0360
  102MOL   C13532657   7.953   1.873   4.339  0.4936  0.3468  0.1982
  102MOL   C13632658   7.924   1.951   4.446  0.3328 -0.1102  0.0646
  102MOL   C13732659   7.805   1.942   4.515 -0.0666 -0.1163  0.4567
  102MOL   H13832660   7.465   1.658   4.510  0.0913  0.6475  0.2301
  102MOL   H13932661   7.611   1.639   4.600 -1.2684 -0.6519  0.4857
  102MOL   H14032662   7.567   1.902   4.626 -1.8208 -0.5035  0.5293
  102MOL   H14132663   7.671   1.692   4.318 -0.6216 -0.1474  0.5171
  102MOL   H14232664   7.894   1.712   4.211  3.6157 -0.3641  1.5154
  102MOL   H14332665   8.051   1.873   4.295  0.1044  0.1856 -0.6705
  102MOL   H14432666   7.995   2.022   4.485  1.3157 -1.3985  0.6835
  102MOL   H14532667   7.782   2.001   4.603  0.2275 -1.5961  1.5640
  102MOL   C14632668   7.459   1.902   4.442  0.5265 -0.5204 -0.1818
  102MOL   C14732669   7.453   2.060   4.445 -0.0265 -0.2633 -0.0796
  102MOL   C14832670   7.363   2.100   4.336  0.1963  0.3870 -0.7313
  102MOL   C14932671   7.406   2.209   4.258  0.0967  0.4632 -0.4223
  102MOL   C15032672   7.334   2.259   4.155  0.7902  0.7489 -0.0681
  102MOL   C15132673   7.210   2.198   4.121  0.1720 -0.2767 -0.2515
  102MOL   C15232674   7.153   2.094   4.206  0.0572 -0.1804  0.1640
  102MOL   C15332675   7.230   2.052   4.316 -0.0066  0.1804 -0.0360
  102MOL   H15432676   7.361   1.866   4.471 -1.0004  1.0116 -3.1923
  102MOL   H15532677   7.475   1.861   4.343 -2.8043 -0.1577 -0.9198
  102MOL   H15632678   7.553   2.096   4.422  0.2319 -1.5588 -1.0978
  102MOL   H15732679   7.503   2.254   4.272  0.1331  0.0611  0.6796
  102MOL   H15832680   7.375   2.341   4.098  0.0039  0.4710 -1.0609
  102MOL   H15932681   7.155   2.226   4.033  0.3304 -0.9248 -0.5593
  102MOL   H16032682   7.054   2.051   4.196 -0.6629  1.8759 -1.9230
  102MOL   H16132683   7.196   1.963   4.367 -2.2493  0.6654 -0.6122
  102MOL   C16232684   7.402   2.123   4.573 -0.2871 -0.1258 -0.2449
  102MOL   C16332685   7.515   2.198   4.653  0.2550 -0.7388 -0.4316
  102MOL   C16432686   7.563   2.321   4.581  0.0496 -0.3960 -0.0494
  102MOL   C16532687   7.470   2.427   4.560 -0.1585  0.7984 -0.0618
  102MOL   C16632688   7.498   2.523   4.466  0.3470 -0.1824 -0.2938
  102MOL   C16732689   7.607   2.528   4.384 -0.3472 -0.0982 -0.0736
  102MOL   C16832690   7.706   2.429   4.414 -0.4909 -0.1474 -0.2717
  102MOL   C16932691   7.686   2.329   4.513 -0.8157  0.5066  0.7845
  102MOL   H17032692   7.367   2.040   4.635 -1.6933 -0.8626 -1.9589
  102MOL   H17132693   7.314   2.187   4.567  1.2576  2.5352  3.5055
  102MOL   H17232694   7.604   2.135   4.654 -0.0494 -1.2432 -2.2002
  102MOL   H17332695   7.377   2.430   4.615 -0.6794 -0.6282 -0.8340
  102MOL   H17432696   7.432   2.608   4.461  0.8560  0.0984 -3.0828
  102MOL   H17532697   7.634   2.597   4.305  2.2516  1.0465  1.7402
  102MOL   H17632698   7.790   2.415   4.347 -0.8711 -0.6601 -0.6495
  102MOL   H17732699   7.764   2.254   4.514  0.1327  1.3682 -1.9896
  102MOL   C17832700   7.459   2.233   4.790  0.1885  0.7809  0.5593
  102MOL   C17932701   7.539   2.319   4.892 -0.7263  0.0277  0.2078
  102MOL   C18032702   7.451   2.367   5.003 -0.0454 -0.3434 -0.0774
  102MOL   C18132703   7.400   2.266   5.091 -0.2424 -0.4741  0.3288
  102MOL   C18232704   7.319   2.310   5.203  0.5090  0.2593 -0.2678
  102MOL   C18332705   7.283   2.441   5.218  0.4976 -0.2720 -0.0126
  102MOL   C18432706   7.330   2.540   5.128  0.4751 -0.3410  0.0930
  102MOL   C18532707   7.416   2.499   5.025  0.1699  0.8141  0.8610
  102MOL   H18632708   7.442   2.135   4.834 -0.2970 -0.1253 -1.6201
  102MOL   H18732709   7.362   2.276   4.769 -0.8760 -1.5568  0.5651
  102MOL   H18832710   7.571   2.414   4.848 -1.9131  0.3230 -0.0271
  102MOL   H18932711   7.420   2.161   5.075 -0.3731 -0.5456  0.6365
  102MOL   H19032712   7.294   2.232   5.274 -0.8040  1.6290  0.8112
  102MOL   H19132713   7.222   2.467   5.303 -2.2888 -2.4220 -1.2548
  102MOL   H19232714   7.308   2.644   5.148  0.7576 -0.5017  1.2577
  102MOL   H19332715   7.444   2.573   4.952 -1.1568 -0.6935 -1.2028
  102MOL   C19432716   7.669   2.247   4.942  0.3605 -0.6840  0.4821
  102MOL   C19532717   7.775   2.348   4.998  0.1424  0.5577 -0.0092
  102MOL   C19632718   7.868   2.273   5.098  0.3206  0.1998 -0.6640
  102MOL   C19732719   7.945   2.165   5.049 -0.1763  0.1690  0.5014
  102MOL   C19832720   8.031   2.093   5.135  0.9131  0.8700  0.3636
  102MOL   C19932721   8.038   2.126   5.271 -0.7880  0.6019  0.4302
  102MOL   C20032722   7.969   2.238   5.324  0.0394  0.4780  0.1237
  102MOL   C20132723   7.879   2.304   5.237 -0.5581  0.4389  0.0471
  102MOL   H20232724   7.719   2.201   4.857  0.3752 -1.2113  0.7681
  102MOL   H20332725   7.658   2.169   5.018 -2.2955  1.8832  2.8537
  102MOL   H20432726   7.724   2.416   5.067  0.5943  1.1153 -0.2194
  102MOL   H20532727   7.935   2.128   4.948  2.1305 -1.2885  0.7770
  102MOL   H20632728   8.070   2.003   5.089 -1.4358  0.9130 -1.8010
  102MOL   H20732729   8.101   2.079   5.346 -0.4667  2.4689  1.3681
  102MOL   H20832730   7.976   2.265   5.428  0.3915  0.7524  0.0322
  102MOL   H20932731   7.845   2.399   5.277 -1.7653 -0.3504  0.9110
  102MOL   C21032732   7.856   2.417   4.885 -0.0162  0.9318 -0.7769
  102MOL   C21132733   7.877   2.567   4.912 -0.0815  0.6771  0.7202
  102MOL   C21232734   7.907   2.602   5.059 -0.0508 -0.4067  0.2564
  102MOL   C21332735   7.807   2.665   5.135  0.0430  0.0655  0.4742
  102MOL   C21432736   7.831   2.721   5.262 -0.2217  0.6170  0.2000
  102MOL   C21532737   7.966   2.726   5.317 -0.1975  0.3408  0.3034
  102MOL   C21632738   8.064   2.656   5.243  0.0522 -0.3572 -0.4280
  102MOL   C21732739   8.035   2.589   5.121  0.7005 -0.2643  0.4281
  102MOL   H21832740   7.799   2.414   4.792 -0.1936 -1.2424 -0.6357
  102MOL   H21932741   7.947   2.364   4.858 -0.1382 -0.5021  1.4545
  102MOL   H22032742   7.782   2.610   4.881 -0.2664 -0.8555 -0.9198
  102MOL   H22132743   7.702   2.667   5.108  0.2923  1.1647 -0.4591
  102MOL   H22232744   7.751   2.750   5.328 -2.1465 -2.5185 -0.6211
  102MOL   H22332745   7.979   2.773   5.414  0.1455  0.2263  0.3141
  102MOL   H22432746   0.052   2.662   5.277  0.1240 -0.4858 -0.6165
  102MOL   H22532747   8.114   2.540   5.068  0.6096  0.9006 -0.8118
  102MOL   C22632748   7.989   2.635   4.821  0.0198  0.1799  0.2396
  102MOL   C22732749   7.941   2.664   4.677  0.3227  0.0302 -0.1173
  102MOL   C22832750   7.834   2.776   4.670 -0.3373  0.0491 -0.8925
  102MOL   C22932751   7.810   2.866   4.781 -0.8722  0.1266  0.7610
  102MOL   C23032752   7.727   2.976   4.756 -0.0709 -0.5661 -0.2259
  102MOL   C23132753   7.644   2.986   4.640  0.6196  0.4866  0.7321
  102MOL   C23232754   7.658   2.891   4.538 -0.5970 -0.0491  0.5791
  102MOL   C23332755   7.760   2.797   4.553  0.3459  0.3562  0.3384
  102MOL   H23432756   8.069   2.561   4.812 -0.4701 -0.3073 -0.1100
  102MOL   H23532757   8.038   2.729   4.849 -0.2018 -0.2231  2.0577
  102MOL   H23632758   7.891   2.573   4.644  0.6673 -0.4200  0.5949
  102MOL   H23732759   7.872   2.855   4.869  1.5955  1.4239 -0.7413
  102MOL   H23832760   7.724   3.061   4.823 -1.3383 -1.9075  1.4750
  102MOL   H23932761   7.582   3.073   4.627 -1.9638 -1.2096  1.4497
  102MOL   H24032762   7.610   2.915   4.445  1.5346 -0.5685 -0.6879
  102MOL   H24132763   7.776   2.735   4.466  2.0071  1.5588 -0.2357
  102MOL   C24232764   8.049   2.702   4.581 -0.0496  0.3926 -0.3605
  102MOL   C24332765   0.041   2.598   4.530  0.0134 -0.6700  0.0297
  102MOL   C24432766   8.099   2.511   4.412 -0.7188  0.4517  0.1218
  102MOL   C24532767   8.100   2.561   4.279 -0.1119  0.1220  0.6163
  102MOL   C24632768   8.047   2.488   4.170  0.3078  0.5686  0.7371
  102MOL   C24732769   8.003   2.357   4.190 -0.4579 -0.1881  0.0701
  102MOL   C24832770   8.009   2.302   4.321 -0.6947 -0.1002  0.1441
  102MOL   C24932771   8.065   2.374   4.431 -0.5001  0.2463  0.0643
  102MOL   H25032772   8.107   2.783   4.625 -2.0619  1.5509  0.2095
  102MOL   H25132773   8.007   2.753   4.494  0.4391  0.9046 -0.2992
  102MOL   H25232774   0.065   2.536   4.616 -0.9258  0.6510  1.2695
  102MOL   H25332775   0.008   2.664   4.261 -1.0087  0.1737 -0.2984
  102MOL   H25432776   8.022   2.539   4.078 -2.0459  1.4469  1.8471
  102MOL   H25532777   7.961   2.302   4.107  0.0855 -1.3117  0.5335
  102MOL   H25632778   7.979   2.198   4.324 -0.5955 -0.1859 -1.6716
  102MOL   H25732779   8.070   2.330   4.529  0.2457 -0.1218 -0.1317
  102MOL   C25832780   0.170   2.668   4.499  0.5990 -0.3855  0.7955
  102MOL   C25932781   0.292   2.565   4.483  0.2357  0.0158  0.2819
  102MOL   C26032782   0.366   2.590   4.346 -1.5992 -0.0138 -0.4945
  102MOL   C26132783   0.323   2.544   4.222  0.1088 -0.1741 -0.0474
  102MOL   C26232784   0.390   2.575   4.102  0.6306 -0.2819  0.7302
  102MOL   C26332785   0.496   2.672   4.097  0.3168 -0.3069  0.3550
  102MOL   C26432786   0.541   2.717   4.221 -0.5433  0.3673  0.4084
  102MOL   C26532787   0.477   2.677   4.343  0.3001 -1.1630 -0.3223
  102MOL   H26632788   0.201   2.734   4.580  1.2747  0.6132 -0.2582
  102MOL   H26732789   0.160   2.738   4.417  1.1655 -0.6237  0.5187
  102MOL   H26832790   0.243   2.471   4.460  2.3416 -0.7647 -1.1361
  102MOL   H26932791   0.240   2.476   4.216 -1.1844  1.4243 -0.7561
  102MOL   H27032792   0.345   2.528   4.015 -0.2467 -0.6920  1.3932
  102MOL   H27132793   0.535   2.701   4.000  0.3977  1.7067  0.9636
  102MOL   H27232794   0.620   2.791   4.226  2.8527 -3.1583  0.5584
  102MOL   H27332795   0.495   2.719   4.441 -3.3693  1.4545 -0.6635
  102MOL   C27432796   0.384   2.554   4.610 -0.4566 -0.0547 -0.2550
  102MOL   C27532797   0.323   2.481   4.728  0.0404  0.4600  0.2047
  102MOL   C27632798   0.276   2.342   4.697  0.4524 -0.2471 -0.6467
  102MOL   C27732799   0.346   2.251   4.613 -0.0305  0.1681  0.0561
  102MOL   C27832800   0.300   2.130   4.574  0.4750  0.4524  0.0795
  102MOL   C27932801   0.167   2.098   4.616 -0.4208  0.3294 -0.4751
  102MOL   C28032802   0.097   2.182   4.706 -0.0275 -0.1261  0.7855
  102MOL   C28132803   0.146   2.308   4.744 -0.1407 -0.2227  0.5968
  102MOL   H28232804   0.412   2.654   4.644 -1.0933  0.6066 -1.6385
  102MOL   H28332805   0.474   2.501   4.582 -1.5234 -2.0948  0.0786
  102MOL   H28432806   0.239   2.541   4.763  0.5430  0.3609  1.6167
  102MOL   H28532807   0.441   2.279   4.570 -0.1013  0.6218  0.1962
  102MOL   H28632808   0.355   2.066   4.507 -0.5836  0.3142 -0.6700
  102MOL   H28732809   0.119   2.009   4.578  0.0232 -0.0405 -0.1789
  102MOL   H28832810   8.115   2.145   4.737 -0.0277  0.9741  2.1560
  102MOL   H28932811   0.086   2.374   4.805 -2.4483 -0.3585 -1.4976
  102MOL   C29032812   0.414   2.469   4.849  0.0115  1.1526  0.3244
  102MOL   C29132813   0.467   2.596   4.924 -0.2608  0.3270 -0.3092
  102MOL   C29232814   0.366   2.707   4.924  0.2640 -0.8276 -0.0023
  102MOL   C29332815   0.249   2.696   5.002 -0.2528 -0.5290 -0.7954
  102MOL   C29432816   0.157   2.805   5.012 -0.4065 -0.5491  0.5424
  102MOL   C29532817   0.186   2.932   4.942  0.4794 -0.1693  0.5262
  102MOL   C29632818   0.306   2.938   4.866  0.1167  0.2807 -0.0467
  102MOL   C29732819   0.395   2.830   4.852  0.6608  0.1211 -0.1022
  102MOL   H29832820   0.491   2.393   4.837 -1.2397 -0.0650 -0.1001
  102MOL   H29932821   0.345   2.421   4.919 -0.8634 -2.0428 -2.5920
  102MOL   H30032822   0.553   2.634   4.868  0.2932 -0.2208  0.1566
  102MOL   H30132823   0.219   2.608   5.057 -1.8211  0.4282 -0.0551
  102MOL   H30232824   0.068   2.802   5.072  0.1286  2.9233  1.6390
  102MOL   H30332825   0.117   3.015   4.947  1.0701  0.3094  0.7036
  102MOL   H30432826   0.338   3.036   4.830  0.2876  0.9323  1.8483
  102MOL   H30532827   0.487   2.849   4.800  0.7220 -1.8763 -0.7702
  102MOL   C30632828   0.514   2.562   5.066 -0.6682 -0.6846 -0.6343
  102MOL   C30732829   0.636   2.464   5.074  0.5650 -0.1049  0.5472
  102MOL   C30832830   0.706   2.450   5.208 -0.5027  0.3628  0.0547
  102MOL   C30932831   0.846   2.470   5.219 -0.5847  0.2394  0.7998
  102MOL   C31032832   0.908   2.451   5.348 -0.2786 -0.1590 -0.0123
  102MOL   C31132833   0.840   2.384   5.450  0.0782  0.4574  0.0028
  102MOL   C31232834   0.699   2.366   5.435 -0.6785 -0.4169 -0.7756
  102MOL   C31332835   0.631   2.397   5.317 -0.1675 -0.0959 -0.7303
  102MOL   H31432836   0.431   2.518   5.121 -0.4666  0.3390  0.5108
  102MOL   H31532837   0.533   2.653   5.122 -1.2384 -0.2516 -1.1341
  102MOL   H31632838   0.706   2.483   4.992  0.2515 -1.4373 -0.0339
  102MOL   H31732839   0.904   2.508   5.137 -1.4790 -0.8142 -0.3509
  102MOL   H31832840   1.015   2.461   5.348 -0.3553  0.8373  2.0514
  102MOL   H31932841   0.885   2.352   5.543 -1.5399  0.9709  1.0013
  102MOL   H32032842   0.644   2.324   5.518 -0.3113  0.6365  0.0233
  102MOL   H32132843   0.524   2.383   5.310 -0.3916 -1.0351  3.4311
  102MOL   H32232844   0.594   2.369   5.043 -0.3784  0.4068  0.2325
  103MOL     C132845   6.199   7.803   5.884  0.2641 -0.3121 -0.8047
  103MOL     C232846   6.212   7.881   6.018 -0.2898  0.2015  0.2945
  103MOL     C332847   6.082   7.870   6.097  0.1409  0.0987 -0.4271
  103MOL     C432848   6.030   7.749   6.146 -0.1710 -0.3079  0.5649
  103MOL     C532849   5.924   7.751   6.237  0.2414  0.2942  0.5590
  103MOL     C632850   5.870   7.875   6.277  0.4904 -0.1155 -0.3758
  103MOL     C732851   5.917   7.999   6.231 -0.5261  0.1909 -0.1464
  103MOL     C832852   6.019   7.992   6.130  0.3954  0.2626 -0.3168
  103MOL     H932853   6.127   7.848   5.815  0.9659  0.7639 -0.8537
  103MOL    H1032854   6.297   7.801   5.835  0.7320  1.6129 -0.0212
  103MOL    H1132855   6.223   7.983   5.981  0.1478 -0.2882 -0.9810
  103MOL    H1232856   6.088   7.663   6.116  0.8835  0.1142  1.3422
  103MOL    H1332857   5.877   7.660   6.271  0.5689 -0.0976 -0.0228
  103MOL    H1432858   5.796   7.877   6.355  0.2935 -0.5756 -0.5441
  103MOL    H1532859   5.875   8.092   6.267 -2.0676 -0.1010 -1.1541
  103MOL    H1632860   6.052   8.090   6.098  0.6415 -0.3592 -1.9671
  103MOL    H1732861   6.172   7.698   5.898  1.9397 -0.7475 -0.6723
  103MOL    C1832862   6.335   7.838   6.102  0.2345  0.2655  0.1769
  103MOL    C1932863   6.325   7.867   6.256 -0.1183  0.3232 -0.0832
  103MOL    C2032864   6.420   7.776   6.330 -0.2862  0.2556 -0.2869
  103MOL    C2132865   6.563   7.784   6.296  0.1490  0.0357  0.0591
  103MOL    C2232866   6.653   7.696   6.349  0.3077 -0.3939  0.2735
  103MOL    C2332867   6.607   7.599   6.445  0.5228 -0.6258  0.7137
  103MOL    C2432868   6.469   7.589   6.472 -0.1982 -0.1234 -0.3436
  103MOL    C2532869   6.375   7.675   6.416  0.5581 -0.8574 -0.1274
  103MOL    H2632870   6.420   7.899   6.070 -0.5204  0.4462 -1.4906
  103MOL    H2732871   6.358   7.733   6.086 -0.3901  0.2381 -0.5389
  103MOL    H2832872   6.230   7.833   6.298 -2.0916  1.6062 -3.2942
  103MOL    H2932873   6.599   7.854   6.223 -0.3392  0.9799  0.7106
  103MOL    H3032874   6.758   7.702   6.324  0.4509  2.0754  1.3808
  103MOL    H3132875   6.671   7.524   6.488 -1.4120 -1.2087  2.6430
  103MOL    H3232876   6.436   7.511   6.539 -0.5308  0.7541  0.5248
  103MOL    H3332877   6.272   7.671   6.447  0.5330  1.7728  0.2663
  103MOL    C3432878   6.360   8.019   6.290 -0.6030  0.9545  0.0453
  103MOL    C3532879   6.341   8.061   6.435 -0.1403 -0.4016  0.0528
  103MOL    C3632880   6.406   0.081   6.467 -0.1687  0.2845 -0.3307
  103MOL    C3732881   6.437   0.179   6.373 -0.1679 -0.9820 -0.0089
  103MOL    C3832882   6.492   0.305   6.404  0.3428 -0.3724  0.2926
  103MOL    C3932883   6.517   0.330   6.543  0.8122 -0.0894  0.1294
  103MOL    C4032884   6.469   0.246   6.644  0.7322  0.1776  0.3350
  103MOL    C4132885   6.419   0.119   6.602 -0.3167 -0.3912  0.1865
  103MOL    H4232886   6.286   8.075   6.233  0.9950  0.1504 -2.9482
  103MOL    H4332887   6.464   8.035   6.259 -0.8130  0.1556 -1.1045
  103MOL    H4432888   6.396   7.987   6.493 -0.1610 -0.8635 -0.5052
  103MOL    H4532889   6.409   0.159   6.270 -1.9281 -3.2916  0.8573
  103MOL    H4632890   6.525   0.380   6.334  0.3828 -1.5338 -0.9403
  103MOL    H4732891   6.579   0.413   6.574 -0.5762  0.6808  0.8584
  103MOL    H4832892   6.483   0.275   6.747 -0.7840 -0.6228  0.7795
  103MOL    H4932893   6.391   0.050   6.680 -0.3103  0.7829  1.2383
  103MOL    C5032894   6.192   8.069   6.481 -0.5147  0.0020  0.7423
  103MOL    C5132895   6.161   7.998   6.614  0.5165  0.2107 -0.0584
  103MOL    C5232896   6.120   8.099   6.723  0.3686 -1.0786 -0.2070
  103MOL    C5332897   6.014   0.075   6.704 -0.4803 -0.6479 -0.1505
  103MOL    C5432898   5.970   0.157   6.805  0.1819 -0.6722 -0.0694
  103MOL    C5532899   6.032   0.158   6.929 -0.7396 -0.6996 -0.1047
  103MOL    C5632900   6.138   0.067   6.952 -0.5225 -0.0086  0.3134
  103MOL    C5732901   6.179   8.090   6.852  0.0103 -0.0142  0.3183
  103MOL    H5832902   6.132   8.038   6.396 -0.8973  0.4704  0.8423
  103MOL    H5932903   6.153   0.056   6.477  1.3746  0.7344 -0.0323
  103MOL    H6032904   6.248   7.956   6.663  0.4663  0.9716  0.6862
  103MOL    H6132905   5.968   0.085   6.606 -0.4594 -0.3826 -0.1350
  103MOL    H6232906   5.894   0.230   6.779  0.3693 -0.6164 -0.4560
  103MOL    H6332907   6.002   0.221   7.012 -2.3384 -0.8154 -0.5862
  103MOL    H6432908   6.191   0.072   7.047  0.5392 -1.7060 -0.1750
  103MOL    H6532909   6.265   8.026   6.868  1.5630  2.1021  0.7098
  103MOL    C6632910   6.062   7.879   6.592  0.6470 -0.1847  0.4455
  103MOL    C6732911   6.036   7.775   6.703 -0.1765 -0.5562  0.1626
  103MOL    C6832912   5.931   7.681   6.648 -0.0388 -0.1537 -0.4218
  103MOL    C6932913   5.800   7.703   6.691 -0.6490  0.6997 -0.0831
  103MOL    C7032914   5.696   7.623   6.657  0.6321 -0.0057  0.0602
  103MOL    C7132915   5.720   7.515   6.562  0.3025  0.2976  0.3330
  103MOL    C7232916   5.852   7.500   6.512 -0.1527 -0.0950  1.0329
  103MOL    C7332917   5.958   7.587   6.551 -0.2904  0.4694 -0.4607
  103MOL    H7432918   6.113   7.826   6.511  1.3599  0.9364  0.1447
  103MOL    H7532919   5.968   7.912   6.548  0.1563 -4.0464 -1.6542
  103MOL    H7632920   6.001   7.825   6.793  0.2431 -0.8130  0.4659
  103MOL    H7732921   5.771   7.769   6.772 -1.0974  0.5595 -0.1281
  103MOL    H7832922   5.601   7.631   6.708  0.4912  1.6090 -0.4389
  103MOL    H7932923   5.639   7.446   6.543 -0.4342  1.6700 -1.6812
  103MOL    H8032924   5.872   7.412   6.453  1.4569  0.7306  0.3043
  103MOL    H8132925   6.056   7.577   6.508 -0.9010 -1.7988 -1.4030
  103MOL    C8232926   6.168   7.702   6.746  0.5649 -0.5685 -0.3372
  103MOL    C8332927   6.151   7.615   6.876  0.0592 -0.1209 -0.4242
  103MOL    C8432928   6.189   7.466   6.848 -0.3419  0.6089 -0.8232
  103MOL    C8532929   6.319   7.433   6.794  0.3165 -0.1429 -0.0098
  103MOL    C8632930   6.357   7.299   6.774 -0.0704  0.6076  0.0096
  103MOL    C8732931   6.266   7.199   6.819 -0.0434 -0.1418  0.1193
  103MOL    C8832932   6.144   7.228   6.885  0.0869 -0.4528  0.4779
  103MOL    C8932933   6.106   7.362   6.894 -0.3515  0.0480 -0.6356
  103MOL    H9032934   6.236   7.785   6.767  2.6856 -1.9868 -1.4104
  103MOL    H9132935   6.209   7.648   6.661  0.6857  0.6037 -1.0360
  103MOL    H9232936   6.045   7.602   6.898 -0.7508  1.0991 -3.3419
  103MOL    H9332937   6.375   7.517   6.755  1.0514  0.2333  1.8385
  103MOL    H9432938   6.447   7.268   6.723  0.5795  0.5809  1.1618
  103MOL    H9532939   6.297   7.098   6.796  0.2354 -0.2318  0.8675
  103MOL    H9632940   6.073   7.152   6.912  1.3283 -1.7726  0.0605
  103MOL    H9732941   6.008   7.391   6.927 -0.2787  1.8252 -1.9269
  103MOL    C9832942   6.228   7.679   7.000 -0.2125  0.0019  0.1224
  103MOL    C9932943   6.142   7.770   7.084 -0.0204  0.6011  0.0831
  103MOL   C10032944   6.003   7.701   7.120  0.8677 -0.6187  0.0959
  103MOL   C10132945   5.880   7.760   7.070  0.1149 -0.3022  0.5844
  103MOL   C10232946   5.760   7.702   7.103  0.1129  0.1643  0.3647
  103MOL   C10332947   5.757   7.594   7.192 -0.5046 -1.2439  0.3764
  103MOL   C10432948   5.870   7.544   7.253 -0.2345 -0.3996 -0.6848
  103MOL   C10532949   5.993   7.590   7.205 -0.5440  0.1373  0.1122
  103MOL   H10632950   6.319   7.735   6.979 -1.2148  2.0950  1.2268
  103MOL   H10732951   6.255   7.596   7.065 -0.0914  0.6546  0.9160
  103MOL   H10832952   6.122   7.856   7.019 -0.9818 -0.2649 -0.7836
  103MOL   H10932953   5.883   7.844   7.002  0.6890 -1.2253 -0.5576
  103MOL   H11032954   5.666   7.725   7.056  1.2606 -1.8011 -3.0759
  103MOL   H11132955   5.659   7.552   7.209 -0.6878 -0.7562  0.5315
  103MOL   H11232956   5.866   7.461   7.322 -2.2890 -0.3911 -0.7670
  103MOL   H11332957   6.076   7.539   7.251 -1.7006 -1.4551  0.4882
  103MOL   C11432958   6.220   7.814   7.213  0.3365 -0.0996 -0.2594
  103MOL   C11532959   6.125   7.881   7.320 -0.0117 -0.5291  0.2104
  103MOL   C11632960   6.214   7.915   7.438  0.8411 -0.3713 -0.0330
  103MOL   C11732961   6.243   7.818   7.535 -0.1183  0.6635 -0.5731
  103MOL   C11832962   6.321   7.858   7.646  0.5652  0.4009 -0.2030
  103MOL   C11932963   6.371   7.990   7.656  0.0479 -0.2190 -0.5675
  103MOL   C12032964   6.338   8.083   7.557  0.3433  0.1650  0.5827
  103MOL   C12132965   6.259   8.045   7.452 -0.8431 -0.1385  0.5754
  103MOL   H12232966   6.301   7.882   7.190 -0.1286  1.6327  2.9126
  103MOL   H12332967   6.248   7.719   7.259 -1.1914  0.9006  2.8373
  103MOL   H12432968   6.066   7.800   7.363 -3.7150 -0.1190 -3.8311
  103MOL   H12532969   6.212   7.714   7.529  1.2165  0.2542 -0.6118
  103MOL   H12632970   6.354   7.785   7.719  1.3045  1.4809  0.5666
  103MOL   H12732971   6.455   8.019   7.717  0.8684 -0.6971 -1.4724
  103MOL   H12832972   6.395   0.059   7.547  0.3572  0.1732  0.7408
  103MOL   H12932973   6.249   8.108   7.366  1.7783 -0.3233  0.0821
  103MOL   C13032974   6.039   8.001   7.265  0.2699 -0.2137  0.9335
  103MOL   C13132975   5.939   8.051   7.367  0.3306 -0.5201  0.2849
  103MOL   C13232976   5.892   0.083   7.345  0.0906  0.1128 -0.2592
  103MOL   C13332977   5.895   0.177   7.449 -0.3515  0.3624 -0.7093
  103MOL   C13432978   5.839   0.306   7.429  0.7570  0.1114 -0.3548
  103MOL   C13532979   5.769   0.334   7.308 -0.7038 -0.3450 -0.3372
  103MOL   C13632980   5.782   0.248   7.199  0.4232 -0.5880  0.1830
  103MOL   C13732981   5.837   0.123   7.220  0.0027 -0.1566 -0.5403
  103MOL   H13832982   5.988   7.965   7.176 -0.0253 -0.5658  1.2423
  103MOL   H13932983   6.090   8.090   7.230  0.1418 -1.0269 -1.3559
  103MOL   H14032984   5.986   8.062   7.465  1.5109  1.9125 -0.5129
  103MOL   H14132985   5.937   0.151   7.545 -1.2960  0.2142 -0.3372
  103MOL   H14232986   5.833   0.374   7.512 -0.0725  0.2587 -0.5275
  103MOL   H14332987   5.717   0.428   7.296 -0.3811 -0.2454 -0.9961
  103MOL   H14432988   5.729   0.288   7.114  0.2305  1.9103  1.4341
  103MOL   H14532989   5.844   0.056   7.136  0.4017 -1.4336  0.4958
  103MOL   C14632990   5.815   7.965   7.375  0.0043 -0.1874  0.4445
  103MOL   C14732991   5.721   7.963   7.498  0.2136 -0.2468 -0.7043
  103MOL   C14832992   5.601   7.870   7.465  0.1159  0.6248  0.0341
  103MOL   C14932993   5.607   7.728   7.477  0.2133  0.3444  0.2200
  103MOL   C15032994   5.492   7.652   7.451 -0.0759  0.1358 -0.4816
  103MOL   C15132995   5.376   7.708   7.402 -0.0808 -0.4435 -0.7111
  103MOL   C15232996   5.379   7.840   7.369  0.3729  0.3821  0.4107
  103MOL   C15332997   5.482   7.925   7.410 -0.1120 -0.0239  0.2575
  103MOL   H15432998   5.849   7.861   7.382  2.5831  0.5804  0.1031
  103MOL   H15532999   5.753   7.970   7.286 -0.3767 -2.2180  0.5851
  103MOL   H15633000   5.674   8.060   7.517  1.7376  0.0520  1.7711
  103MOL   H15733001   5.696   7.674   7.505  1.1089  0.6422 -1.9454
  103MOL   H15833002   5.491   7.546   7.472  0.7467 -0.1525 -1.8143
  103MOL   H15933003   5.290   7.647   7.377  0.8590 -1.8330 -0.6183
  103MOL   H16033004   5.295   7.882   7.316 -0.4571 -0.2654  1.1964
  103MOL   H16133005   5.478   8.030   7.389 -0.6669  0.0269  0.6060
  103MOL   C16233006   5.793   7.919   7.629  0.2310 -0.3618 -0.8603
  103MOL   C16333007   5.711   7.926   7.754 -0.2257 -0.0015 -0.5792
  103MOL   C16433008   5.763   7.833   7.859  0.2623 -1.1331  0.6648
  103MOL   C16533009   5.906   7.829   7.882 -0.4697  0.2267 -0.4658
  103MOL   C16633010   5.953   7.731   7.975  0.1444 -0.1377 -0.0273
  103MOL   C16733011   5.864   7.640   8.032  0.3757  0.2527 -0.2139
  103MOL   C16833012   5.726   7.640   7.995  0.2152  0.9963 -0.5658
  103MOL   C16933013   5.673   7.739   7.918 -0.1450  0.1645 -0.0185
  103MOL   H17033014   5.872   7.992   7.646  0.8645 -1.2125 -0.1156
  103MOL   H17133015   5.841   7.821   7.627  0.4561 -0.2788  0.0080
  103MOL   H17233016   5.612   7.891   7.725 -0.3694 -0.3319  0.2806
  103MOL   H17333017   5.972   7.891   7.823 -1.1392  0.6070 -0.8278
  103MOL   H17433018   6.057   7.725   8.003 -0.6664 -2.4416  2.8122
  103MOL   H17533019   5.893   7.572   8.111  1.8324  3.1255  1.8296
  103MOL   H17633020   5.662   7.564   8.037  0.8693  1.2647  0.9463
  103MOL   H17733021   5.569   7.733   7.888  0.0106 -1.4382 -0.2868
  103MOL   C17833022   5.708   8.075   7.809  0.6489 -0.2843 -0.0776
  103MOL   C17933023   5.578   0.039   7.785  0.0770  0.1630 -0.5955
  103MOL   C18033024   5.471   8.083   7.874 -0.2011  0.2888 -0.2043
  103MOL   C18133025   5.351   8.034   7.811  0.0668 -0.7391 -0.0790
  103MOL   C18233026   5.247   7.990   7.898  0.6302  0.6546 -0.7972
  103MOL   C18333027   5.268   7.978   8.032 -0.5306 -0.4243  0.7149
  103MOL   C18433028   5.389   8.015   8.094 -0.2552 -0.0318 -0.5627
  103MOL   C18533029   5.488   8.073   8.014 -0.6400  0.1166 -0.1578
  103MOL   H18633030   5.802   0.012   7.791  0.5014  0.4328  1.1427
  103MOL   H18733031   5.717   8.049   7.915 -0.0923  0.7680  0.2506
  103MOL   H18833032   5.545   0.036   7.681  1.7773 -1.7649 -1.1142
  103MOL   H18933033   5.326   8.031   7.706  1.5813  3.3908 -0.6422
  103MOL   H19033034   5.157   7.945   7.859  0.4426 -0.7329  1.1373
  103MOL   H19133035   5.193   7.933   8.095 -0.3800  1.8880  2.6276
  103MOL   H19233036   5.408   7.998   0.084  0.6940 -0.2183 -0.7635
  103MOL   H19333037   5.575   8.106   8.067 -0.9731  2.7142 -1.1678
  103MOL   C19433038   5.598   0.188   7.819 -0.1816 -0.2697  0.3666
  103MOL   C19533039   5.656   0.285   7.714  0.6382  0.4139 -0.6247
  103MOL   C19633040   5.546   0.328   7.610  0.2887 -0.1901 -0.9331
  103MOL   C19733041   5.512   0.235   7.504 -1.0179 -0.2206  0.5914
  103MOL   C19833042   5.417   0.275   7.412 -0.3198  0.0963  0.6913
  103MOL   C19933043   5.354   0.399   7.413 -0.7108  0.3227  0.3073
  103MOL   C20033044   5.387   0.488   7.518 -0.2943  0.6262 -0.2151
  103MOL   C20133045   5.491   0.458   7.604  0.6899  0.5732  0.2268
  103MOL   H20233046   5.652   0.175   7.913  1.5425 -3.0323 -0.9499
  103MOL   H20333047   5.496   0.222   7.838 -0.8329 -1.6147 -0.6163
  103MOL   H20433048   5.737   0.236   7.660 -1.1675  0.8402 -3.8799
  103MOL   H20533049   5.548   0.134   7.486 -2.9729 -1.1037  1.4496
  103MOL   H20633050   5.391   0.193   7.347 -0.2288 -1.1000  2.1294
  103MOL   H20733051   5.272   0.417   7.345  0.4375  0.9355 -0.9410
  103MOL   H20833052   5.339   0.584   7.533 -2.0576 -0.6589  2.8436
  103MOL   H20933053   5.507   0.534   7.679  2.1386  0.7076 -0.2045
  103MOL   C21033054   5.730   0.407   7.774  0.1713 -0.4202  0.6475
  103MOL   C21133055   5.856   0.383   7.855  0.1197 -0.2968 -0.3339
  103MOL   C21233056   5.984   0.365   7.767  0.0009  0.8086 -0.3011
  103MOL   C21333057   6.056   0.244   7.786  0.5094  0.0516 -0.0176
  103MOL   C21433058   6.173   0.224   7.708  0.0734  0.2432  0.3757
  103MOL   C21533059   6.223   0.334   7.630  0.5086  0.2481 -0.6969
  103MOL   C21633060   6.154   0.454   7.609  1.1264 -0.2025 -0.1263
  103MOL   C21733061   6.033   0.466   7.678 -0.4364  0.0036 -0.1328
  103MOL   H21833062   5.652   0.450   7.838  0.5467  0.6895  0.3778
  103MOL   H21933063   5.748   0.473   7.689 -0.9516  2.3656  2.4919
  103MOL   H22033064   5.844   0.284   7.900  1.5734  0.4707  1.7959
  103MOL   H22133065   6.009   0.161   7.835  0.5573 -0.1194 -0.2597
  103MOL   H22233066   6.232   0.134   7.715  1.8520  1.4856  1.4989
  103MOL   H22333067   6.321   0.339   7.585  2.1695 -0.9888  2.6035
  103MOL   H22433068   6.208   0.532   7.557  0.3165 -0.0139 -0.6948
  103MOL   H22533069   5.979   0.559   7.680  0.6852  0.7057 -1.6618
  103MOL   C22633070   5.869   0.477   7.976 -0.3976 -0.3398 -0.1187
  103MOL   C22733071   5.984   0.441   8.070  0.4109 -0.3584 -0.4249
  103MOL   C22833072   6.108   0.525   8.044 -0.3726 -0.2576 -0.5310
  103MOL   C22933073   6.098   0.664   8.075 -0.2046 -0.5008  0.4026
  103MOL   C23033074   6.216   0.747   8.080  0.3251 -0.1872  0.9749
  103MOL   C23133075   6.338   0.690   8.038 -0.1562  0.5162 -0.3102
  103MOL   C23233076   6.340   0.557   7.996  0.1344 -0.8693 -0.1403
  103MOL   C23333077   6.234   0.474   8.005 -0.2619 -0.0223 -0.3367
  103MOL   H23433078   5.775   0.470   8.032 -1.9090 -1.6430 -2.7551
  103MOL   H23533079   5.893   0.577   7.939 -1.1956 -0.3017 -0.5513
  103MOL   H23633080   6.015   0.337   8.060 -0.8231 -1.0003  2.0983
  103MOL   H23733081   6.008   0.719   8.099 -0.1597 -0.1929 -0.1335
  103MOL   H23833082   6.195   0.853   8.085  1.7146  0.0199  3.0594
  103MOL   H23933083   6.433   0.741   8.042  0.8265 -1.0016 -3.0856
  103MOL   H24033084   6.429   0.510   7.958  1.3258  1.7457 -0.6977
  103MOL   H24133085   6.231   0.371   7.970 -0.4987 -0.5449  1.1724
  103MOL   C24233086   5.933   0.460   0.100 -0.0776  0.2272 -0.2603
  103MOL   C24333087   5.839   0.351   0.163 -0.5859 -0.0518  0.4385
  103MOL   C24433088   5.901   0.208   0.156 -0.2985 -0.0578 -0.3369
  103MOL   C24533089   6.012   0.173   0.234 -0.1607  0.8956 -0.0377
  103MOL   C24633090   6.059   0.039   0.228 -0.6118 -0.2197 -0.3800
  103MOL   C24733091   6.010   8.062   0.136 -0.0262  0.5782 -0.0014
  103MOL   C24833092   5.894   8.093   0.063 -0.0897  0.2773  0.0856
  103MOL   C24933093   5.853   0.113   0.061  0.5421  0.9186  0.0049
  103MOL   H25033094   5.890   0.559   0.115 -0.2293 -0.0632  1.3018
  103MOL   H25133095   6.017   0.462   0.168 -1.3472 -1.7289  1.4178
  103MOL   H25233096   5.748   0.351   0.102 -0.3137 -0.0354  0.0345
  103MOL   H25333097   6.057   0.239   0.306  0.7838  1.1297 -0.8414
  103MOL   H25433098   6.135   0.016   0.301 -0.4594  0.8016 -0.2099
  103MOL   H25533099   6.037   7.957   0.131 -3.2118 -0.2986  0.4753
  103MOL   H25633100   5.838   8.022   0.003  0.7102  0.2015 -0.5792
  103MOL   H25733101   5.768   0.133   8.112 -0.5592 -1.1440  0.7748
  103MOL   C25833102   5.786   0.401   0.293 -0.2432 -0.3745  0.4543
  103MOL   C25933103   5.767   0.308   0.417  0.1963 -0.2061 -0.2281
  103MOL   C26033104   5.734   0.396   0.544 -0.5337 -0.2806 -0.4300
  103MOL   C26133105   5.603   0.403   0.592  0.4141 -0.0397  0.5387
  103MOL   C26233106   5.573   0.480   0.705 -0.6498 -0.4843  0.6377
  103MOL   C26333107   5.676   0.537   0.780 -0.2053 -0.2118  0.1124
  103MOL   C26433108   5.806   0.535   0.731 -0.5332  0.0498 -0.4358
  103MOL   C26533109   5.832   0.462   0.613  1.0895 -0.8255  0.5328
  103MOL   H26633110   5.695   0.460   0.279  0.8958  1.5272  0.7805
  103MOL   H26733111   5.853   0.476   0.336  0.4516 -0.3571 -0.6531
  103MOL   H26833112   5.864   0.266   0.447 -0.1781  0.1075  1.4407
  103MOL   H26933113   5.521   0.361   0.536  0.7843  0.3392 -0.2900
  103MOL   H27033114   5.470   0.484   0.737 -1.0477 -0.1009 -0.6721
  103MOL   H27133115   5.655   0.596   0.868  1.0139 -1.5457  1.3261
  103MOL   H27233116   5.892   0.579   0.780 -1.4183 -0.2944  1.4841
  103MOL   H27333117   5.932   0.467   0.572  0.5742  0.5512 -0.5831
  103MOL   C27433118   5.662   0.210   0.377 -0.7795  0.0778 -0.7229
  103MOL   C27533119   5.645   0.094   0.483 -0.7589 -0.1993 -0.2798
  103MOL   C27633120   5.501   0.044   0.498  0.1595  0.9333  0.0720
  103MOL   C27733121   5.441   0.037   0.621 -0.4671  0.6352 -0.8282
  103MOL   C27833122   5.312   8.098   0.632  0.6035 -0.0519  0.6290
  103MOL   C27933123   5.231   8.069   0.518 -0.1117  0.0935  0.0559
  103MOL   C28033124   5.295   8.079   0.393  0.3305 -0.1421 -0.2762
  103MOL   C28133125   5.430   0.000   0.384 -0.4101 -0.2755  0.2282
  103MOL   H28233126   5.677   0.172   0.277 -1.7048 -1.6896 -0.2176
  103MOL   H28333127   5.573   0.273   0.371  0.3482  1.6866 -0.7553
  103MOL   H28433128   5.677   0.131   0.580  1.0040 -2.7341  0.1470
  103MOL   H28533129   5.484   0.058   0.717 -0.8429 -0.1225 -0.4897
  103MOL   H28633130   5.268   8.087   0.730  1.6979 -0.9239  1.0247
  103MOL   H28733131   5.127   8.043   0.530 -0.0557 -0.0577  0.2051
  103MOL   H28833132   5.231   8.050   0.311  0.3446 -0.1184 -0.2960
  103MOL   H28933133   5.473   0.011   0.285  1.6796  1.4915  1.2870
  103MOL   C29033134   5.746   8.097   0.443 -0.3248 -0.1822 -0.6475
  103MOL   C29133135   5.762   7.980   0.548  0.0368 -0.6455 -0.2145
  103MOL   C29233136   5.849   7.868   0.498  0.2391  0.1891  0.2349
  103MOL   C29333137   5.978   7.891   0.453 -0.2561 -0.1061 -1.0160
  103MOL   C29433138   6.059   7.781   0.414  0.4809  0.3089  0.4324
  103MOL   C29533139   6.007   7.650   0.423 -0.0736 -0.0378  0.7437
  103MOL   C29633140   5.880   7.629   0.463  0.3558  0.1897 -0.0729
  103MOL   C29733141   5.801   7.739   0.504  0.1878 -0.7016  0.2111
  103MOL   H29833142   5.845   0.020   0.418 -0.4243 -0.1194 -0.9446
  103MOL   H29933143   5.710   8.057   0.349 -0.7146  1.3787 -1.1729
  103MOL   H30033144   5.662   7.936   0.552 -0.2429 -0.1179 -1.1427
  103MOL   H30133145   6.019   7.991   0.451  0.9880 -0.5217  1.4938
  103MOL   H30233146   6.160   7.800   0.381  0.4006 -1.3238 -0.7683
  103MOL   H30333147   6.061   7.562   0.391 -0.0125  0.1504  0.3293
  103MOL   H30433148   5.841   7.528   0.462  0.8530  0.0034 -0.9938
  103MOL   H30533149   5.701   7.718   0.541 -0.4546  0.3981 -0.8491
  103MOL   C30633150   5.812   8.032   0.681 -0.7911  0.5447  0.0106
  103MOL   C30733151   5.841   7.922   0.789 -0.4534  0.3756  0.1700
  103MOL   C30833152   5.874   7.987   0.916 -0.2092  0.4710  0.1602
  103MOL   C30933153   5.776   7.988   1.019  0.0210  0.1981  0.7031
  103MOL   C31033154   5.805   8.054   1.144  0.0094 -0.4062 -0.0103
  103MOL   C31133155   5.932   0.011   1.158 -0.3183  0.2102  0.3156
  103MOL   C31233156   6.035   8.104   1.062  0.2732 -0.3905  0.2933
  103MOL   C31333157   6.004   8.038   0.944  0.0852  0.1543 -1.1734
  103MOL   H31433158   5.736   8.094   0.728 -0.3352  1.5586 -0.5693
  103MOL   H31533159   5.901   8.093   0.667  0.2573 -0.9826 -0.0650
  103MOL   H31633160   5.923   7.855   0.761  0.2755  1.0596  0.6427
  103MOL   H31733161   5.681   7.937   1.007  0.4878  0.2157 -3.9081
  103MOL   H31833162   5.718   8.061   1.207 -0.8132 -2.6772 -0.8182
  103MOL   H31933163   5.953   0.077   1.242 -2.1123  1.8982 -0.5488
  103MOL   H32033164   6.131   0.033   1.085  0.5882 -1.4931  1.0938
  103MOL   H32133165   6.083   8.032   0.870  1.7548 -0.8504  0.6246
  103MOL   H32233166   5.756   7.859   0.814 -0.4133 -0.3072 -1.3508
  104MOL     C133167   5.554   1.761   4.901 -0.0913 -0.3909  0.3244
  104MOL     C233168   5.511   1.633   4.972 -0.7984  0.0126 -0.2792
  104MOL     C333169   5.363   1.606   4.968 -0.0515 -0.1942  0.6294
  104MOL     C433170   5.295   1.584   4.848 -0.0318  0.3055 -0.6106
  104MOL     C533171   5.155   1.567   4.858  0.1292  0.0755  0.9974
  104MOL     C633172   5.089   1.569   4.980 -0.8390  0.5742 -0.0197
  104MOL     C733173   5.160   1.587   5.098 -0.0879 -0.5069 -0.1477
  104MOL     C833174   5.302   1.602   5.092 -0.1451  0.1275  0.2854
  104MOL     H933175   5.662   1.773   4.901 -0.5116  4.4750 -0.7954
  104MOL    H1033176   5.505   1.766   4.804 -0.3748  2.9661  0.5775
  104MOL    H1133177   5.538   1.650   5.076 -2.1416 -1.0814  0.2697
  104MOL    H1233178   5.343   1.593   4.752 -0.0423 -0.7070 -0.7222
  104MOL    H1333179   5.107   1.556   4.762  1.4010 -0.9319  0.4611
  104MOL    H1433180   4.984   1.544   4.985 -0.7254  0.0129 -0.4991
  104MOL    H1533181   5.108   1.573   5.192  1.4427  1.9764  1.1084
  104MOL    H1633182   5.367   1.621   5.177  2.7497 -0.1701 -1.7829
  104MOL    H1733183   5.521   1.848   4.959 -1.1289 -0.4391 -0.1818
  104MOL    C1833184   5.599   1.509   4.921 -0.0841 -0.1689  0.0663
  104MOL    C1933185   5.532   1.364   4.953  0.6385  0.1513  0.9179
  104MOL    C2033186   5.602   1.254   4.873 -0.7374 -0.1870 -0.5510
  104MOL    C2133187   5.738   1.225   4.900  0.4190  0.4258  0.0155
  104MOL    C2233188   5.799   1.114   4.836 -0.0283 -0.1009 -0.7908
  104MOL    C2333189   5.727   1.040   4.735 -0.1718 -0.2542 -0.4753
  104MOL    C2433190   5.602   1.082   4.694 -0.2126 -1.0632  0.2283
  104MOL    C2533191   5.540   1.188   4.762  0.0967  0.6846  0.2108
  104MOL    H2633192   5.699   1.504   4.963  0.1334 -1.0016 -0.5340
  104MOL    H2733193   5.591   1.517   4.812  0.5286  0.4685  0.0681
  104MOL    H2833194   5.432   1.365   4.910  0.9190 -1.5494  0.1857
  104MOL    H2933195   5.793   1.288   4.967 -0.4900  0.7735  0.4509
  104MOL    H3033196   5.905   1.093   4.842 -0.1722 -0.8672 -0.8522
  104MOL    H3133197   5.763   0.958   4.675  0.1528  0.2006 -0.9044
  104MOL    H3233198   5.561   1.031   4.608  1.1386  1.1299 -1.7748
  104MOL    H3333199   5.441   1.217   4.728  0.8563  1.7121 -1.1570
  104MOL    C3433200   5.541   1.349   5.105  0.1164 -0.3287  0.0462
  104MOL    C3533201   5.460   1.226   5.157  0.1004  0.4437 -0.6945
  104MOL    C3633202   5.503   1.200   5.300 -0.4392  0.4140 -0.5178
  104MOL    C3733203   5.456   1.283   5.403  0.8763 -0.1200 -0.0645
  104MOL    C3833204   5.506   1.268   5.539 -0.2082 -0.3516  0.1839
  104MOL    C3933205   5.597   1.165   5.567 -0.5380 -0.1728  0.3789
  104MOL    C4033206   5.657   1.091   5.465 -0.3295  1.3320  0.1330
  104MOL    C4133207   5.612   1.109   5.328  0.0182  0.2498  0.4331
  104MOL    H4233208   5.501   1.435   5.159  2.2633  1.1114 -0.6150
  104MOL    H4333209   5.643   1.337   5.139 -0.0401 -0.7462  0.3794
  104MOL    H4433210   5.487   1.139   5.097 -2.8201 -1.1634  0.2104
  104MOL    H4533211   5.378   1.354   5.379  0.8456 -0.0657  0.1963
  104MOL    H4633212   5.486   1.347   5.611 -0.8608  0.5332 -0.9471
  104MOL    H4733213   5.626   1.146   5.669 -0.7017 -1.4237  0.2064
  104MOL    H4833214   5.735   1.017   5.481  0.4896  1.6244 -2.2671
  104MOL    H4933215   5.653   1.045   5.251 -0.3869  1.1747 -0.5724
  104MOL    C5033216   5.307   1.242   5.134  0.2365  0.2952 -0.0412
  104MOL    C5133217   5.225   1.128   5.199 -0.0766  0.3353 -0.5644
  104MOL    C5233218   5.144   1.179   5.322 -0.3311  0.3667 -0.0656
  104MOL    C5333219   5.053   1.284   5.306  0.0786  0.0837  0.0318
  104MOL    C5433220   4.984   1.339   5.416  0.4616 -0.4827  0.2327
  104MOL    C5533221   5.004   1.295   5.546 -0.0469 -0.1818 -0.0641
  104MOL    C5633222   5.092   1.183   5.560  0.1929  1.1071 -0.2995
  104MOL    C5733223   5.159   1.123   5.452  0.6017 -0.3681 -0.5217
  104MOL    H5833224   5.292   1.246   5.026 -0.3959  1.9282  0.0832
  104MOL    H5933225   5.272   1.341   5.163  0.0078  0.3619 -0.5271
  104MOL    H6033226   5.288   1.050   5.243  0.9300  1.3581 -0.1564
  104MOL    H6133227   5.053   1.333   5.210  0.6403  0.4909  0.2408
  104MOL    H6233228   4.920   1.426   5.407  0.1240 -0.8107 -0.5503
  104MOL    H6333229   4.950   1.342   5.627  1.1246  2.4088 -0.7312
  104MOL    H6433230   5.102   1.139   5.658  2.3594 -0.6284 -1.2561
  104MOL    H6533231   5.231   1.044   5.467 -0.2909 -1.2486 -0.8296
  104MOL    C6633232   5.140   1.046   5.089 -0.2550  0.1834 -0.6979
  104MOL    C6733233   5.224   0.962   4.988  0.6037 -0.9851  0.0830
  104MOL    C6833234   5.321   0.863   5.051  0.7649  0.7409  0.4510
  104MOL    C6933235   5.458   0.867   5.026 -0.0253  0.6893  0.0958
  104MOL    C7033236   5.551   0.773   5.076 -0.2445 -0.7351 -0.2919
  104MOL    C7133237   5.498   0.657   5.132 -0.6151 -0.8639  0.4050
  104MOL    C7233238   5.360   0.649   5.159  0.0209  0.3106 -0.1915
  104MOL    C7333239   5.273   0.753   5.128  0.4269  0.3898  0.1817
  104MOL    H7433240   5.081   1.126   5.044  0.8496  1.7466  0.5642
  104MOL    H7533241   5.076   0.980   5.148  0.1844  0.8828  0.5925
  104MOL    H7633242   5.288   1.035   4.938 -2.4882  0.3920 -2.0039
  104MOL    H7733243   5.496   0.960   4.986  1.9402  1.3450  3.2365
  104MOL    H7833244   5.658   0.785   5.072  0.3231 -3.7111  3.0588
  104MOL    H7933245   5.555   0.582   5.184  1.3758  0.0468 -0.4382
  104MOL    H8033246   5.333   0.562   5.217 -0.1810  0.2407 -0.3920
  104MOL    H8133247   5.166   0.739   5.131  0.4940  0.0815  1.1194
  104MOL    C8233248   5.125   0.900   4.893  0.2427 -0.6938  0.5213
  104MOL    C8333249   5.181   0.807   4.788 -0.1410 -0.4119  0.8781
  104MOL    C8433250   5.088   0.691   4.751 -0.1942  0.5585 -0.1684
  104MOL    C8533251   4.956   0.717   4.707 -0.2975 -0.1985 -0.0903
  104MOL    C8633252   4.876   0.618   4.651 -0.0673  0.3143  0.0033
  104MOL    C8733253   4.920   0.485   4.673  0.3905  0.3100 -0.2712
  104MOL    C8833254   5.043   0.452   4.722 -0.4265  0.5172  0.3012
  104MOL    C8933255   5.130   0.555   4.763 -0.3279 -0.0278  0.0119
  104MOL    H9033256   5.063   0.976   4.846  1.6731  1.9616  2.7709
  104MOL    H9133257   5.057   0.837   4.952 -0.8973 -0.3716 -0.4321
  104MOL    H9233258   5.247   0.751   4.854 -0.0731 -0.2811  0.9218
  104MOL    H9333259   4.928   0.819   4.684  0.4197  0.1969  0.7705
  104MOL    H9433260   4.785   0.654   4.607  0.1462  1.8171  0.7424
  104MOL    H9533261   4.856   0.403   4.645  0.9302 -0.7153  1.4664
  104MOL    H9633262   5.071   0.350   4.743 -0.5964  0.7541  1.7169
  104MOL    H9733263   5.226   0.524   4.801 -0.4459  0.2823  0.5685
  104MOL    C9833264   5.253   0.873   4.667 -0.8037  0.2660 -0.4142
  104MOL    C9933265   5.174   0.899   4.536 -0.6730  0.5978  0.5238
  104MOL   C10033266   5.110   1.032   4.520 -0.1420  0.4628  0.9439
  104MOL   C10133267   5.186   1.146   4.542 -0.1610 -1.0466  0.4183
  104MOL   C10233268   5.133   1.274   4.534  0.1026  0.0770  0.8675
  104MOL   C10333269   4.998   1.291   4.501 -0.6850  0.3683 -0.3322
  104MOL   C10433270   4.920   1.173   4.484  0.4709  0.2390  0.1222
  104MOL   C10533271   4.975   1.042   4.494 -0.6087 -0.2470 -0.8033
  104MOL   H10633272   5.329   0.798   4.644  0.7552  2.0323 -1.1633
  104MOL   H10733273   5.304   0.962   4.704 -1.1045  0.5037 -0.5683
  104MOL   H10833274   5.095   0.827   4.515 -0.7177  0.8357 -0.1391
  104MOL   H10933275   5.292   1.141   4.561 -0.2978 -1.5662  1.0283
  104MOL   H11033276   5.196   1.359   4.552 -0.0547  0.9612 -2.4836
  104MOL   H11133277   4.949   1.387   4.508 -0.6342  0.2222  2.5728
  104MOL   H11233278   4.813   1.174   4.472  0.3660 -1.1146  0.9495
  104MOL   H11333279   4.906   0.959   4.484 -1.9340  0.7331 -0.0424
  104MOL   C11433280   5.255   0.863   4.405  0.1142 -0.3742  0.0427
  104MOL   C11533281   5.275   0.714   4.383  0.0844  1.4477  0.3734
  104MOL   C11633282   5.151   0.655   4.311 -0.5117  0.3851  0.1691
  104MOL   C11733283   5.118   0.687   4.177  0.0030  0.1477 -0.3610
  104MOL   C11833284   5.011   0.629   4.114 -0.3398  0.2482 -0.0893
  104MOL   C11933285   4.921   0.540   4.174  0.3827 -0.6008 -0.0470
  104MOL   C12033286   4.952   0.510   4.310  0.2290  0.3822  0.1008
  104MOL   C12133287   5.066   0.567   4.373  0.2808 -0.1241  0.1326
  104MOL   H12233288   5.348   0.918   4.415 -0.4375  0.9841 -1.9907
  104MOL   H12333289   5.204   0.904   4.318  0.8536 -1.2992 -0.8321
  104MOL   H12433290   5.276   0.663   4.480 -2.4265  0.4826 -0.0619
  104MOL   H12533291   5.168   0.762   4.117 -0.9761  0.5198 -0.7303
  104MOL   H12633292   4.992   0.647   4.010  2.2410 -2.6428 -1.1336
  104MOL   H12733293   4.833   0.501   4.126  0.4976 -1.4230  0.4062
  104MOL   H12833294   4.901   0.436   4.370  1.4443  0.2243  0.9532
  104MOL   H12933295   5.080   0.536   4.475 -0.5476  1.9143  0.8810
  104MOL   C13033296   5.406   0.691   4.312 -0.6985 -0.1974 -0.0213
  104MOL   C13133297   5.533   0.698   4.404 -0.4196 -0.5327 -0.3728
  104MOL   C13233298   5.517   0.607   4.526 -0.1526 -0.1151  0.9005
  104MOL   C13333299   5.549   0.657   4.652  0.2607 -0.3292  0.4357
  104MOL   C13433300   5.528   0.577   4.763  0.2302 -0.2108 -0.4427
  104MOL   C13533301   5.495   0.441   4.746 -0.5257  0.4123 -0.3309
  104MOL   C13633302   5.475   0.389   4.620 -0.3282 -0.7126  0.6309
  104MOL   C13733303   5.488   0.473   4.505  0.1315  0.1383  0.4533
  104MOL   H13833304   5.414   0.763   4.231 -0.6129 -1.7055 -1.3890
  104MOL   H13933305   5.400   0.593   4.265  0.3654 -0.8010  1.0863
  104MOL   H14033306   5.546   0.801   4.437 -0.8257 -1.5618  3.1887
  104MOL   H14133307   5.582   0.759   4.660 -0.0938 -0.2678  1.1698
  104MOL   H14233308   5.555   0.610   4.862 -0.9136  2.9678 -1.1036
  104MOL   H14333309   5.490   0.385   4.838  0.4041  3.5919  1.7718
  104MOL   H14433310   5.457   0.282   4.617 -0.4669 -0.6649 -1.5067
  104MOL   H14533311   5.460   0.429   4.410  1.2466  1.5733 -0.5523
  104MOL   C14633312   5.662   0.665   4.332 -0.6448 -0.1817  0.5776
  104MOL   C14733313   5.714   0.760   4.221  0.1791  0.5203  0.5773
  104MOL   C14833314   5.756   0.903   4.273 -0.7201 -0.2970  0.0498
  104MOL   C14933315   5.838   0.918   4.387 -0.2673  0.1124  0.2614
  104MOL   C15033316   5.866   1.046   4.438  1.0181  0.7784 -0.7353
  104MOL   C15133317   5.807   1.158   4.373 -0.1981 -0.0765  0.1377
  104MOL   C15233318   5.740   1.146   4.250 -0.3043 -0.7069  0.2353
  104MOL   C15333319   5.710   1.022   4.205  0.3655  0.1437 -0.2720
  104MOL   H15433320   5.650   0.565   4.290  0.4250 -0.9605  2.0825
  104MOL   H15533321   5.744   0.662   4.404 -0.0979 -0.4029 -0.0502
  104MOL   H15633322   5.638   0.783   4.146 -0.6038  1.0260  1.5166
  104MOL   H15733323   5.885   0.836   4.438  1.0805  1.1021  0.6520
  104MOL   H15833324   5.912   1.066   4.533 -0.8560 -1.0202  0.5742
  104MOL   H15933325   5.824   1.257   4.413  0.0122 -0.7943  1.8714
  104MOL   H16033326   5.699   1.236   4.207 -0.4902  0.1005  2.0547
  104MOL   H16133327   5.641   1.027   4.123 -0.8680 -0.7086  0.6908
  104MOL   C16233328   5.830   0.688   4.150 -0.5600  0.5612  0.0302
  104MOL   C16333329   5.787   0.602   4.029  0.0738  0.2884  0.6536
  104MOL   C16433330   5.774   0.683   3.905  0.0889 -0.2848 -0.2153
  104MOL   C16533331   5.644   0.726   3.862 -0.0077 -0.4602  0.6153
  104MOL   C16633332   5.628   0.801   3.749  0.1538  0.0124  0.4483
  104MOL   C16733333   5.735   0.844   3.673 -0.5372  0.2667  0.0585
  104MOL   C16833334   5.869   0.809   3.715 -0.0089 -0.8460  1.7744
  104MOL   C16933335   5.888   0.737   3.840  0.0428  0.1856 -0.1986
  104MOL   H17033336   5.890   0.632   4.222  1.0586 -0.9897 -2.4492
  104MOL   H17133337   5.904   0.756   4.109 -0.5484  0.7678  0.3932
  104MOL   H17233338   5.685   0.574   4.053  0.0975 -1.2145 -0.9594
  104MOL   H17333339   5.564   0.708   3.932  1.0301 -1.8482  1.4593
  104MOL   H17433340   5.525   0.823   3.723 -0.2605 -0.9919  1.1999
  104MOL   H17533341   5.723   0.898   3.581 -0.4256 -0.0330 -0.1351
  104MOL   H17633342   5.950   0.844   3.654 -3.0952  1.3755 -1.2899
  104MOL   H17733343   5.989   0.730   3.877 -0.6375 -2.8190  1.2120
  104MOL   C17833344   5.869   0.470   4.004  0.1574 -0.2326  0.1934
  104MOL   C17933345   5.836   0.353   4.099 -0.1423  0.2331  0.3942
  104MOL   C18033346   5.709   0.285   4.054  0.3972 -0.0071  0.3028
  104MOL   C18133347   5.583   0.307   4.120 -0.1201 -0.7756 -0.6020
  104MOL   C18233348   5.465   0.251   4.055  0.3219 -0.0560  0.4751
  104MOL   C18333349   5.472   0.182   3.935  0.8038 -0.0179 -0.2663
  104MOL   C18433350   5.595   0.166   3.870 -0.3298 -0.4380 -0.4443
  104MOL   C18533351   5.712   0.210   3.934  0.7212 -0.0332  0.6119
  104MOL   H18633352   5.977   0.490   4.007  0.6222 -2.7246  1.7444
  104MOL   H18733353   5.850   0.445   3.899 -1.4199 -1.9863  0.8691
  104MOL   H18833354   5.809   0.411   4.187  0.8921 -0.2705  1.0480
  104MOL   H18933355   5.579   0.377   4.202 -0.0946 -0.3830 -0.9366
  104MOL   H19033356   5.366   0.266   4.094  0.3002 -0.5888  0.6157
  104MOL   H19133357   5.389   0.142   3.877  0.2778  1.2023 -0.3577
  104MOL   H19233358   5.603   0.099   3.786  1.4498  0.3535 -0.9399
  104MOL   H19333359   5.801   0.184   3.879 -0.5585 -0.1280 -1.4790
  104MOL   C19433360   5.948   0.251   4.130  0.3758  0.1498  0.0564
  104MOL   C19533361   6.052   0.291   4.234 -0.1450  0.0757 -0.4718
  104MOL   C19633362   5.986   0.349   4.349 -0.3770  0.0205 -0.8286
  104MOL   C19733363   5.885   0.276   4.414  0.5314  0.4167 -0.3920
  104MOL   C19833364   5.812   0.346   4.513 -0.0043  0.1815  0.8218
  104MOL   C19933365   5.851   0.472   4.554  0.4634 -0.0870  0.2551
  104MOL   C20033366   5.970   0.534   4.509  0.3677 -0.4930  0.9621
  104MOL   C20133367   6.037   0.471   4.399 -0.4657 -0.5059  0.0927
  104MOL   H20233368   5.984   0.203   4.040 -0.4357  0.7763 -0.6130
  104MOL   H20333369   5.902   0.165   4.178  0.7935 -0.1897 -0.1521
  104MOL   H20433370   6.120   0.357   4.181 -0.5906 -0.9739 -2.3936
  104MOL   H20533371   5.845   0.181   4.382  2.3911 -0.0705 -1.3599
  104MOL   H20633372   5.727   0.295   4.555  1.2420 -2.6453 -0.0038
  104MOL   H20733373   5.800   0.524   4.634  1.2988  1.4593 -0.2135
  104MOL   H20833374   6.006   0.627   4.552  0.1008  0.4500 -0.7984
  104MOL   H20933375   6.130   0.512   4.365  0.4895 -0.9324  2.1081
  104MOL   C21033376   6.139   0.165   4.276  0.4344  0.1638  0.0705
  104MOL   C21133377   6.230   0.109   4.159 -0.1421  0.0170 -0.4645
  104MOL   C21233378   6.357   0.198   4.153  0.2798 -0.1171  0.7339
  104MOL   C21333379   6.468   0.198   4.243  0.0126 -1.1042 -0.0707
  104MOL   C21433380   6.581   0.288   4.217  0.4985 -0.2912  0.3101
  104MOL   C21533381   6.585   0.370   4.099 -0.4605  0.5617  0.5787
  104MOL   C21633382   6.471   0.371   4.013  0.1746  0.0805  0.0637
  104MOL   C21733383   6.358   0.297   4.051  0.5355  0.1587  0.1648
  104MOL   H21833384   6.065   0.090   4.303  1.4717 -1.0587 -0.4316
  104MOL   H21933385   6.190   0.189   4.369  1.1085 -2.1406  0.3180
  104MOL   H22033386   6.186   0.118   4.060 -0.2113 -1.8151 -0.6219
  104MOL   H22133387   6.470   0.137   4.332 -1.3937 -0.3496  0.5020
  104MOL   H22233388   6.664   0.291   4.286 -0.1132 -0.7931  1.0794
  104MOL   H22333389   6.673   0.431   4.089  2.2143 -3.1274  0.6693
  104MOL   H22433390   6.473   0.422   3.918 -3.0779 -1.3147 -0.8009
  104MOL   H22533391   6.270   0.306   3.989  0.5648  1.4724  0.2843
  104MOL   C22633392   6.268   8.077   4.192  0.2059 -0.0286 -0.2761
  104MOL   C22733393   6.177   7.970   4.136  0.6046 -0.1340  0.5976
  104MOL   C22833394   6.135   7.982   3.986 -0.3245 -0.0372 -0.5933
  104MOL   C22933395   5.996   7.993   3.951  0.1809  0.2103  0.2929
  104MOL   C23033396   5.958   8.006   3.820 -0.2207 -0.2330  0.2557
  104MOL   C23133397   6.057   8.007   3.720  0.4199  0.5825 -0.0884
  104MOL   C23233398   6.193   7.999   3.746  0.1574  1.1566 -0.1354
  104MOL   C23333399   6.231   7.986   3.884 -0.1294 -0.8418 -1.0353
  104MOL   H23433400   6.285   8.063   4.299 -0.8394  2.3057  0.2192
  104MOL   H23533401   6.366   8.057   4.148 -0.4557 -0.5734 -1.4938
  104MOL   H23633402   6.088   7.976   4.198 -0.9841 -3.1779 -1.2530
  104MOL   H23733403   5.923   7.995   4.031  0.5541 -3.3933  0.8077
  104MOL   H23833404   5.853   8.019   3.799  0.4769  2.3650 -2.0337
  104MOL   H23933405   6.022   8.024   3.619  1.4897 -1.4098 -0.8336
  104MOL   H24033406   6.272   8.015   3.674 -1.0762 -0.8717 -1.9821
  104MOL   H24133407   6.334   7.991   3.914 -0.0568 -1.3221 -1.2018
  104MOL   C24233408   6.239   7.831   4.160 -0.2123  1.1055  0.0139
  104MOL   C24333409   6.137   7.728   4.218  0.3141  0.4284 -0.0267
  104MOL   C24433410   6.012   7.695   4.133 -0.0374 -0.2248  1.1560
  104MOL   C24533411   6.031   7.666   3.995 -0.0929 -0.1160 -1.1769
  104MOL   C24633412   5.922   7.648   3.908  0.0080 -0.1882  0.4063
  104MOL   C24733413   5.791   7.650   3.956 -0.2973 -0.2024 -0.3421
  104MOL   C24833414   5.771   7.660   4.093  0.6693 -0.4872 -0.4303
  104MOL   C24933415   5.878   7.694   4.180  0.6397 -0.2992 -0.3513
  104MOL   H25033416   6.307   7.836   4.245  0.2280 -1.0218 -0.1908
  104MOL   H25133417   6.294   7.791   4.075  1.2743 -0.8312  1.8252
  104MOL   H25233418   6.084   7.781   4.298  0.9952  3.1717 -1.3169
  104MOL   H25333419   6.133   7.664   3.958  0.3770  1.5634 -0.0472
  104MOL   H25433420   5.937   7.635   3.801  1.5607 -2.4687  0.8618
  104MOL   H25533421   5.701   7.627   3.901 -1.4212 -1.8336  2.0999
  104MOL   H25633422   5.667   7.655   4.122  0.3638  0.5746 -1.3458
  104MOL   H25733423   5.852   7.730   4.278 -0.3443  0.5369 -0.9087
  104MOL   C25833424   6.197   7.589   4.267 -0.0882  0.1495  0.0686
  104MOL   C25933425   6.335   7.589   4.322  0.4027 -0.1044 -0.0817
  104MOL   C26033426   6.350   7.481   4.435  0.4828 -0.1909 -0.2375
  104MOL   C26133427   6.351   7.337   4.400 -0.2476  0.6167 -0.1698
  104MOL   C26233428   6.349   7.242   4.508 -0.8326 -0.5327 -0.8760
  104MOL   C26333429   6.371   7.288   4.642  0.5753 -0.0236  0.1021
  104MOL   C26433430   6.369   7.425   4.676 -0.8357 -0.0677  0.4149
  104MOL   C26533431   6.362   7.516   4.572  0.4864  0.9438 -0.1192
  104MOL   H26633432   6.193   7.514   4.188 -1.0811 -1.3927  1.5574
  104MOL   H26733433   6.127   7.553   4.342  0.5745  2.2585  1.7680
  104MOL   H26833434   6.335   7.687   4.369 -2.5714  0.6541 -1.5503
  104MOL   H26933435   6.330   7.300   4.301 -1.4810  0.5998  0.0971
  104MOL   H27033436   6.346   7.136   4.487  2.5145 -1.2202  1.7163
  104MOL   H27133437   6.386   7.209   4.715  2.7606  0.7365  0.4963
  104MOL   H27233438   6.373   7.461   4.778  3.5213 -0.4954  0.4967
  104MOL   H27333439   6.367   7.621   4.596 -0.2770  0.6337  1.4820
  104MOL   C27433440   6.453   7.577   4.220  1.0723  0.2880  0.5351
  104MOL   C27533441   6.587   7.608   4.280 -0.0262  0.1496 -0.0944
  104MOL   C27633442   6.691   7.501   4.246 -0.1107 -0.2939  0.0056
  104MOL   C27733443   6.742   7.479   4.115  0.2537 -0.3243  0.1100
  104MOL   C27833444   6.830   7.376   4.078  0.3213  0.5812 -0.1744
  104MOL   C27933445   6.871   7.295   4.182 -0.0410 -0.1932  0.3860
  104MOL   C28033446   6.831   7.322   4.316  0.4327 -0.6136  0.0560
  104MOL   C28133447   6.729   7.415   4.347 -0.0021  0.0438 -0.1335
  104MOL   H28233448   6.437   7.644   4.134 -0.6496  2.3677  2.4121
  104MOL   H28333449   6.453   7.478   4.176  3.0214 -0.5183  2.2890
  104MOL   H28433450   6.567   7.598   4.387  2.0640  0.1355  0.3282
  104MOL   H28533451   6.710   7.550   4.040 -0.2868  1.7222  2.2316
  104MOL   H28633452   6.854   7.359   3.974  2.0092 -0.0945  0.3002
  104MOL   H28733453   6.927   7.209   4.148 -0.5554  0.3054 -1.8445
  104MOL   H28833454   6.885   7.263   4.388  0.6290 -0.8028 -0.2426
  104MOL   H28933455   6.700   7.413   4.451 -0.9222 -1.1509 -0.4014
  104MOL   C29033456   6.639   7.754   4.267  0.0206  0.1206 -0.2764
  104MOL   C29133457   6.744   7.797   4.380  0.2420  0.0680 -0.3580
  104MOL   C29233458   6.686   7.799   4.523  0.1601 -0.3248 -0.2211
  104MOL   C29333459   6.603   7.898   4.573  0.4585 -0.2382  0.8597
  104MOL   C29433460   6.530   7.888   4.694 -0.3582 -0.1042 -0.2983
  104MOL   C29533461   6.563   7.779   4.778 -0.9716  0.0541  0.2189
  104MOL   C29633462   6.651   7.677   4.739 -1.1913  0.4099  0.1971
  104MOL   C29733463   6.714   7.694   4.611  0.5148 -0.2873  0.2650
  104MOL   H29833464   6.552   7.820   4.261 -0.9488 -1.2159 -1.1353
  104MOL   H29933465   6.684   7.759   4.168  0.7443  1.0981  0.0911
  104MOL   H30033466   6.755   7.902   4.351 -2.0055  0.8002  1.2531
  104MOL   H30133467   6.576   7.979   4.507 -2.4775 -1.8507 -0.0083
  104MOL   H30233468   6.464   7.970   4.719 -0.5026 -0.1865 -0.4051
  104MOL   H30333469   6.514   7.772   4.874 -1.1308 -1.0854  0.0617
  104MOL   H30433470   6.681   7.597   4.805 -0.3837  1.1669  0.7437
  104MOL   H30533471   6.792   7.622   4.590 -0.3131 -0.6948 -1.5451
  104MOL   C30633472   6.893   7.755   4.384  0.1739 -0.1414 -0.2698
  104MOL   C30733473   6.966   7.781   4.250  0.9027  0.3768  0.5522
  104MOL   C30833474   7.117   7.741   4.256 -0.5977 -0.0109  0.4796
  104MOL   C30933475   7.152   7.609   4.218  0.0989 -1.1065  0.2619
  104MOL   C31033476   7.288   7.569   4.228 -0.3765  0.4585  0.1234
  104MOL   C31133477   7.387   7.663   4.265  0.0984 -0.4532  0.1452
  104MOL   C31233478   7.354   7.794   4.299 -0.5817 -0.2607 -0.9167
  104MOL   C31333479   7.216   7.836   4.295  0.3518  0.2065 -0.4604
  104MOL   H31433480   6.889   7.647   4.394 -1.0179 -0.1173 -0.4666
  104MOL   H31533481   6.937   7.805   4.471 -3.1409  1.3829  0.5839
  104MOL   H31633482   6.956   7.887   4.225 -0.0345  0.2831  0.5121
  104MOL   H31733483   7.080   7.534   4.189 -0.4052 -0.8488  0.8504
  104MOL   H31833484   7.312   7.466   4.203  0.5488  0.3155  1.5085
  104MOL   H31933485   7.493   7.643   4.265  0.1221 -0.3163  0.3874
  104MOL   H32033486   7.431   7.863   4.332 -1.0423 -0.4486  0.6078
  104MOL   H32133487   7.183   7.938   4.304  1.9373  0.9555 -2.7342
  104MOL   H32233488   6.907   7.728   4.175  0.0416  0.7913  0.9289
  105MOL     C133489   0.746   2.929   2.128 -0.1796 -0.2150 -0.4901
  105MOL     C233490   0.725   2.783   2.080 -0.2939 -0.2849 -0.2372
  105MOL     C333491   0.820   2.745   1.967  0.5379 -0.0896 -0.6007
  105MOL     C433492   0.960   2.768   1.976 -0.0613  0.5887 -0.1886
  105MOL     C533493   1.047   2.735   1.874 -0.0062  0.4374  0.3885
  105MOL     C633494   0.991   2.704   1.750  0.3280  0.4217  0.6747
  105MOL     C733495   0.856   2.690   1.736  1.1314  0.4646 -0.0696
  105MOL     C833496   0.767   2.706   1.846 -0.2229  0.5986 -0.0306
  105MOL     H933497   0.738   3.001   2.046 -0.3862 -0.2253 -0.4808
  105MOL    H1033498   0.666   2.952   2.200 -0.4684  0.1265 -0.9170
  105MOL    H1133499   0.621   2.769   2.048 -0.3094 -1.9778  0.4781
  105MOL    H1233500   0.998   2.816   2.065 -0.6577  0.8583 -0.0776
  105MOL    H1333501   1.154   2.747   1.882 -0.1602  1.1154  1.5002
  105MOL    H1433502   1.057   2.698   1.665 -0.7074  2.8503 -0.3324
  105MOL    H1533503   0.812   2.663   1.641  1.7729  0.3809 -0.3478
  105MOL    H1633504   0.661   2.702   1.831  0.1213  0.3804 -2.7247
  105MOL    H1733505   0.849   2.941   2.160  0.5613 -2.2406 -2.0386
  105MOL    C1833506   0.741   2.683   2.195 -0.0821  0.3690 -0.7083
  105MOL    C1933507   0.616   2.676   2.283  0.2270 -0.3063 -0.3660
  105MOL    C2033508   0.482   2.648   2.215 -0.0568 -0.0584 -0.2911
  105MOL    C2133509   0.371   2.735   2.235  0.1243 -0.1123  0.4510
  105MOL    C2233510   0.249   2.707   2.173 -0.3352  0.2451 -0.5287
  105MOL    C2333511   0.235   2.592   2.096 -0.6526 -0.5721  0.2340
  105MOL    C2433512   0.339   2.500   2.090 -0.1051  0.0154 -0.5953
  105MOL    C2533513   0.464   2.529   2.151 -0.2426  0.3141 -0.1679
  105MOL    H2633514   0.833   2.701   2.251 -0.5340 -0.1178  0.1834
  105MOL    H2733515   0.755   2.583   2.154  0.2502  0.4008 -0.6780
  105MOL    H2833516   0.615   2.779   2.320 -2.5581 -0.2195 -0.5278
  105MOL    H2933517   0.379   2.825   2.295 -1.6627  0.5607 -0.2705
  105MOL    H3033518   0.161   2.769   2.184 -0.7529 -0.4980  0.4402
  105MOL    H3133519   0.144   2.558   2.050  1.0399 -1.1822 -2.8343
  105MOL    H3233520   0.327   2.408   2.037  0.5503 -0.5666  0.2438
  105MOL    H3333521   0.541   2.454   2.147 -1.2266 -0.7920  1.0074
  105MOL    C3433522   0.638   2.567   2.395 -0.5061  0.0976 -0.5720
  105MOL    C3533523   0.734   2.617   2.513 -0.9260 -0.4082 -0.6939
  105MOL    C3633524   0.658   2.666   2.629  0.3745 -0.3279 -0.6659
  105MOL    C3733525   0.618   2.588   2.739 -0.4634  0.9644 -0.0514
  105MOL    C3833526   0.524   2.642   2.828  0.0375 -0.3624 -0.0761
  105MOL    C3933527   0.475   2.772   2.823 -0.0994 -1.4743 -0.3158
  105MOL    C4033528   0.517   2.847   2.712 -0.7657 -0.3313 -0.2076
  105MOL    C4133529   0.611   2.798   2.619 -0.5041  0.0801  0.7054
  105MOL    H4233530   0.676   2.473   2.356  1.6716  1.2827 -1.4093
  105MOL    H4333531   0.545   2.538   2.443 -0.6870 -1.6450 -1.9160
  105MOL    H4433532   0.801   2.692   2.472  0.5575 -1.4621 -0.2360
  105MOL    H4533533   0.636   2.482   2.735 -2.6847  0.5941 -0.8567
  105MOL    H4633534   0.500   2.575   2.910  1.9662 -2.3223 -1.0498
  105MOL    H4733535   0.407   2.806   2.900  0.8091 -0.5408  0.0986
  105MOL    H4833536   0.473   2.946   2.710 -1.1475 -0.5153 -1.6864
  105MOL    H4933537   0.647   2.861   2.539 -1.9438  2.4956  1.9086
  105MOL    C5033538   0.840   2.499   2.540 -0.2561  0.5814 -0.1724
  105MOL    C5133539   0.928   2.528   2.666 -0.4001  0.2553  0.4241
  105MOL    C5233540   0.961   2.398   2.747 -0.1565 -0.2318 -0.4700
  105MOL    C5333541   0.916   2.384   2.880  0.0977  0.2416  0.2904
  105MOL    C5433542   0.940   2.261   2.942  0.6947  0.7077  0.6489
  105MOL    C5533543   1.003   2.155   2.883 -0.0797 -0.5359  0.2186
  105MOL    C5633544   1.054   2.175   2.753 -0.0148  0.4023  0.3912
  105MOL    C5733545   1.023   2.293   2.685 -0.4161  0.3047  0.0034
  105MOL    H5833546   0.900   2.463   2.456 -1.7332 -1.8378 -0.2348
  105MOL    H5933547   0.785   2.408   2.562  0.2210 -0.1726 -1.9710
  105MOL    H6033548   0.875   2.598   2.731 -1.0307  0.4783 -0.3243
  105MOL    H6133549   0.857   2.463   2.923 -1.1920 -0.7907  0.4459
  105MOL    H6233550   0.911   2.247   3.045  0.8804  0.6523  0.6952
  105MOL    H6333551   1.037   2.078   2.950 -1.8846 -2.1401 -0.6392
  105MOL    H6433552   1.106   2.104   2.690 -0.5319  0.8962 -0.6069
  105MOL    H6533553   1.056   2.298   2.582  0.1965  0.9839  0.2240
  105MOL    C6633554   1.058   2.606   2.627  0.3087  0.0015  0.3275
  105MOL    C6733555   1.134   2.669   2.753 -0.6432  0.1815  0.1026
  105MOL    C6833556   1.287   2.654   2.747  0.1499  0.1174  0.0420
  105MOL    C6933557   1.359   2.703   2.638 -0.2148 -0.7437  0.5479
  105MOL    C7033558   1.499   2.682   2.629 -0.0965  0.3311  0.6381
  105MOL    C7133559   1.570   2.614   2.728  0.5222  0.4984 -0.3570
  105MOL    C7233560   1.499   2.565   2.840 -0.5339  0.0450  0.1995
  105MOL    C7333561   1.360   2.589   2.850  0.6073  0.9381 -0.1815
  105MOL    H7433562   1.022   2.684   2.560 -0.2805 -0.4750  0.0855
  105MOL    H7533563   1.133   2.540   2.582  1.9144  0.7677  1.8401
  105MOL    H7633564   1.105   2.607   2.838  1.3496 -3.2834 -1.5975
  105MOL    H7733565   1.311   2.735   2.547 -0.0448  1.4788  1.2119
  105MOL    H7833566   1.547   2.733   2.547 -3.5902 -0.7925 -2.2257
  105MOL    H7933567   1.678   2.608   2.716  0.7553  1.2965  1.2081
  105MOL    H8033568   1.542   2.510   2.922 -1.6263  1.4381  1.7174
  105MOL    H8133569   1.299   2.555   2.933 -0.8398 -3.5036 -2.9047
  105MOL    C8233570   1.094   2.812   2.773  0.1945  0.1746 -0.0793
  105MOL    C8333571   1.082   2.851   2.925  0.0762  0.0741 -0.3703
  105MOL    C8433572   1.137   2.993   2.956  0.3580 -0.3841 -0.4200
  105MOL    C8533573   1.061   3.102   2.919 -0.1192  0.0504  0.5677
  105MOL    C8633574   1.108   3.235   2.931  0.1041  0.6631  0.5041
  105MOL    C8733575   1.235   3.258   2.990 -0.0708 -0.2111  0.3184
  105MOL    C8833576   1.306   3.148   3.038  0.0981  0.7524  0.1979
  105MOL    C8933577   1.262   3.015   3.008 -0.1676  0.3370 -0.0939
  105MOL    H9033578   0.998   2.834   2.727  0.1268  0.2950  0.1175
  105MOL    H9133579   1.166   2.876   2.723 -0.5853 -0.9402 -2.7265
  105MOL    H9233580   1.147   2.790   2.988 -0.7650  1.0554  1.4824
  105MOL    H9333581   0.960   3.092   2.883  0.1082  1.1610 -0.3933
  105MOL    H9433582   1.045   3.318   2.901 -1.4074 -0.4361  0.6040
  105MOL    H9533583   1.267   3.361   2.982 -1.0041  0.3189  2.7779
  105MOL    H9633584   1.401   3.168   3.084  0.5093  1.8696 -1.1004
  105MOL    H9733585   1.329   2.934   3.033 -1.6464 -0.3701  1.7764
  105MOL    C9833586   0.938   2.820   2.976 -0.5971 -0.1506  0.4460
  105MOL    C9933587   0.917   2.849   3.131 -0.0342  0.0732  0.2222
  105MOL   C10033588   0.772   2.841   3.177 -0.5781 -0.2691 -0.3528
  105MOL   C10133589   0.739   2.921   3.294 -0.2250 -0.0849  0.5310
  105MOL   C10233590   0.609   2.918   3.358  0.0626  0.7225 -0.1814
  105MOL   C10333591   0.511   2.839   3.287 -0.1449 -0.1633  0.2505
  105MOL   C10433592   0.541   2.760   3.174  0.0514  0.1056 -0.3869
  105MOL   C10533593   0.671   2.766   3.116  0.4732 -0.0079 -0.4260
  105MOL   H10633594   0.911   2.716   2.959 -0.0456 -0.4595  1.4288
  105MOL   H10733595   0.859   2.871   2.920  1.6204 -0.2604 -2.9444
  105MOL   H10833596   0.943   2.954   3.129 -1.6440  0.5131  1.5475
  105MOL   H10933597   0.817   2.986   3.330 -0.3969  1.8228 -2.4003
  105MOL   H11033598   0.592   2.968   3.452  0.4781  0.2260  0.1585
  105MOL   H11133599   0.413   2.828   3.331  0.4420 -2.3319  1.0638
  105MOL   H11233600   0.460   2.704   3.129  0.1094 -1.1349  1.0086
  105MOL   H11333601   0.689   2.711   3.025 -1.5504  0.2936 -1.0107
  105MOL   C11433602   1.010   2.783   3.230 -0.2863 -0.3683  0.2533
  105MOL   C11533603   0.996   2.626   3.235 -0.1862  0.1066 -0.3529
  105MOL   C11633604   1.130   2.557   3.231  0.1074 -0.3503  0.2242
  105MOL   C11733605   1.123   2.424   3.186  0.3684  0.2555 -0.2597
  105MOL   C11833606   1.243   2.352   3.157 -0.4936 -0.0467 -0.2688
  105MOL   C11933607   1.373   2.413   3.156  0.3603 -0.5215 -0.4237
  105MOL   C12033608   1.377   2.549   3.194 -0.3921 -0.4196  0.5132
  105MOL   C12133609   1.256   2.619   3.227  0.1489  0.9095 -0.3460
  105MOL   H12233610   0.998   2.829   3.328  0.2130 -0.3279  0.2959
  105MOL   H12333611   1.108   2.820   3.199 -0.9246  2.6334  1.6544
  105MOL   H12433612   0.955   2.596   3.138 -0.7701 -0.0045 -0.0730
  105MOL   H12533613   1.030   2.370   3.187  1.8082 -2.3043 -0.7594
  105MOL   H12633614   1.232   2.245   3.151  2.4304 -0.6902  3.8486
  105MOL   H12733615   1.468   2.365   3.135  1.5926  2.1395 -1.1414
  105MOL   H12833616   1.472   2.599   3.206  0.1948 -1.5035  0.4583
  105MOL   H12933617   1.273   2.719   3.264 -1.6845  0.7821  0.9200
  105MOL   C13033618   0.902   2.575   3.346 -0.3460 -0.1321  0.3722
  105MOL   C13133619   0.964   2.542   3.486 -0.1710  0.4555  0.2265
  105MOL   C13233620   1.010   2.667   3.560  0.0693 -0.1865 -0.1277
  105MOL   C13333621   0.916   2.774   3.582 -0.2356  0.3074 -1.1139
  105MOL   C13433622   0.957   2.890   3.654 -0.5114 -0.5827  0.2817
  105MOL   C13533623   1.077   2.886   3.727  0.2105  0.5043 -0.0716
  105MOL   C13633624   1.164   2.770   3.717 -0.2743 -0.1768  0.7257
  105MOL   C13733625   1.138   2.670   3.623  0.4818  0.0384  0.2902
  105MOL   H13833626   0.849   2.487   3.309 -1.0915  0.6906 -0.5622
  105MOL   H13933627   0.822   2.649   3.358  0.3033  0.6885 -0.3250
  105MOL   H14033628   1.055   2.486   3.462 -0.2641 -0.5406  2.1203
  105MOL   H14133629   0.816   2.764   3.542 -1.1399  0.6040  0.9746
  105MOL   H14233630   0.886   2.969   3.672  0.9291  0.6151  0.8071
  105MOL   H14333631   1.111   2.975   3.777 -0.3618 -0.8567  2.8319
  105MOL   H14433632   1.261   2.771   3.764 -0.9554 -1.5511  2.2261
  105MOL   H14533633   1.211   2.591   3.611 -0.8071 -1.0626 -0.5500
  105MOL   C14633634   0.866   2.456   3.576 -0.1955 -0.3694  0.7007
  105MOL   C14733635   0.929   2.409   3.713  0.0857 -0.2166 -0.7717
  105MOL   C14833636   0.812   2.371   3.805  0.5851  0.8116  0.6696
  105MOL   C14933637   0.785   2.441   3.923  0.1311 -0.5353 -0.0788
  105MOL   C15033638   0.685   2.397   4.009 -0.0283  0.0519  0.0363
  105MOL   C15133639   0.601   2.291   3.970  0.4795  0.3130  0.6720
  105MOL   C15233640   0.616   2.225   3.843 -0.4416 -0.0113 -0.5221
  105MOL   C15333641   0.727   2.265   3.768 -0.4462  0.0014 -0.2629
  105MOL   H15433642   0.832   2.371   3.516 -0.5390 -0.6586  1.2968
  105MOL   H15533643   0.774   2.510   3.597  0.5622  1.3989 -0.4448
  105MOL   H15633644   0.972   2.502   3.750  1.9797 -0.8943 -1.2059
  105MOL   H15733645   0.853   2.519   3.951 -2.4838  1.7238  0.2512
  105MOL   H15833646   0.665   2.432   4.109 -1.7309 -3.5195  1.0304
  105MOL   H15933647   0.513   2.270   4.029  0.1985 -0.5666 -0.0454
  105MOL   H16033648   0.546   2.145   3.824  0.9619 -1.7173  1.3181
  105MOL   H16133649   0.742   2.211   3.675 -1.2190 -2.1151  0.8181
  105MOL   C16233650   1.044   2.306   3.694 -0.0491 -0.1437 -0.7608
  105MOL   C16333651   1.093   2.233   3.820  0.7405 -0.0895  0.1492
  105MOL   C16433652   1.180   2.114   3.780 -0.1071 -0.3619  0.0674
  105MOL   C16533653   1.127   1.985   3.817 -0.1199 -0.2299 -0.3249
  105MOL   C16633654   1.194   1.869   3.771 -0.3488  0.2795  0.1747
  105MOL   C16733655   1.304   1.888   3.682 -0.5118  0.4207 -0.7097
  105MOL   C16833656   1.359   2.015   3.649 -0.3458  0.9111 -0.1666
  105MOL   C16933657   1.296   2.128   3.701 -0.2179 -0.2420 -0.5314
  105MOL   H17033658   1.127   2.361   3.650  1.1515 -0.8349  0.5765
  105MOL   H17133659   1.026   2.222   3.626  0.4435  0.5360 -1.7441
  105MOL   H17233660   1.005   2.196   3.872  0.0452 -0.3681 -1.1839
  105MOL   H17333661   1.042   1.976   3.883 -0.6990 -1.4193 -1.2021
  105MOL   H17433662   1.171   1.768   3.801 -1.9805  0.3026 -0.9811
  105MOL   H17533663   1.354   1.799   3.646 -1.7271 -0.7446  0.4113
  105MOL   H17633664   1.446   2.021   3.585  0.1101  2.1554  0.5669
  105MOL   H17733665   1.329   2.226   3.669  1.3134 -0.7346 -0.5053
  105MOL   C17833666   1.168   2.334   3.910 -0.0558  0.1998  0.4010
  105MOL   C17933667   1.174   2.304   4.055 -0.5314 -0.8682 -0.1258
  105MOL   C18033668   1.254   2.414   4.132 -1.0749  0.4332 -0.1205
  105MOL   C18133669   1.372   2.387   4.206  0.2653  0.7187 -0.5927
  105MOL   C18233670   1.435   2.496   4.263 -0.4048  0.2299 -0.2498
  105MOL   C18333671   1.387   2.629   4.269  0.8349 -0.0308 -0.7586
  105MOL   C18433672   1.257   2.654   4.217  0.5635 -0.1294 -0.7816
  105MOL   C18533673   1.197   2.548   4.136  0.3046  0.4709 -0.2287
  105MOL   H18633674   1.119   2.431   3.905  0.0843  0.2044 -0.9709
  105MOL   H18733675   1.266   2.359   3.870  0.1709  0.4457  1.1070
  105MOL   H18833676   1.237   2.215   4.058  1.3909  0.3683 -2.3982
  105MOL   H18933677   1.419   2.290   4.205 -0.7017  0.2148 -3.4575
  105MOL   H19033678   1.536   2.473   4.293 -1.1378 -0.1260  2.0470
  105MOL   H19133679   1.445   2.709   4.312  0.1830  0.6399 -1.1059
  105MOL   H19233680   1.208   2.750   4.227 -3.1874 -2.2152  1.9716
  105MOL   H19333681   1.108   2.569   4.078  0.4693 -2.6065 -1.6571
  105MOL   C19433682   1.048   2.272   4.137  0.2012 -0.2649  0.1434
  105MOL   C19533683   1.052   2.258   4.291  0.4263  0.2139  0.0563
  105MOL   C19633684   0.941   2.353   4.356  0.2342 -0.3980 -0.7530
  105MOL   C19733685   0.990   2.453   4.437 -0.0665 -0.8149 -0.0031
  105MOL   C19833686   0.899   2.542   4.498 -0.1376 -0.6884  0.0964
  105MOL   C19933687   0.761   2.528   4.486  0.3710  0.6525  1.0831
  105MOL   C20033688   0.719   2.428   4.392  0.4054 -0.3106  1.2011
  105MOL   C20133689   0.805   2.338   4.329  0.0863 -0.4236  0.9606
  105MOL   H20233690   1.000   2.179   4.104  1.3988 -0.4432 -1.1379
  105MOL   H20333691   0.970   2.341   4.105 -1.4788 -1.5251  1.4065
  105MOL   H20433692   1.149   2.280   4.336  0.8158 -1.7414  0.2367
  105MOL   H20533693   1.095   2.439   4.458 -0.7065 -1.8663  2.6981
  105MOL   H20633694   0.932   2.619   4.566  0.4489  0.0814 -1.0431
  105MOL   H20733695   0.681   2.584   4.533 -0.5431 -0.8226  1.3167
  105MOL   H20833696   0.612   2.431   4.377  0.6966  0.2822 -0.8568
  105MOL   H20933697   0.767   2.261   4.262  0.2541  0.0785  0.2842
  105MOL   C21033698   1.024   2.113   4.342  0.0766  0.9232 -0.0350
  105MOL   C21133699   1.124   2.009   4.300  0.1842  1.0651  0.3926
  105MOL   C21233700   1.272   2.045   4.328 -0.0145 -0.2021  0.7302
  105MOL   C21333701   1.371   2.014   4.230 -0.5526  0.2080 -0.0515
  105MOL   C21433702   1.499   2.039   4.265 -0.8457  0.0191 -0.3144
  105MOL   C21533703   1.534   2.119   4.375 -0.3674  0.1883  0.7906
  105MOL   C21633704   1.434   2.153   4.468  0.3125 -0.5234  0.1564
  105MOL   C21733705   1.306   2.105   4.450  0.2507  0.1856 -0.1305
  105MOL   H21833706   0.924   2.084   4.310  0.2548  0.9066 -0.5685
  105MOL   H21933707   1.007   2.114   4.450 -1.1492  1.0091 -0.2214
  105MOL   H22033708   1.118   1.999   4.192  0.6102 -1.2487  0.5660
  105MOL   H22133709   1.346   1.973   4.133 -1.6428 -0.2891  0.4200
  105MOL   H22233710   1.574   2.004   4.196 -1.5081  0.1735 -1.1153
  105MOL   H22333711   1.631   2.156   4.404  0.5271 -0.8890 -0.7253
  105MOL   H22433712   1.469   2.198   4.559 -0.3126  1.8015 -0.7163
  105MOL   H22533713   1.233   2.108   4.529  1.6253 -0.9006  1.1999
  105MOL   C22633714   1.086   1.875   4.352  0.4192 -0.2666 -0.4771
  105MOL   C22733715   1.181   1.753   4.332  0.2968  0.8780 -0.4628
  105MOL   C22833716   1.155   1.646   4.442 -0.1203 -0.4419 -0.2061
  105MOL   C22933717   1.057   1.550   4.439  1.0628  0.2608  0.6455
  105MOL   C23033718   1.033   1.467   4.547  0.0737  0.4626 -0.2955
  105MOL   C23133719   1.117   1.474   4.658 -0.2632  0.5102 -0.0855
  105MOL   C23233720   1.218   1.567   4.662  0.2090  0.5484 -0.3144
  105MOL   C23333721   1.236   1.651   4.555 -0.8246 -0.1994  0.3663
  105MOL   H23433722   0.983   1.848   4.325 -0.3440  0.5512  1.4951
  105MOL   H23533723   1.100   1.891   4.459  1.4851 -1.0251 -0.4909
  105MOL   H23633724   1.279   1.794   4.354  0.6930  0.7985 -1.9865
  105MOL   H23733725   0.990   1.536   4.355  0.4154 -1.1051  1.3664
  105MOL   H23833726   0.943   1.407   4.553 -0.5354  1.5760  3.2054
  105MOL   H23933727   1.085   1.407   4.736  0.1021 -0.1363 -0.4844
  105MOL   H24033728   1.287   1.589   4.742  0.6879 -2.5236  0.1698
  105MOL   H24133729   1.322   1.715   4.555 -1.2664  0.4194 -0.7248
  105MOL   C24233730   1.197   1.703   4.185 -0.4347  0.2025 -0.3260
  105MOL   C24333731   1.289   1.578   4.177 -0.9337  0.1737 -0.0361
  105MOL   C24433732   1.267   1.513   4.045  0.0827 -0.2318  0.3679
  105MOL   C24533733   1.317   1.564   3.918  1.0746 -0.3690 -0.3312
  105MOL   C24633734   1.278   1.517   3.795 -0.2961  0.2673 -0.4528
  105MOL   C24733735   1.211   1.392   3.788  0.3305  0.4798 -0.0269
  105MOL   C24833736   1.159   1.333   3.908 -0.1384  0.2288 -0.6085
  105MOL   C24933737   1.181   1.399   4.033  0.1718  0.1023 -0.2093
  105MOL   H25033738   1.220   1.783   4.115  0.9426 -0.9916 -1.2596
  105MOL   H25133739   1.099   1.663   4.157  0.2872 -1.5680 -0.3997
  105MOL   H25233740   1.256   1.506   4.253  0.7176 -0.7827 -0.1949
  105MOL   H25333741   1.377   1.653   3.912  1.6050 -0.6492  0.6778
  105MOL   H25433742   1.321   1.561   3.706 -1.7844  0.1140 -1.2741
  105MOL   H25533743   1.186   1.344   3.695  0.8539  2.1239 -1.0343
  105MOL   H25633744   1.104   1.240   3.901  1.5381 -0.8652  0.3720
  105MOL   H25733745   1.126   1.369   4.121 -2.3861 -0.4918 -1.9511
  105MOL   C25833746   1.438   1.607   4.211  1.0305 -0.7246  1.0880
  105MOL   C25933747   1.516   1.497   4.287  0.1364  0.0179  0.6236
  105MOL   C26033748   1.478   1.358   4.237 -0.2141 -0.7058  1.1476
  105MOL   C26133749   1.399   1.266   4.311  0.2086  0.5882 -0.0305
  105MOL   C26233750   1.366   1.134   4.268 -0.0468 -0.0595 -0.4459
  105MOL   C26333751   1.408   1.094   4.138  0.2778 -0.2001 -0.1129
  105MOL   C26433752   1.495   1.181   4.064 -0.1547  0.5302  0.3587
  105MOL   C26533753   1.523   1.312   4.108 -0.8320  0.1786 -0.7033
  105MOL   H26633754   1.455   1.700   4.265 -1.4779  0.8131 -0.6602
  105MOL   H26733755   1.487   1.631   4.117 -0.6134 -3.6102 -0.5960
  105MOL   H26833756   1.474   1.488   4.388 -0.5775  1.2182  0.4323
  105MOL   H26933757   1.377   1.290   4.414 -1.2011  0.0391 -0.1968
  105MOL   H27033758   1.328   1.061   4.339  1.0237 -0.6508 -0.4730
  105MOL   H27133759   1.382   1.001   4.090  0.0448 -0.7121  0.9833
  105MOL   H27233760   1.538   1.154   3.969  0.5325 -0.3125  0.9032
  105MOL   H27333761   1.584   1.383   4.054 -1.9590  1.6827 -0.0201
  105MOL   C27433762   1.669   1.511   4.303 -0.6070  0.0379 -0.2160
  105MOL   C27533763   1.712   1.649   4.357  0.4497  0.5963 -0.4449
  105MOL   C27633764   1.669   1.670   4.502  0.2474 -0.0763  0.3580
  105MOL   C27733765   1.595   1.788   4.541 -0.0031  0.5549  0.1792
  105MOL   C27833766   1.549   1.805   4.672  0.6698 -0.6848 -0.5790
  105MOL   C27933767   1.569   1.708   4.777  0.1684 -0.1571  0.1317
  105MOL   C28033768   1.650   1.601   4.740  0.9109  0.0260 -0.2241
  105MOL   C28133769   1.691   1.572   4.603  0.2808 -0.8703  0.3829
  105MOL   H28233770   1.710   1.486   4.205 -1.0392 -0.9838 -0.1449
  105MOL   H28333771   1.702   1.427   4.365  1.1288  0.9334  0.1160
  105MOL   H28433772   1.663   1.727   4.299  0.2478  1.4839  0.8984
  105MOL   H28533773   1.572   1.864   4.468 -2.7913 -0.1874  0.2568
  105MOL   H28633774   1.496   1.896   4.695 -1.0096 -1.9718  0.7080
  105MOL   H28733775   1.539   1.723   4.880 -1.5009  1.8197 -0.6107
  105MOL   H28833776   1.677   1.531   4.818 -0.9497 -0.8665 -0.3523
  105MOL   H28933777   1.748   1.483   4.582 -1.7569 -1.8289 -1.3066
  105MOL   C29033778   1.865   1.675   4.355 -0.7341  0.6768 -0.6876
  105MOL   C29133779   1.941   1.656   4.225  0.3954  0.1800 -0.0948
  105MOL   C29233780   1.883   1.732   4.108 -0.3315  0.1350  0.0035
  105MOL   C29333781   1.837   1.658   3.998 -0.0425 -0.3226  0.0200
  105MOL   C29433782   1.796   1.725   3.884  1.0718 -0.9621 -0.5197
  105MOL   C29533783   1.791   1.863   3.877  0.4556  0.8167  0.2508
  105MOL   C29633784   1.847   1.940   3.981  0.1024 -0.2059 -0.0939
  105MOL   C29733785   1.885   1.873   4.101  0.4973 -0.1839  0.4913
  105MOL   H29833786   1.908   1.614   4.435 -2.3399 -1.2929 -1.2585
  105MOL   H29933787   1.882   1.775   4.394  0.2784  0.6809 -1.1455
  105MOL   H30033788   1.937   1.550   4.198 -1.6087  0.4914 -1.0654
  105MOL   H30133789   1.841   1.551   3.990  0.9193 -0.3010  0.1596
  105MOL   H30233790   1.760   1.662   3.803  0.3700 -0.7700 -0.3652
  105MOL   H30333791   1.756   1.914   3.789 -2.6966  0.2281  1.0915
  105MOL   H30433792   1.851   2.048   3.983  0.2309 -0.2123 -0.0378
  105MOL   H30533793   1.924   1.921   4.190 -0.7727 -0.5707  1.2850
  105MOL   C30633794   2.091   1.676   4.238  0.0560  0.6960 -0.4837
  105MOL   C30733795   2.167   1.631   4.108 -0.5022  0.3930  0.0118
  105MOL   C30833796   2.144   1.488   4.064  0.5061 -0.5895 -0.4510
  105MOL   C30933797   2.158   1.380   4.155 -0.3577 -0.1611  0.4680
  105MOL   C31033798   2.129   1.249   4.112 -0.4668 -0.2497  0.0650
  105MOL   C31133799   2.062   1.233   3.986 -0.3419 -0.7308 -0.4529
  105MOL   C31233800   2.046   1.336   3.894 -0.2819 -0.0752  0.3610
  105MOL   C31333801   2.087   1.468   3.929 -0.3752  0.1797  0.5898
  105MOL   H31433802   2.124   1.628   4.330 -0.5384  1.1950 -0.0121
  105MOL   H31533803   2.111   1.782   4.254  0.4499  0.9086 -2.2921
  105MOL   H31633804   2.272   1.657   4.122 -0.3268  0.0548 -0.6162
  105MOL   H31733805   2.204   1.405   4.250  0.8140  1.5155 -0.5096
  105MOL   H31833806   2.144   1.172   4.186  1.7307  1.8147  1.8466
  105MOL   H31933807   2.027   1.135   3.955 -1.8125 -0.1905 -0.5240
  105MOL   H32033808   1.990   1.324   3.802  0.1712 -1.0925  0.2174
  105MOL   H32133809   2.069   1.544   3.855 -1.7139 -0.2534  0.4657
  105MOL   H32233810   2.147   1.692   4.020 -3.0746 -0.8930 -0.3299
  106MOL     C133811   1.323   6.638   7.926 -0.7308 -0.5103  0.1229
  106MOL     C233812   1.214   6.582   8.020  1.1303 -0.3696  0.7565
  106MOL     C333813   1.286   6.502   0.018 -0.3991  1.0481 -0.0104
  106MOL     C433814   1.249   6.362   0.049  0.1410 -0.0707  0.4870
  106MOL     C533815   1.312   6.293   0.151  0.3280  0.6902 -0.7590
  106MOL     C633816   1.410   6.356   0.227 -0.7473 -0.3029 -0.3279
  106MOL     C733817   1.444   6.494   0.210 -0.3771  0.5608  0.0795
  106MOL     C833818   1.382   6.567   0.105 -0.3945  0.4736 -0.4386
  106MOL     H933819   1.384   6.562   7.878 -3.6403 -2.3311 -0.8779
  106MOL    H1033820   1.279   6.693   7.842 -0.0887 -0.4026 -0.1453
  106MOL    H1133821   1.145   6.513   7.972  0.4269  0.5588  0.4259
  106MOL    H1233822   1.167   6.313   8.112  0.6248 -0.5359  0.1565
  106MOL    H1333823   1.292   6.189   0.168 -0.2272  0.1769 -4.3012
  106MOL    H1433824   1.463   6.304   0.305 -1.5364 -0.6377 -0.0167
  106MOL    H1533825   1.516   6.551   0.267 -1.0243  2.8327 -1.2791
  106MOL    H1633826   1.424   6.665   0.087  0.2306  0.4801  1.0308
  106MOL    H1733827   1.391   6.707   7.974 -0.4479 -1.4869  1.1377
  106MOL    C1833828   1.146   6.701   8.079 -0.0124 -0.2651  1.1440
  106MOL    C1933829   1.031   6.763   7.994 -0.1690  0.5113 -0.3093
  106MOL    C2033830   0.916   6.668   7.979 -0.0131  0.8034  0.1776
  106MOL    C2133831   0.851   6.617   8.094  0.0309  0.0201 -0.6081
  106MOL    C2233832   0.736   6.539   8.076  0.4466 -0.1459  0.6241
  106MOL    C2333833   0.702   6.496   7.949 -0.2306 -0.0528  0.2225
  106MOL    C2433834   0.774   6.543   7.833  0.1941 -0.4161 -0.3092
  106MOL    C2533835   0.880   6.628   7.852  0.7662 -0.6312  0.3475
  106MOL    H2633836   1.216   6.780   8.103 -0.1524  0.4093 -0.5969
  106MOL    H2733837   1.100   6.680   0.061  1.1801  0.8190  1.9559
  106MOL    H2833838   1.084   6.784   7.900  1.8522 -1.9921  0.2075
  106MOL    H2933839   0.872   6.654   0.079 -0.6256  0.2799 -0.5587
  106MOL    H3033840   0.677   6.505   0.046 -1.6237  0.4333 -0.5472
  106MOL    H3133841   0.614   6.433   7.946  1.3048 -2.2486 -2.7390
  106MOL    H3233842   0.744   6.513   7.734 -2.0324 -0.9189  0.4945
  106MOL    H3333843   0.931   6.666   7.765 -0.7777  2.5802  0.7812
  106MOL    C3433844   0.992   6.900   8.054 -0.8599  0.1997 -0.0813
  106MOL    C3533845   0.864   6.964   7.987  0.2594 -0.6328  0.3525
  106MOL    C3633846   0.819   7.087   8.063  0.1841 -0.0039  0.7387
  106MOL    C3733847   0.731   7.064   0.059 -0.0908 -0.1178  0.1483
  106MOL    C3833848   0.696   7.168   0.143  0.0791  0.4034 -0.1327
  106MOL    C3933849   0.742   7.301   0.124 -0.0248  0.3518  0.6212
  106MOL    C4033850   0.825   7.325   0.007 -0.2132 -0.0545 -0.2557
  106MOL    C4133851   0.850   7.223   8.031  0.3500  0.0956  0.0108
  106MOL    H4233852   1.082   6.962   8.061 -1.4784  0.9763  1.2277
  106MOL    H4333853   0.973   6.879   0.045 -0.1491 -1.6146 -0.3021
  106MOL    H4433854   0.772   6.908   8.006  0.0408  0.3024  2.2208
  106MOL    H4533855   0.701   6.963   0.086  0.1959 -0.3867 -0.5258
  106MOL    H4633856   0.634   7.145   0.228 -1.9960  1.2361 -1.4048
  106MOL    H4733857   0.720   7.373   0.202  0.5888 -1.8590  2.8931
  106MOL    H4833858   0.876   7.420   8.111 -1.5345  0.6665 -0.4218
  106MOL    H4933859   0.904   7.245   7.940 -0.2700  0.2567 -0.3276
  106MOL    C5033860   0.879   6.991   7.836  0.4437 -0.0953  0.1975
  106MOL    C5133861   0.747   7.011   7.758 -0.6641 -0.4301 -0.2160
  106MOL    C5233862   0.795   7.078   7.632 -0.2390  0.0332 -0.2191
  106MOL    C5333863   0.753   7.209   7.598 -0.1880  0.3827 -0.2121
  106MOL    C5433864   0.790   7.269   7.474  0.2344 -0.0546 -0.2132
  106MOL    C5533865   0.874   7.197   7.387  0.2882 -0.4535 -0.4563
  106MOL    C5633866   0.925   7.069   7.422  0.6763  0.1292 -0.1385
  106MOL    C5733867   0.885   7.012   7.549 -0.4372 -0.6641  0.3967
  106MOL    H5833868   0.936   6.907   7.796  1.6468  0.7297  0.1546
  106MOL    H5933869   0.948   7.074   7.820  0.4769 -0.3819 -1.2822
  106MOL    H6033870   0.684   7.084   7.810  0.3111  0.5165 -0.3446
  106MOL    H6133871   0.679   7.261   7.658 -0.3951  0.5459 -0.6012
  106MOL    H6233872   0.754   7.365   7.439 -1.0335 -1.1009 -1.8331
  106MOL    H6333873   0.900   7.237   7.291  1.7994 -1.8426 -0.6359
  106MOL    H6433874   0.997   7.018   7.360  1.9034  0.5301  0.9308
  106MOL    H6533875   0.924   6.917   7.582 -3.5713 -2.2945 -0.3411
  106MOL    C6633876   0.669   6.876   7.741  0.0001 -0.1367 -0.8133
  106MOL    C6733877   0.576   6.865   7.619 -0.3789 -0.6832 -0.3852
  106MOL    C6833878   0.528   6.722   7.607 -0.3950  0.2596  0.0329
  106MOL    C6933879   0.415   6.672   7.677  0.9462  0.5545 -0.1435
  106MOL    C7033880   0.377   6.540   7.661 -0.2615  0.3634 -0.5322
  106MOL    C7133881   0.449   6.454   7.568  0.2564  0.0935 -0.7816
  106MOL    C7233882   0.557   6.510   7.497 -0.4479 -0.0383  0.0132
  106MOL    C7333883   0.595   6.642   7.515 -0.3172 -0.0319 -0.0559
  106MOL    H7433884   0.611   6.853   7.830 -1.4886  3.2276 -0.8286
  106MOL    H7533885   0.744   6.799   7.721 -0.6392 -0.7564 -0.8517
  106MOL    H7633886   0.649   6.889   7.542 -0.1138 -2.0046 -0.5636
  106MOL    H7733887   0.363   6.739   7.744  1.9552  0.6541  0.5486
  106MOL    H7833888   0.302   6.495   7.724  0.3025 -2.2496 -1.6476
  106MOL    H7933889   0.427   6.348   7.566  0.3275  0.0328  1.0284
  106MOL    H8033890   0.623   6.447   7.439 -0.0795  0.0172  0.3651
  106MOL    H8133891   0.678   6.672   7.452  1.0098 -0.1356  1.6081
  106MOL    C8233892   0.464   6.978   7.611 -0.0514  0.2152  0.2999
  106MOL    C8333893   0.429   6.990   7.461 -0.4482  0.3891  0.1122
  106MOL    C8433894   0.276   7.003   7.451  0.3380 -0.4789  0.4910
  106MOL    C8533895   0.194   6.887   7.435 -0.6392  0.4831  0.5282
  106MOL    C8633896   0.059   6.903   7.443  0.1655  0.4599 -0.0817
  106MOL    C8733897   0.008   7.029   7.462  0.2690 -0.2734  0.3016
  106MOL    C8833898   0.090   7.146   7.453 -0.2682 -0.4047 -0.2375
  106MOL    C8933899   0.229   7.132   7.454  0.1836  0.2829 -0.2290
  106MOL    H9033900   0.495   7.080   7.634 -2.7590  0.7868  1.7651
  106MOL    H9133901   0.369   6.954   7.659 -0.0298 -1.6202 -0.5241
  106MOL    H9233902   0.455   6.898   7.408 -0.4968  0.1061  0.5786
  106MOL    H9333903   0.245   6.793   7.422 -1.4181  0.2092 -0.5613
  106MOL    H9433904   8.110   6.818   7.426 -1.4219  1.3503  1.2632
  106MOL    H9533905   8.016   7.041   7.459  0.4020  1.2922  1.2070
  106MOL    H9633906   0.049   7.246   7.457  1.1190  0.1481  0.2978
  106MOL    H9733907   0.294   7.218   7.459  1.5601 -0.8659  2.9201
  106MOL    C9833908   0.519   7.082   7.381 -0.3962  0.3921 -0.1948
  106MOL    C9933909   0.478   7.108   7.231 -0.0812  0.0889 -0.7329
  106MOL   C10033910   0.448   7.260   7.207 -0.0553 -0.0530 -0.1509
  106MOL   C10133911   0.553   7.354   7.215 -0.5211  0.5886  0.0613
  106MOL   C10233912   0.540   7.487   7.180 -0.3569  0.1018  0.8564
  106MOL   C10333913   0.411   7.536   7.154  1.1796 -0.1016 -0.1086
  106MOL   C10433914   0.302   7.453   7.148 -0.4657  0.6104  0.7076
  106MOL   C10533915   0.325   7.316   7.165  0.3600 -0.8867 -0.0172
  106MOL   H10633916   0.621   7.046   7.392  0.2804  1.7153 -1.9540
  106MOL   H10733917   0.520   7.174   7.440  1.3550  0.6466 -0.6010
  106MOL   H10833918   0.384   7.060   7.201  0.3995 -2.6043  1.8744
  106MOL   H10933919   0.644   7.313   7.255 -0.3138 -1.6277 -2.5322
  106MOL   H11033920   0.624   7.554   7.170 -0.6404  0.1929 -1.1892
  106MOL   H11133921   0.397   7.637   7.117  1.3660 -0.6447 -1.6770
  106MOL   H11233922   0.205   7.489   7.116 -2.3541 -4.4043  0.3994
  106MOL   H11333923   0.243   7.247   7.153 -0.6101  0.3398 -0.5290
  106MOL   C11433924   0.600   7.058   7.139  0.5668  0.2585 -0.6609
  106MOL   C11533925   0.608   6.913   7.104 -0.3308  1.2957 -0.5434
  106MOL   C11633926   0.475   6.858   7.049 -0.9183 -0.2304  0.4349
  106MOL   C11733927   0.431   6.901   6.927  0.4677 -0.1978 -0.1883
  106MOL   C11833928   0.308   6.855   6.868 -0.2011  0.2246 -0.0015
  106MOL   C11933929   0.235   6.760   6.935 -0.9853  0.8343  0.7266
  106MOL   C12033930   0.286   6.716   7.053 -0.3400 -0.5055 -0.2098
  106MOL   C12133931   0.397   6.765   7.114  0.3173  0.3095  0.1017
  106MOL   H12233932   0.695   7.100   7.173  0.8385 -0.4226 -0.5744
  106MOL   H12333933   0.600   7.103   7.039 -0.8467  0.8148 -0.4251
  106MOL   H12433934   0.621   6.858   7.197 -2.2000 -0.6076 -1.3649
  106MOL   H12533935   0.487   6.979   6.877 -2.4230  0.4855 -2.4907
  106MOL   H12633936   0.276   6.893   6.772 -0.4202 -0.7148 -0.3110
  106MOL   H12733937   0.156   6.717   6.875  0.1486  1.7883 -1.5258
  106MOL   H12833938   0.242   6.631   7.103  0.7188 -0.6145  0.5555
  106MOL   H12933939   0.429   6.728   7.210  2.1475 -0.9199 -0.9377
  106MOL   C13033940   0.726   6.888   7.015 -0.4112  0.1709  0.3693
  106MOL   C13133941   0.787   6.746   7.030 -0.2157 -0.1280 -0.4127
  106MOL   C13233942   0.869   6.709   6.905 -0.7485 -0.2302  0.3697
  106MOL   C13333943   0.802   6.638   6.800  0.4660 -0.5701 -0.2666
  106MOL   C13433944   0.866   6.614   6.678  0.1360  0.6765  0.1803
  106MOL   C13533945   1.002   6.655   6.663  0.1827  0.3258 -0.5247
  106MOL   C13633946   1.071   6.719   6.767  0.4887 -0.3293  0.4380
  106MOL   C13733947   1.002   6.756   6.885 -0.6297  0.6503 -0.2783
  106MOL   H13833948   0.807   6.957   7.041 -1.6184  1.4628  0.7268
  106MOL   H13933949   0.709   6.900   6.908  3.3195 -0.6348 -0.3991
  106MOL   H14033950   0.702   6.677   7.033 -0.8880  0.7502  0.7395
  106MOL   H14133951   0.698   6.612   6.817  0.0582  1.8211  1.1714
  106MOL   H14233952   0.809   6.552   6.610 -0.4937  1.6348 -0.1687
  106MOL   H14333953   1.049   6.622   6.571  2.3368  1.5581  0.1098
  106MOL   H14433954   1.173   6.750   6.753  1.0044 -1.8422  0.7503
  106MOL   H14533955   1.058   6.813   6.958 -1.1865 -2.4537  2.6911
  106MOL   C14633956   0.877   6.724   7.153 -0.6443 -0.6185  0.7882
  106MOL   C14733957   0.940   6.580   7.154 -0.6385  0.2015  0.0234
  106MOL   C14833958   1.078   6.589   7.219  0.0410 -0.5047  0.1233
  106MOL   C14933959   1.195   6.594   7.145  0.4781  0.5487  0.5172
  106MOL   C15033960   1.319   6.620   7.205  0.2803 -0.2427  0.6207
  106MOL   C15133961   1.323   6.638   7.347 -0.0183 -0.5087  0.0064
  106MOL   C15233962   1.202   6.619   7.425 -0.6048 -0.3451 -0.2992
  106MOL   C15333963   1.083   6.597   7.358 -0.0132  0.1093 -0.2747
  106MOL   H15433964   0.820   6.754   7.241 -1.7473  0.4725 -0.2637
  106MOL   H15533965   0.952   6.801   7.136 -1.7075  0.2317 -0.1785
  106MOL   H15633966   0.961   6.541   7.055  2.0041  0.4571  0.4517
  106MOL   H15733967   1.194   6.591   7.037  1.0673 -0.8783  0.5422
  106MOL   H15833968   1.409   6.616   7.145 -0.7342 -1.5852 -0.8414
  106MOL   H15933969   1.424   6.656   7.382 -0.4751 -1.7066  2.0673
  106MOL   H16033970   1.207   6.616   7.533 -3.2975  0.4111 -0.1208
  106MOL   H16133971   0.995   6.585   7.420 -0.7227  0.1210 -1.2611
  106MOL   C16233972   0.844   6.473   7.212  0.2863 -0.8156  0.2570
  106MOL   C16333973   0.893   6.325   7.203 -0.2659 -0.2252  0.6411
  106MOL   C16433974   0.798   6.234   7.286 -0.4824  0.2060  0.5497
  106MOL   C16533975   0.846   6.162   7.403 -0.7237  0.5059 -0.0253
  106MOL   C16633976   0.769   6.062   7.463 -0.0031 -0.4929 -0.6371
  106MOL   C16733977   0.642   6.033   7.405 -0.2133 -0.7266 -0.8997
  106MOL   C16833978   0.588   6.114   7.300  0.1139 -0.2378  0.4844
  106MOL   C16933979   0.667   6.209   7.245  0.1163  0.3698  0.2010
  106MOL   H17033980   0.754   6.485   7.152  0.8334 -1.9264 -0.8355
  106MOL   H17133981   0.821   6.501   7.314  1.9609  2.0839 -0.1068
  106MOL   H17233982   0.991   6.314   7.250  1.0004  0.9518 -1.6290
  106MOL   H17333983   0.949   6.175   7.434 -0.5821 -0.9676  0.1356
  106MOL   H17433984   0.809   6.004   7.545  1.2305  1.4493  0.1461
  106MOL   H17533985   0.573   5.961   7.447 -0.5282  0.4467  0.6432
  106MOL   H17633986   0.488   6.099   7.263 -0.1319  3.5135 -0.4987
  106MOL   H17733987   0.627   6.262   7.160  0.4709  0.1912 -0.0741
  106MOL   C17833988   0.907   6.266   7.060 -0.0669 -0.3489  0.0197
  106MOL   C17933989   1.051   6.267   7.012  0.4073  0.1053 -0.0921
  106MOL   C18033990   1.129   6.148   7.076  0.7514 -0.2325  0.3118
  106MOL   C18133991   1.104   6.014   7.035 -0.5868 -0.0943  0.0489
  106MOL   C18233992   1.156   5.904   7.110  0.5493 -0.3660  0.3753
  106MOL   C18333993   1.252   5.933   7.208  0.7534  0.6081 -0.7666
  106MOL   C18433994   1.288   6.061   7.242 -0.5803 -1.0623  0.8226
  106MOL   C18533995   1.225   6.166   7.179  0.3992  0.6943 -0.2152
  106MOL   H18633996   0.849   6.333   6.996 -2.7214 -1.9610  0.6689
  106MOL   H18733997   0.854   6.173   7.042  1.7911 -1.2935 -0.5999
  106MOL   H18833998   1.103   6.357   7.045  1.4682 -0.4549 -0.2092
  106MOL   H18933999   1.033   5.993   6.957 -1.6217  3.7275 -0.1569
  106MOL   H19034000   1.127   5.802   7.087  1.2279 -0.7230  1.0758
  106MOL   H19134001   1.300   5.855   7.266  1.6991 -0.6501 -3.1852
  106MOL   H19234002   1.360   6.075   7.321 -0.9084  1.8842  0.6535
  106MOL   H19334003   1.249   6.267   7.206 -1.5129  0.9211  0.6823
  106MOL   C19434004   1.056   6.277   6.859 -0.1878 -0.3361 -0.2475
  106MOL   C19534005   1.200   6.229   6.795  0.3459 -0.2381 -0.5675
  106MOL   C19634006   1.192   6.219   6.639  0.0962  0.5247 -0.1955
  106MOL   C19734007   1.217   6.334   6.563  0.6984  0.1252  0.2361
  106MOL   C19834008   1.240   6.335   6.422  0.6514 -0.0235 -0.2498
  106MOL   C19934009   1.225   6.211   6.352 -0.3407  0.1537 -0.1120
  106MOL   C20034010   1.195   6.092   6.422 -0.0378  0.3492 -0.0869
  106MOL   C20134011   1.180   6.099   6.563 -1.0708 -0.1246  0.5857
  106MOL   H20234012   1.036   6.378   6.823  0.0689  0.0279  0.6243
  106MOL   H20334013   0.980   6.208   6.823 -1.0128  1.2739 -1.6778
  106MOL   H20434014   1.206   6.123   6.819  3.5958  0.3619  1.5823
  106MOL   H20534015   1.222   6.434   6.604 -0.8010 -0.0001  0.7520
  106MOL   H20634016   1.264   6.428   6.373 -1.9973  0.7067 -0.2263
  106MOL   H20734017   1.243   6.210   6.246 -1.0253 -0.5758 -0.2232
  106MOL   H20834018   1.169   5.998   6.376 -0.4942  0.9574 -1.0744
  106MOL   H20934019   1.162   6.005   6.614  0.1495  0.0857  1.4532
  106MOL   C21034020   1.320   6.316   6.848 -0.0944  0.1144  0.2577
  106MOL   C21134021   1.464   6.267   6.837 -0.3939 -0.1175  0.1441
  106MOL   C21234022   1.560   6.376   6.883  0.6023  0.2019  0.0788
  106MOL   C21334023   1.638   6.445   6.793 -0.1768 -0.2536  0.3240
  106MOL   C21434024   1.737   6.537   6.837  0.4320  0.4700 -0.6885
  106MOL   C21534025   1.741   6.583   6.971  0.0662  0.7014  0.3168
  106MOL   C21634026   1.655   6.511   7.058 -0.1769 -0.1008  0.1387
  106MOL   C21734027   1.567   6.409   7.017  0.6944  0.6472 -0.9632
  106MOL   H21834028   1.310   6.328   6.956  0.9624 -0.5751  0.4495
  106MOL   H21934029   1.313   6.413   6.799 -2.6111 -0.1944 -0.0386
  106MOL   H22034030   1.482   6.252   6.730 -2.2854  0.9838 -0.3740
  106MOL   H22134031   1.633   6.421   6.688  1.6314 -0.9813  0.3895
  106MOL   H22234032   1.799   6.593   6.769  0.9646  0.3074 -0.3409
  106MOL   H22334033   1.806   6.662   7.005  2.4206 -0.5400 -1.0431
  106MOL   H22434034   1.640   6.550   7.158  1.1571 -0.0303  0.3207
  106MOL   H22534035   1.508   6.359   7.092  1.9508 -0.3595 -0.6210
  106MOL   C22634036   1.486   6.132   6.907 -0.8301  0.6298 -0.0867
  106MOL   C22734037   1.623   6.065   6.886 -0.6176  0.2225  0.3958
  106MOL   C22834038   1.703   6.051   7.019  0.8952 -0.0896 -0.3124
  106MOL   C22934039   1.825   6.125   7.031  0.3163  0.3332  0.2378
  106MOL   C23034040   1.893   6.120   7.150 -0.0663 -0.1705  0.3190
  106MOL   C23134041   1.847   6.049   7.258  0.2370  0.6461 -0.2052
  106MOL   C23234042   1.731   5.968   7.244  0.1543  0.1549 -0.3567
  106MOL   C23334043   1.648   5.977   7.127 -0.7380  0.3239 -0.2592
  106MOL   H23434044   1.404   6.063   6.887 -0.2853  0.0114 -0.2329
  106MOL   H23534045   1.478   6.162   7.011 -0.8834  0.4672 -0.0449
  106MOL   H23634046   1.665   6.137   6.816  0.4731 -0.2412  0.5737
  106MOL   H23734047   1.871   6.170   6.944  1.9475 -0.0537  0.8738
  106MOL   H23834048   1.994   6.158   7.150 -0.4879  1.2533 -4.3850
  106MOL   H23934049   1.901   6.063   7.351  4.1489 -0.6872 -2.1721
  106MOL   H24034050   1.690   5.913   7.327 -0.3111 -0.4890 -1.0018
  106MOL   H24134051   1.561   5.917   7.103  0.4543 -0.9716 -1.4932
  106MOL   C24234052   1.604   5.924   6.827  0.6819 -0.3995 -1.1951
  106MOL   C24334053   1.551   5.915   6.686  0.6833  0.2292  0.4709
  106MOL   C24434054   1.646   5.988   6.591 -0.2524 -0.5243  0.4215
  106MOL   C24534055   1.601   6.102   6.516 -0.8249 -0.3495  0.0714
  106MOL   C24634056   1.678   6.148   6.410 -0.3323  0.3399  0.3101
  106MOL   C24734057   1.811   6.103   6.387 -0.0758  0.1507  0.7271
  106MOL   C24834058   1.866   5.999   6.469 -0.7655 -0.4055 -0.1151
  106MOL   C24934059   1.780   5.936   6.569 -0.4674 -0.9218  0.4635
  106MOL   H25034060   1.548   5.861   6.895  1.0918  0.1642 -0.3187
  106MOL   H25134061   1.703   5.878   6.822  0.6189 -0.8446  1.0014
  106MOL   H25234062   1.453   5.963   6.676  0.7148  0.1750 -0.1037
  106MOL   H25334063   1.507   6.150   6.540 -1.2755 -0.2208 -1.8327
  106MOL   H25434064   1.637   6.227   6.348 -0.0814 -0.1286 -0.4588
  106MOL   H25534065   1.877   6.148   6.315  0.0930 -0.7188  0.3198
  106MOL   H25634066   1.969   5.974   6.447 -0.3417  0.6953  0.5792
  106MOL   H25734067   1.821   5.852   6.622  2.5095 -0.9227 -1.6968
  106MOL   C25834068   1.532   5.765   6.648 -0.1535 -0.1161 -0.6202
  106MOL   C25934069   1.423   5.728   6.537  0.7447  0.6463  0.9452
  106MOL   C26034070   1.469   5.749   6.388  0.2379 -0.2927 -0.9598
  106MOL   C26134071   1.600   5.702   6.349  0.1606 -0.9843 -1.0777
  106MOL   C26234072   1.637   5.731   6.214  0.5691 -0.0229 -0.0630
  106MOL   C26334073   1.552   5.796   6.121 -0.4044 -0.2034  0.7428
  106MOL   C26434074   1.426   5.838   6.166 -0.2302  0.3734 -0.1086
  106MOL   C26534075   1.382   5.807   6.296  0.2022  0.0637  0.5010
  106MOL   H26634076   1.483   5.722   6.735 -1.4485  0.3597 -1.0893
  106MOL   H26734077   1.625   5.711   6.633  1.6897  2.0856  2.4204
  106MOL   H26834078   1.340   5.795   6.559  0.4507  0.8757 -0.8369
  106MOL   H26934079   1.680   5.656   6.406 -0.7424  1.0249  1.9064
  106MOL   H27034080   1.734   5.697   6.180  0.9111  0.5241  0.3568
  106MOL   H27134081   1.573   5.814   6.017  0.8686 -0.9766  0.8583
  106MOL   H27234082   1.355   5.876   6.094 -0.0972 -1.8864 -1.4685
  106MOL   H27334083   1.282   5.836   6.321 -0.1769  0.1866 -1.0799
  106MOL   C27434084   1.365   5.589   6.553 -0.0618  0.1454 -0.6691
  106MOL   C27534085   1.245   5.585   6.653  0.1769  0.0304  1.6429
  106MOL   C27634086   1.123   5.646   6.588  0.7927  0.2454 -0.5088
  106MOL   C27734087   1.063   5.580   6.483 -0.1148 -0.1212  0.0586
  106MOL   C27834088   0.941   5.634   6.421 -0.1701 -0.4738 -0.3981
  106MOL   C27934089   0.896   5.756   6.475 -0.1945  0.1601 -0.1876
  106MOL   C28034090   0.957   5.821   6.583 -0.1450  0.0692  0.8135
  106MOL   C28134091   1.068   5.762   6.644  0.0018  0.0303 -0.2226
  106MOL   H28234092   1.441   5.516   6.582 -1.3071 -0.6716  0.6589
  106MOL   H28334093   1.333   5.556   6.454  1.7403 -2.2181 -0.5053
  106MOL   H28434094   1.269   5.645   6.741 -1.2024 -0.9686  2.7423
  106MOL   H28534095   1.108   5.494   6.437  5.0672  1.8937  0.9278
  106MOL   H28634096   0.894   5.585   6.338 -1.4147  0.4339 -0.2301
  106MOL   H28734097   0.803   5.792   6.434 -0.3818  0.5714  0.5847
  106MOL   H28834098   0.917   5.913   6.624  0.0839  0.1518  0.8486
  106MOL   H28934099   1.123   5.811   6.723 -0.3277  0.6674 -0.3886
  106MOL   C29034100   1.209   5.452   6.709 -0.0118 -0.1332 -0.0869
  106MOL   C29134101   1.316   5.395   6.805 -1.3101 -0.2227  0.2527
  106MOL   C29234102   1.352   5.487   6.929  0.1640 -0.1618  0.5790
  106MOL   C29334103   1.261   5.504   7.036  0.2663  0.1456 -0.4679
  106MOL   C29434104   1.301   5.573   7.147  0.2656 -0.9569  0.2592
  106MOL   C29534105   1.429   5.632   7.156 -0.5817  0.1957 -0.2829
  106MOL   C29634106   1.512   5.630   7.040  0.4574  0.2934 -0.0564
  106MOL   C29734107   1.475   5.558   6.926  0.7584 -0.1066 -0.1351
  106MOL   H29834108   1.206   5.381   6.627 -2.2495 -0.4959  0.2869
  106MOL   H29934109   1.114   5.446   6.762  1.6200 -3.1174  2.7023
  106MOL   H30034110   1.409   5.384   6.750 -0.9340  0.2634  0.7877
  106MOL   H30134111   1.166   5.453   7.037  0.4645 -0.2103  0.7701
  106MOL   H30234112   1.244   5.573   7.238  1.5571  0.2833  1.0949
  106MOL   H30334113   1.478   5.670   7.245  0.6805 -1.0593 -0.4066
  106MOL   H30434114   1.609   5.678   7.046  1.8427 -2.3777 -0.0655
  106MOL   H30534115   1.540   5.552   6.840 -1.4835  0.9677 -1.9804
  106MOL   C30634116   1.290   5.256   6.856 -0.0305 -0.5228  0.5912
  106MOL   C30734117   1.345   5.133   6.770  0.0815 -0.8852 -0.5023
  106MOL   C30834118   1.304   5.003   6.829  0.2761  0.0572  0.7520
  106MOL   C30934119   1.325   4.982   6.971  0.4445 -0.2830 -0.2276
  106MOL   C31034120   1.323   4.850   7.020 -0.0509 -0.8504  1.0186
  106MOL   C31134121   1.274   4.744   6.943  0.2538  0.2285 -0.5410
  106MOL   C31234122   1.241   4.759   6.811  0.1588 -0.0813 -0.0700
  106MOL   C31334123   1.257   4.887   6.751 -0.6146  0.2359  0.4460
  106MOL   H31434124   1.183   5.249   6.871 -0.2526 -0.2352 -0.8185
  106MOL   H31534125   1.325   5.248   6.959  0.7408  0.8478  0.4471
  106MOL   H31634126   1.454   5.132   6.766  0.1324 -0.4872  0.4027
  106MOL   H31734127   1.352   5.062   7.039 -1.3307 -0.1819  0.3839
  106MOL   H31834128   1.363   4.842   7.120 -1.2800  1.7024  1.7696
  106MOL   H31934129   1.269   4.645   6.987  0.5562 -0.0206 -1.0682
  106MOL   H32034130   1.212   4.674   6.752  0.7447  0.8589 -1.7569
  106MOL   H32134131   1.250   4.906   6.645  0.3090  0.5895  0.4406
  106MOL   H32234132   1.320   5.145   6.665  0.0737 -0.2765 -0.4315
  107MOL     C134133   0.442   2.065   6.397  0.3722 -0.1047  0.0632
  107MOL     C234134   0.565   2.108   6.480 -0.2711  0.1399  0.2615
  107MOL     C334135   0.669   2.162   6.387  0.0211 -0.6274  0.4136
  107MOL     C434136   0.779   2.082   6.365  0.7873 -0.0000  0.4618
  107MOL     C534137   0.891   2.139   6.304 -0.4681 -0.1301  0.1091
  107MOL     C634138   0.892   2.269   6.256 -0.4948  0.8722  0.2607
  107MOL     C734139   0.773   2.347   6.270  0.4558  0.1359 -0.1680
  107MOL     C834140   0.661   2.290   6.330  0.0174  0.7241  0.9765
  107MOL     H934141   0.364   2.024   6.460  0.8828  0.0603  0.8063
  107MOL    H1034142   0.397   2.148   6.341  2.5407  1.0577 -0.0401
  107MOL    H1134143   0.604   2.017   6.527 -1.6822 -0.8186 -0.3976
  107MOL    H1234144   0.780   1.979   6.397 -0.3734 -0.2572 -0.3030
  107MOL    H1334145   0.981   2.084   6.278  0.2210  0.2200  1.7084
  107MOL    H1434146   0.986   2.301   6.213 -0.4810 -0.4730 -0.7622
  107MOL    H1534147   0.761   2.446   6.231  2.3730  0.1099 -0.8640
  107MOL    H1634148   0.572   2.342   6.362  1.2309  2.9809  0.7271
  107MOL    H1734149   0.463   2.002   6.310  0.1379  0.6783 -0.5742
  107MOL    C1834150   0.527   2.210   6.586  0.2886  0.0262 -0.2913
  107MOL    C1934151   0.645   2.296   6.656 -0.3905 -0.1709  0.1871
  107MOL    C2034152   0.577   2.415   6.732 -0.2233 -0.3166  0.5308
  107MOL    C2134153   0.477   2.381   6.824  0.8232  0.3896 -0.1466
  107MOL    C2234154   0.414   2.485   6.901 -0.2996  0.7279  0.3756
  107MOL    C2334155   0.454   2.619   6.886 -0.3198 -0.2602  0.0493
  107MOL    C2434156   0.552   2.650   6.795 -0.4330 -0.1383 -0.4719
  107MOL    C2534157   0.618   2.546   6.726  0.0406 -0.1261  0.3507
  107MOL    H2634158   0.462   2.165   6.661  0.7164 -0.2020 -0.0605
  107MOL    H2734159   0.463   2.287   6.541 -0.1692 -0.5281 -0.5945
  107MOL    H2834160   0.714   2.346   6.589  0.1230 -0.8164  0.2383
  107MOL    H2934161   0.456   2.276   6.840  0.2877  0.9222  3.0539
  107MOL    H3034162   0.329   2.457   6.963 -0.1803  2.1202  1.1830
  107MOL    H3134163   0.397   2.696   6.936  0.2526 -1.0203  1.9391
  107MOL    H3234164   0.579   2.751   6.768 -0.7409  0.1022  0.1163
  107MOL    H3334165   0.689   2.578   6.650  0.0977 -1.0797 -0.0170
  107MOL    C3434166   0.733   2.201   6.752  0.5202 -0.2794  0.3983
  107MOL    C3534167   0.868   2.262   6.801  0.8043 -0.1429  0.0596
  107MOL    C3634168   0.949   2.160   6.879 -0.1108  0.3606 -0.9071
  107MOL    C3734169   1.017   2.054   6.805  0.1660  0.5605  0.7090
  107MOL    C3834170   1.090   1.960   6.877 -0.1962  0.2677  0.6008
  107MOL    C3934171   1.104   1.965   7.016  0.2821  0.0747 -0.4825
  107MOL    C4034172   1.047   2.075   7.083 -0.2559 -0.2216  0.1299
  107MOL    C4134173   0.969   2.172   7.017  0.6912  0.3061  0.0361
  107MOL    H4234174   0.749   2.099   6.718  1.1049 -0.9131  2.4582
  107MOL    H4334175   0.672   2.180   6.840  1.0089 -2.8691  0.1480
  107MOL    H4434176   0.837   2.340   6.871  0.7985 -1.2428  1.2972
  107MOL    H4534177   1.024   2.043   6.698  2.7812 -2.1684  1.0934
  107MOL    H4634178   1.142   1.881   6.825  0.0500  0.6746  0.2208
  107MOL    H4734179   1.172   1.904   7.074  0.8040  0.5541 -0.5863
  107MOL    H4834180   1.048   2.079   7.191 -1.2103 -3.8100  0.3477
  107MOL    H4934181   0.926   2.257   7.068  2.2094  1.5781 -0.7597
  107MOL    C5034182   0.959   2.332   6.691 -0.8921 -0.6361 -0.7044
  107MOL    C5134183   1.102   2.383   6.730 -0.4297  0.1023  0.3658
  107MOL    C5234184   1.176   2.396   6.594  0.2483 -1.0743  0.1089
  107MOL    C5334185   1.126   2.482   6.494  0.0854  0.2148 -0.5449
  107MOL    C5434186   1.190   2.491   6.368 -0.5707  0.0676 -0.8356
  107MOL    C5534187   1.314   2.422   6.348  0.6350  0.4329 -0.1596
  107MOL    C5634188   1.372   2.341   6.451 -0.4081 -0.7155 -0.6363
  107MOL    C5734189   1.298   2.330   6.573  0.5034  0.2937  0.5853
  107MOL    H5834190   0.904   2.420   6.659 -0.2732  0.0264  0.0520
  107MOL    H5934191   0.973   2.261   6.609  0.2630  0.7778 -1.7476
  107MOL    H6034192   1.144   2.296   6.781  1.6045  1.1420  0.5076
  107MOL    H6134193   1.035   2.537   6.511 -0.2405 -0.7395  0.8602
  107MOL    H6234194   1.158   2.558   6.289  3.0948  1.9462 -0.8401
  107MOL    H6334195   1.361   2.431   6.252  0.4933  0.4076 -0.2307
  107MOL    H6434196   1.470   2.296   6.445 -0.4023 -0.6944 -0.6974
  107MOL    H6534197   1.344   2.271   6.652 -1.5402 -1.0312  0.8068
  107MOL    C6634198   1.095   2.512   6.813 -0.2578 -0.6783 -0.4811
  107MOL    C6734199   1.212   2.546   6.899 -0.4129  0.5884 -0.9631
  107MOL    C6834200   1.225   2.695   6.907  0.6686 -0.2582 -0.0359
  107MOL    C6934201   1.330   2.754   6.834  0.3982  0.6517 -0.7890
  107MOL    C7034202   1.352   2.891   6.827  1.4060 -0.2135 -0.1994
  107MOL    C7134203   1.264   2.980   6.899 -0.3550  0.5938  0.0405
  107MOL    C7234204   1.161   2.922   6.974  0.0425  1.0435 -0.1925
  107MOL    C7334205   1.138   2.783   6.979  0.6632  0.4243  0.0106
  107MOL    H7434206   1.008   2.497   6.877  0.9245 -2.3794  0.7834
  107MOL    H7534207   1.070   2.591   6.743  0.5066 -2.2866 -2.6226
  107MOL    H7634208   1.303   2.505   6.857 -1.5463 -1.0168 -1.9031
  107MOL    H7734209   1.383   2.691   6.763  1.9490 -0.1672  1.0674
  107MOL    H7834210   1.433   2.927   6.766  0.1222 -0.0254 -1.8065
  107MOL    H7934211   1.282   3.085   6.888  0.2157  0.8161  2.7037
  107MOL    H8034212   1.092   2.984   7.029  0.6739  0.0826  1.7449
  107MOL    H8134213   1.048   2.753   7.031  1.5451 -1.4090  0.5139
  107MOL    C8234214   1.198   2.481   7.043 -0.5801 -0.4015  0.3685
  107MOL    C8334215   1.321   2.518   7.130  0.1074  0.3285 -1.2967
  107MOL    C8434216   1.298   2.502   7.285 -0.7191 -0.1599 -0.1426
  107MOL    C8534217   1.353   2.585   7.383 -0.5441  0.2982 -0.5237
  107MOL    C8634218   1.325   2.565   7.517 -0.1475 -0.7110 -0.4650
  107MOL    C8734219   1.236   2.467   7.559 -0.8339  0.4011 -0.5078
  107MOL    C8834220   1.185   2.380   7.464 -0.7087 -0.0725  0.2973
  107MOL    C8934221   1.219   2.395   7.328 -0.0499  0.4032 -0.3289
  107MOL    H9034222   1.197   2.373   7.035  1.4426 -0.3596 -0.7595
  107MOL    H9134223   1.099   2.499   7.084  0.2347 -0.6120  2.5244
  107MOL    H9234224   1.344   2.622   7.109  0.6044  0.3240 -0.7763
  107MOL    H9334225   1.411   2.673   7.360 -0.5568  0.7588  1.1251
  107MOL    H9434226   1.372   2.635   7.585 -0.8432 -0.7653  0.0730
  107MOL    H9534227   1.214   2.452   7.664 -0.6848 -0.0026 -0.5300
  107MOL    H9634228   1.123   2.296   7.489 -0.2179 -0.7461 -0.6827
  107MOL    H9734229   1.177   2.321   7.262  1.1594 -2.0099  1.5009
  107MOL    C9834230   1.453   2.464   7.079  0.0812  0.3671 -0.1247
  107MOL    C9934231   1.487   2.315   7.125  0.4690  0.1324 -0.4392
  107MOL   C10034232   1.549   2.237   7.012 -0.1661 -0.3119  0.1540
  107MOL   C10134233   1.688   2.247   6.985 -0.3959  0.5086  0.0573
  107MOL   C10234234   1.742   2.196   6.868 -0.4457 -0.0453  0.0928
  107MOL   C10334235   1.655   2.116   6.784  0.1586  0.0065 -0.1893
  107MOL   C10434236   1.523   2.095   6.812  0.6378  0.1760  0.3002
  107MOL   C10534237   1.464   2.155   6.926  1.0732 -0.5359  0.0959
  107MOL   H10634238   1.530   2.528   7.123  0.9287 -2.1269  2.2244
  107MOL   H10734239   1.467   2.462   6.971 -1.6514 -3.1131 -0.3640
  107MOL   H10834240   1.389   2.269   7.140 -0.2304  1.6856 -0.1273
  107MOL   H10934241   1.755   2.300   7.052  1.0309 -0.5067 -0.5555
  107MOL   H11034242   1.846   2.208   6.840 -0.1881 -1.2975  0.4696
  107MOL   H11134243   1.701   2.082   6.693 -3.9755 -1.9708 -1.6702
  107MOL   H11234244   1.473   2.039   6.735  1.9071 -1.0902  0.3789
  107MOL   H11334245   1.357   2.155   6.936  0.8329 -1.6013 -2.1186
  107MOL   C11434246   1.570   2.309   7.261  0.7706  0.0983 -0.1402
  107MOL   C11534247   1.576   2.167   7.324 -0.2023  0.9320 -0.7970
  107MOL   C11634248   1.661   2.175   7.451 -0.2520  0.1332  0.0915
  107MOL   C11734249   1.611   2.217   7.574 -0.3322 -0.2547 -0.3844
  107MOL   C11834250   1.692   2.210   7.692  0.0695 -0.1929 -0.6378
  107MOL   C11934251   1.825   2.173   7.685  0.1004  0.2701 -0.6377
  107MOL   C12034252   1.874   2.127   7.565  0.1100  0.1058  0.0945
  107MOL   C12134253   1.795   2.127   7.449  0.8551  0.0530  0.4989
  107MOL   H12234254   1.533   2.382   7.331  1.8767 -0.3382  0.9245
  107MOL   H12334255   1.675   2.339   7.255  1.3188 -1.5127  0.9321
  107MOL   H12434256   1.637   2.105   7.258  1.6631  0.3960  1.3652
  107MOL   H12534257   1.509   2.248   7.591  0.1967 -0.1992  3.0391
  107MOL   H12634258   1.643   2.241   7.783  0.6134  0.0223 -0.4174
  107MOL   H12734259   1.888   2.181   7.773  0.7118 -1.2817 -0.9212
  107MOL   H12834260   1.970   2.081   7.551 -0.2453 -0.6322  0.0850
  107MOL   H12934261   1.842   2.077   7.366 -0.6479 -0.3664 -0.1168
  107MOL   C13034262   1.440   2.100   7.347 -0.4801  0.1265  0.6078
  107MOL   C13134263   1.434   1.965   7.427  0.3965 -0.4142 -0.1210
  107MOL   C13234264   1.294   1.918   7.462  0.5382  0.2260  0.5854
  107MOL   C13334265   1.243   1.927   7.592  0.5280  0.6465  0.1206
  107MOL   C13434266   1.105   1.901   7.615  0.1843  0.5706  0.5396
  107MOL   C13534267   1.026   1.848   7.507 -0.2488  0.2986 -0.3263
  107MOL   C13634268   1.082   1.829   7.376 -0.1031 -0.1507  0.1409
  107MOL   C13734269   1.214   1.866   7.355 -0.1674 -0.4527 -0.1395
  107MOL   H13834270   1.384   2.092   7.254  3.2235 -0.6684 -1.6517
  107MOL   H13934271   1.377   2.177   7.392  0.2987  0.8405  0.4833
  107MOL   H14034272   1.475   1.978   7.528  1.1059  2.5448 -0.7430
  107MOL   H14134273   1.301   1.973   7.670  2.0401 -1.7718  0.4782
  107MOL   H14234274   1.062   1.911   7.714  1.9046 -0.1432  1.3766
  107MOL   H14334275   0.920   1.827   7.516 -0.1999  0.2346  0.1016
  107MOL   H14434276   1.021   1.791   7.296 -1.5870  0.4899  0.9597
  107MOL   H14534277   1.264   1.849   7.261 -0.1412 -0.8336 -0.0573
  107MOL   C14634278   1.521   1.856   7.357 -0.2058  0.5514 -0.4976
  107MOL   C14734279   1.508   1.702   7.403 -0.2203 -0.7688  0.5592
  107MOL   C14834280   1.400   1.626   7.326  0.7262  0.0901  0.1438
  107MOL   C14934281   1.315   1.538   7.397  0.4533  0.0777  0.0625
  107MOL   C15034282   1.219   1.457   7.332 -0.0688  0.0563 -0.2280
  107MOL   C15134283   1.205   1.467   7.192 -0.0348 -0.2039  0.2307
  107MOL   C15234284   1.276   1.565   7.125 -0.0236 -0.1722  0.8353
  107MOL   C15334285   1.376   1.636   7.190  0.4286  0.1580 -0.4160
  107MOL   H15434286   1.619   1.894   7.389 -0.0844 -0.5847  0.5354
  107MOL   H15534287   1.529   1.862   7.249  1.6976 -1.7992 -0.5177
  107MOL   H15634288   1.486   1.716   7.509  1.0274 -2.0040  0.9886
  107MOL   H15734289   1.327   1.539   7.504 -0.5648  0.4702  0.1708
  107MOL   H15834290   1.171   1.375   7.385  0.5077 -0.7125 -0.8882
  107MOL   H15934291   1.128   1.406   7.148 -0.0292 -0.7296  0.9423
  107MOL   H16034292   1.252   1.574   7.020 -1.4110 -0.1201  1.1495
  107MOL   H16134293   1.433   1.704   7.128  2.1575 -1.2650 -0.4125
  107MOL   C16234294   1.641   1.628   7.402  0.3190  0.2062 -0.2036
  107MOL   C16334295   1.753   1.670   7.502 -0.2282 -0.0738 -0.2698
  107MOL   C16434296   1.703   1.712   7.641  0.3309  0.1289  0.3161
  107MOL   C16534297   1.663   1.845   7.662  0.2286 -0.4460 -0.2801
  107MOL   C16634298   1.623   1.896   7.787 -0.0179 -0.0199 -0.2021
  107MOL   C16734299   1.623   1.804   7.894  0.3707  0.2281  0.2462
  107MOL   C16834300   1.659   1.670   7.877  0.6514 -0.1223 -0.1938
  107MOL   C16934301   1.700   1.624   7.748  0.9811 -0.0554 -0.3160
  107MOL   H17034302   1.676   1.625   7.298 -0.7790  0.6242 -0.5913
  107MOL   H17134303   1.613   1.525   7.423 -0.9919  0.2786 -1.5221
  107MOL   H17234304   1.793   1.765   7.467  0.5595 -1.0706 -2.1407
  107MOL   H17334305   1.665   1.911   7.576  0.0840  0.3872  0.3534
  107MOL   H17434306   1.591   1.997   7.807 -0.0712  0.1653 -1.2011
  107MOL   H17534307   1.585   1.834   7.990  0.9356 -0.6141  0.7295
  107MOL   H17634308   1.642   1.610   7.965  0.0776  1.9057  1.1185
  107MOL   H17734309   1.728   1.520   7.741  1.4840 -0.0656  1.6310
  107MOL   C17834310   1.873   1.567   7.500  0.4482  0.2169 -0.5089
  107MOL   C17934311   2.008   1.618   7.566 -0.1138 -0.8252  0.2249
  107MOL   C18034312   2.079   1.525   7.664  0.0510 -0.0741 -0.3343
  107MOL   C18134313   2.176   1.424   7.624  0.5049  0.0891  0.2822
  107MOL   C18234314   2.241   1.347   7.720  1.3429  0.4108 -0.1836
  107MOL   C18334315   2.222   1.377   7.862  0.8230  0.4013  0.1902
  107MOL   C18434316   2.118   1.469   7.900  0.5619  0.3607 -0.7638
  107MOL   C18534317   2.054   1.541   7.800  0.5396  0.3425 -0.4899
  107MOL   H18634318   1.905   1.556   7.396  0.8142  0.7929 -0.4661
  107MOL   H18734319   1.845   1.470   7.540  2.7463 -0.4115 -0.3279
  107MOL   H18834320   1.982   1.701   7.631 -0.6534 -0.7277 -0.1172
  107MOL   H18934321   2.196   1.415   7.519 -0.5066  0.8447  0.0120
  107MOL   H19034322   2.314   1.270   7.698 -0.0518 -0.7263 -0.8518
  107MOL   H19134323   2.266   1.319   7.941  1.0495  0.4121  0.0732
  107MOL   H19234324   2.089   1.492   8.002 -0.7646  0.3780 -1.1377
  107MOL   H19334325   1.988   1.621   7.829  3.2191  2.4568 -0.0194
  107MOL   C19434326   2.108   1.664   7.465  0.1802  0.0600 -0.0759
  107MOL   C19534327   2.229   1.743   7.514 -0.3852  0.1023 -0.1261
  107MOL   C19634328   2.340   1.746   7.408 -0.1613 -0.3012 -0.2519
  107MOL   C19734329   2.319   1.795   7.279  0.0777 -0.2267  0.3317
  107MOL   C19834330   2.420   1.802   7.180  0.1459 -0.1879 -0.0896
  107MOL   C19934331   2.550   1.761   7.222 -0.2772 -0.4298 -0.1407
  107MOL   C20034332   2.575   1.713   7.351  0.0180  0.2358  0.0058
  107MOL   C20134333   2.464   1.702   7.443  0.3900  0.6278 -0.6523
  107MOL   H20234334   2.048   1.724   7.397  1.7858  1.5324 -0.2115
  107MOL   H20334335   2.139   1.578   7.405 -1.2713  0.7092 -1.8020
  107MOL   H20434336   2.272   1.691   7.599 -0.4929 -0.0042 -0.1355
  107MOL   H20534337   2.219   1.822   7.247  0.9389 -1.3800 -3.7242
  107MOL   H20634338   2.406   1.830   7.077 -1.6946 -0.4986  0.0570
  107MOL   H20734339   2.624   1.773   7.144 -1.0334 -2.2223 -1.1631
  107MOL   H20834340   2.677   1.686   7.373 -0.5584 -1.8390  0.3301
  107MOL   H20934341   2.485   1.655   7.538  1.6596 -1.1061 -1.7580
  107MOL   C21034342   2.189   1.887   7.556  0.0273 -0.0482 -0.1288
  107MOL   C21134343   2.304   1.966   7.640  0.3065 -0.2980  0.2220
  107MOL   C21234344   2.253   2.106   7.686 -0.0444 -0.4782  0.2060
  107MOL   C21334345   2.201   2.130   7.813 -0.7905 -0.0429  0.4281
  107MOL   C21434346   2.127   2.245   7.842 -0.1254 -0.3712  0.7020
  107MOL   C21534347   2.114   2.348   7.746 -1.0269  0.3055  0.5221
  107MOL   C21634348   2.163   2.326   7.614 -0.3537 -0.2836  0.5192
  107MOL   C21734349   2.227   2.207   7.583 -0.3870 -0.5900 -0.4411
  107MOL   H21834350   2.106   1.875   7.625  0.7964  1.0216  1.0025
  107MOL   H21934351   2.157   1.951   7.474 -2.8013  0.1334  1.0738
  107MOL   H22034352   2.392   1.979   7.577  1.4507 -2.0937  1.4006
  107MOL   H22134353   2.199   2.049   7.884 -1.1978 -0.0601  0.3954
  107MOL   H22234354   2.083   2.257   7.940 -0.2030  0.7930  0.5317
  107MOL   H22334355   2.056   2.434   7.777 -0.1071  1.2713 -0.4304
  107MOL   H22434356   2.159   2.405   7.542 -0.9157 -1.9049 -1.2764
  107MOL   H22534357   2.260   2.193   7.481  0.8599  0.2222 -0.1645
  107MOL   C22634358   2.362   1.881   7.763 -0.3439  0.3839 -0.2241
  107MOL   C22734359   2.448   1.938   7.880  0.7640 -0.2526 -0.3007
  107MOL   C22834360   2.428   1.851   8.007  0.7626 -0.3270  0.1962
  107MOL   C22934361   2.413   1.713   7.997  0.1697 -0.1577  0.0669
  107MOL   C23034362   2.382   1.635   8.113 -0.0444  0.0333 -0.3171
  107MOL   C23134363   2.366   1.697   0.123 -0.0707  0.1030  0.4850
  107MOL   C23234364   2.369   1.835   0.130  0.3678 -0.2885  0.6305
  107MOL   C23334365   2.407   1.912   0.017  0.1357  0.2286 -0.2966
  107MOL   H23434366   2.415   1.795   7.721 -0.5409  0.4176 -0.5373
  107MOL   H23534367   2.271   1.840   7.806  1.0698 -0.1730  2.3648
  107MOL   H23634368   2.415   2.038   7.911  1.8294 -0.0508  0.2062
  107MOL   H23734369   2.432   1.666   7.902  2.6645 -2.3122  1.5732
  107MOL   H23834370   2.360   1.529   0.007 -1.6236  0.2840 -1.1162
  107MOL   H23934371   2.346   1.639   0.211 -1.2158 -2.1441 -1.2246
  107MOL   H24034372   2.346   1.878   0.227 -1.2063 -0.8841  0.5431
  107MOL   H24134373   2.404   2.020   0.025 -2.2016  0.1549  0.0603
  107MOL   C24234374   2.598   1.947   7.844 -0.1726  0.6269  0.3092
  107MOL   C24334375   2.638   2.044   7.730  0.2874  0.5148  0.0897
  107MOL   C24434376   2.648   2.187   7.783 -0.6032  0.1847 -0.3656
  107MOL   C24534377   2.565   2.288   7.740  0.0336 -0.1009 -0.0089
  107MOL   C24634378   2.578   2.422   7.791 -0.8612  0.8201 -0.5615
  107MOL   C24734379   2.681   2.447   7.881 -0.7115 -0.4183 -0.4500
  107MOL   C24834380   2.767   2.349   7.921  0.1362 -0.1908  0.0754
  107MOL   C24934381   2.754   2.217   7.874  0.4074  0.1152  0.7804
  107MOL   H25034382   2.623   1.843   7.825  1.1680  1.1360 -0.8041
  107MOL   H25134383   2.657   1.978   7.930 -2.0822  0.2994  1.7680
  107MOL   H25234384   2.568   2.047   7.646 -0.4236 -1.7200  0.5606
  107MOL   H25334385   2.479   2.271   7.676  0.6167 -0.6862 -0.6395
  107MOL   H25434386   2.524   2.501   7.739  0.9344  1.2280 -1.8419
  107MOL   H25534387   2.696   2.549   7.911  0.0697 -0.5884 -0.2688
  107MOL   H25634388   2.848   2.370   7.989  1.3033 -1.6465 -0.8426
  107MOL   H25734389   2.827   2.143   7.902 -1.3316 -1.7855  0.3707
  107MOL   C25834390   2.772   1.992   7.670 -0.1334  1.1234  0.3336
  107MOL   C25934391   2.846   2.080   7.561  0.1036 -0.1540  0.4298
  107MOL   C26034392   2.951   2.006   7.474  0.4492 -0.0338  0.1897
  107MOL   C26134393   2.922   1.896   7.393 -0.3923  0.3601  0.6034
  107MOL   C26234394   3.025   1.824   7.331 -0.0630 -0.1414 -0.2266
  107MOL   C26334395   3.155   1.861   7.357 -0.3759  0.2430 -0.5519
  107MOL   C26434396   3.188   1.964   7.446 -0.8104 -0.2677 -0.0174
  107MOL   C26534397   3.082   2.039   7.504  0.4753  0.0368 -0.5117
  107MOL   H26634398   2.734   1.910   7.610 -0.3190  2.6334 -1.6892
  107MOL   H26734399   2.841   1.954   7.745 -0.6753  0.0177  0.2790
  107MOL   H26834400   2.900   2.152   7.623  1.2493  0.3926 -1.1795
  107MOL   H26934401   2.821   1.865   7.372 -0.2589  0.4301 -0.1456
  107MOL   H27034402   3.010   1.737   7.268  2.6753 -0.9745  0.1799
  107MOL   H27134403   3.236   1.807   7.310 -1.0745  0.6304 -2.2576
  107MOL   H27234404   3.291   1.987   7.465 -1.3209  2.3654 -0.2613
  107MOL   H27334405   3.104   2.108   7.584  0.5474 -0.5890  0.0100
  107MOL   C27434406   2.756   2.151   7.463  0.5417 -0.3886 -0.2807
  107MOL   C27534407   2.827   2.242   7.356 -0.3302 -0.0748  0.0446
  107MOL   C27634408   2.942   2.318   7.420  0.1281 -0.3916  0.2534
  107MOL   C27734409   3.066   2.333   7.361 -0.1092 -0.2281  0.7076
  107MOL   C27834410   3.172   2.414   7.416 -0.0741 -0.6404 -0.6694
  107MOL   C27934411   3.148   2.472   7.542 -0.3877  0.1677  0.2985
  107MOL   C28034412   3.026   2.459   7.612 -0.1379 -0.5631  0.3881
  107MOL   C28134413   2.921   2.386   7.546 -0.1582 -0.1083  0.1116
  107MOL   H28234414   2.676   2.213   7.505 -1.3062 -2.3515 -0.8111
  107MOL   H28334415   2.686   2.085   7.412 -0.8148  1.1481 -0.4460
  107MOL   H28434416   2.755   2.323   7.347 -1.3924 -0.8382  1.4569
  107MOL   H28534417   3.092   2.299   7.261  0.0199 -1.0968  1.0348
  107MOL   H28634418   3.258   2.434   7.354  0.1958 -2.4291 -0.8983
  107MOL   H28734419   3.230   2.520   7.594 -0.4128  0.0958  0.4043
  107MOL   H28834420   3.027   2.498   7.712 -0.4362  0.9857 -0.1952
  107MOL   H28934421   2.830   2.389   7.605 -1.5486  1.3296 -2.0273
  107MOL   C29034422   2.855   2.179   7.214 -0.6415  0.1243 -0.4195
  107MOL   C29134423   2.731   2.114   7.139 -1.1206  0.4587 -0.0858
  107MOL   C29234424   2.601   2.197   7.152 -0.0204  0.0386  0.2922
  107MOL   C29334425   2.614   2.331   7.103 -0.3724 -0.4271 -0.2244
  107MOL   C29434426   2.502   2.414   7.104 -0.5337 -0.2409 -0.0943
  107MOL   C29534427   2.377   2.360   7.153  0.8479 -0.4420  0.2569
  107MOL   C29634428   2.368   2.225   7.192 -0.1267 -0.4173  0.3421
  107MOL   C29734429   2.483   2.149   7.200 -0.2564 -0.5765  0.3742
  107MOL   H29834430   2.932   2.103   7.227 -0.5267 -0.1001 -2.3354
  107MOL   H29934431   2.901   2.254   7.149  3.1774 -0.6175  1.2565
  107MOL   H30034432   2.712   2.025   7.199  0.2003  0.4513  0.3507
  107MOL   H30134433   2.713   2.360   7.071 -0.4033 -1.0382 -0.8877
  107MOL   H30234434   2.513   2.513   7.064 -3.2273 -0.6224 -1.9224
  107MOL   H30334435   2.286   2.418   7.153  1.2258  0.1671  1.3692
  107MOL   H30434436   2.272   2.184   7.218  0.1624 -1.4448 -0.1454
  107MOL   H30534437   2.468   2.050   7.240  0.0628 -0.7763  0.0102
  107MOL   C30634438   2.759   2.074   6.991  0.4196  0.1584  0.2358
  107MOL   C30734439   2.635   2.000   6.917  0.1866 -0.0200  0.1673
  107MOL   C30834440   2.680   1.933   6.786  0.3939 -0.1933  0.8843
  107MOL   C30934441   2.708   1.792   6.793 -0.5373 -0.4654 -0.0300
  107MOL   C31034442   2.762   1.725   6.678  0.6459 -0.0658  0.5603
  107MOL   C31134443   2.789   1.802   6.567  0.0914  0.9346 -0.1083
  107MOL   C31234444   2.744   1.933   6.556  0.4275 -0.2465 -0.0871
  107MOL   C31334445   2.686   1.998   6.664 -1.0024 -0.4927 -0.1452
  107MOL   H31434446   2.837   2.000   7.004  0.1452  0.1636  2.1040
  107MOL   H31534447   2.788   2.171   6.950  2.6696 -0.3726  0.5150
  107MOL   H31634448   2.569   2.081   6.883 -1.9939 -0.6189  2.7547
  107MOL   H31734449   2.699   1.738   6.886 -1.9107 -0.1681  0.0248
  107MOL   H31834450   2.792   1.621   6.678  2.6147  0.4588 -1.5345
  107MOL   H31934451   2.839   1.752   6.485  0.2998 -0.0553  0.6127
  107MOL   H32034452   2.750   1.974   6.456 -0.5943 -1.5557 -0.6955
  107MOL   H32134453   2.659   2.102   6.654 -1.4833 -0.6375 -0.3509
  107MOL   H32234454   2.593   1.918   6.974 -1.0225  0.7498  0.4202
  108MOL     C134455   7.860   1.021   3.700 -0.0998  0.9420 -0.2126
  108MOL     C234456   7.855   1.152   3.782  0.6191 -0.4462  0.8216
  108MOL     C334457   7.747   1.250   3.721 -0.2879 -1.5010 -0.1938
  108MOL     C434458   7.606   1.234   3.746 -0.3375 -0.2165 -0.3277
  108MOL     C534459   7.516   1.328   3.705 -0.3012 -0.4473 -0.4362
  108MOL     C634460   7.565   1.431   3.619  0.4100  0.4357 -0.7306
  108MOL     C734461   7.704   1.446   3.584  0.1179 -0.0688 -0.1854
  108MOL     C834462   7.790   1.355   3.638  0.6671  0.3692 -0.0228
  108MOL     H934463   7.956   0.970   3.705 -0.6004  0.0539  0.6076
  108MOL    H1034464   7.781   0.955   3.736  1.2718  0.3214  1.7313
  108MOL    H1134465   7.953   1.198   3.768 -0.1750  0.6173 -1.4967
  108MOL    H1234466   7.569   1.156   3.811 -3.0121  0.8155 -0.5461
  108MOL    H1334467   7.413   1.319   3.737 -0.3317  0.1020 -0.3880
  108MOL    H1434468   7.497   1.508   3.584 -0.9605 -1.0251 -1.3541
  108MOL    H1534469   7.730   1.532   3.525 -1.6658  0.8003  0.2758
  108MOL    H1634470   7.894   1.363   3.612  0.9728 -0.0198  1.0427
  108MOL    H1734471   7.851   1.033   3.592  0.4287 -1.0876 -0.4971
  108MOL    C1834472   7.823   1.122   3.926  0.0731  0.2762  0.1708
  108MOL    C1934473   7.866   1.232   4.031 -0.6332 -0.0085  0.4959
  108MOL    C2034474   7.802   1.372   4.008 -0.0233  0.9521  0.2804
  108MOL    C2134475   7.875   1.483   3.966  0.2653  0.1555  0.2562
  108MOL    C2234476   7.819   1.611   3.963  0.4659 -0.0511 -0.4768
  108MOL    C2334477   7.684   1.625   3.999  0.4372 -0.5874 -0.0972
  108MOL    C2434478   7.607   1.511   4.036 -0.1865 -0.0208 -0.4905
  108MOL    C2534479   7.671   1.387   4.040  0.0252  0.3528 -0.2376
  108MOL    H2634480   7.880   1.033   3.953  0.1586 -0.4955 -2.4634
  108MOL    H2734481   7.720   1.089   3.943  0.6122 -1.5035  0.0741
  108MOL    H2834482   7.973   1.245   4.013 -0.1745 -0.1046  2.9665
  108MOL    H2934483   7.976   1.465   3.934  0.2561 -0.8932  0.7899
  108MOL    H3034484   7.886   1.691   3.935  0.8831 -0.0143  0.6078
  108MOL    H3134485   7.633   1.719   4.011 -1.8209 -1.6037 -1.4164
  108MOL    H3234486   7.502   1.528   4.055 -0.5808 -3.2201  0.4315
  108MOL    H3334487   7.618   1.305   4.087 -1.8111  2.0162  0.7077
  108MOL    C3434488   7.840   1.181   4.178 -0.6020 -0.1983 -0.1898
  108MOL    C3534489   7.928   1.077   4.250  0.4777  0.0390  1.0942
  108MOL    C3634490   8.070   1.117   4.225  0.4722  0.3335  0.4257
  108MOL    C3734491   0.005   1.247   4.250 -0.0971  0.0247  0.1181
  108MOL    C3834492   0.137   1.273   4.217  0.4635 -0.6999 -0.3730
  108MOL    C3934493   0.223   1.181   4.154  0.1159 -0.2501  0.1919
  108MOL    C4034494   0.178   1.053   4.136  0.1115  0.2007 -0.3034
  108MOL    C4134495   0.047   1.019   4.170 -0.7785  0.4841 -0.0907
  108MOL    H4234496   7.741   1.138   4.194 -0.6392 -0.3297 -0.7467
  108MOL    H4334497   7.847   1.260   4.253 -1.6302 -1.1081  0.8794
  108MOL    H4434498   7.919   0.986   4.191  0.9141  0.8821 -0.3001
  108MOL    H4534499   8.057   1.322   4.297  0.1945 -0.1935  0.8645
  108MOL    H4634500   0.161   1.378   4.225  1.4513 -1.1447  3.3578
  108MOL    H4734501   0.312   1.221   4.108 -0.6311 -1.3088 -2.2330
  108MOL    H4834502   0.253   0.987   4.097 -0.3419 -0.0922 -0.6851
  108MOL    H4934503   0.015   0.918   4.155  0.4383  0.1758 -0.6577
  108MOL    C5034504   7.904   1.059   4.398  0.1041  0.9389 -0.4293
  108MOL    C5134505   7.783   0.970   4.423 -0.2064  0.5851 -0.0144
  108MOL    C5234506   7.803   0.822   4.371 -0.1172  0.0601 -0.0042
  108MOL    C5334507   7.732   0.775   4.259  0.1768 -0.1250  0.7970
  108MOL    C5434508   7.745   0.643   4.217 -0.6696  0.1205 -0.2083
  108MOL    C5534509   7.835   0.559   4.283 -0.3335  0.7936 -0.0273
  108MOL    C5634510   7.907   0.609   4.390 -0.2877 -1.1941 -0.4960
  108MOL    C5734511   7.893   0.742   4.433 -0.0183 -0.5022 -0.0083
  108MOL    H5834512   7.882   1.160   4.433 -1.1317  1.4392 -2.5874
  108MOL    H5934513   7.991   1.018   4.450 -0.0525  0.0797 -0.8352
  108MOL    H6034514   7.699   1.015   4.369 -2.8390 -2.5871  1.2326
  108MOL    H6134515   7.656   0.839   4.216  0.0053 -0.6882  0.2526
  108MOL    H6234516   7.696   0.609   4.127 -0.9642  1.6152 -0.6288
  108MOL    H6334517   7.859   0.459   4.250  2.3754  1.2539  0.4488
  108MOL    H6434518   7.980   0.544   4.436  0.0685 -0.9729 -0.7487
  108MOL    H6534519   7.954   0.781   4.513 -1.4692 -0.2468  0.9935
  108MOL    C6634520   7.733   0.966   4.570  0.3322 -0.1173  0.3920
  108MOL    C6734521   7.679   1.101   4.635 -0.2465  0.0090 -0.0626
  108MOL    C6834522   7.622   1.206   4.542 -0.8823  0.4289  0.0109
  108MOL    C6934523   7.692   1.330   4.525 -0.0714  0.1657 -0.2527
  108MOL    C7034524   7.646   1.425   4.431 -0.6951  0.0107 -0.2330
  108MOL    C7134525   7.533   1.396   4.352  0.7972 -0.4659  0.2336
  108MOL    C7234526   7.464   1.273   4.368  0.1482  0.4120  0.1762
  108MOL    C7334527   7.514   1.177   4.454  0.5162 -0.0870  0.1900
  108MOL    H7434528   7.808   0.913   4.629 -0.4621 -1.3774  0.2932
  108MOL    H7534529   7.642   0.906   4.572  0.6164 -0.6247 -1.0021
  108MOL    H7634530   7.772   1.140   4.677  0.2561  1.5644 -2.5823
  108MOL    H7734531   7.783   1.344   4.581  0.9954  0.7809 -2.0851
  108MOL    H7834532   7.699   1.519   4.421 -0.2775  0.0208  1.8244
  108MOL    H7934533   7.493   1.466   4.281 -0.6199 -0.9082  0.5870
  108MOL    H8034534   7.375   1.254   4.309 -0.1894  2.6200 -0.1082
  108MOL    H8134535   7.469   1.079   4.452 -2.4289  1.1792  0.8345
  108MOL    C8234536   7.590   1.084   4.760 -0.5803 -0.2981 -0.0322
  108MOL    C8334537   7.657   1.007   4.876 -0.6825 -0.5466 -0.2144
  108MOL    C8434538   7.772   1.085   4.945 -0.4993 -0.8372 -0.5063
  108MOL    C8534539   7.902   1.064   4.898  0.8047 -0.1792 -0.8019
  108MOL    C8634540   8.013   1.136   4.946  0.0990 -0.0769  0.7932
  108MOL    C8734541   7.992   1.220   5.053 -0.5772  0.2935 -0.5551
  108MOL    C8834542   7.867   1.238   5.101 -0.6359 -0.4787  0.3028
  108MOL    C8934543   7.753   1.172   5.050 -0.6927 -0.1833 -0.0259
  108MOL    H9034544   7.512   1.015   4.725 -0.1973 -0.9984  0.4764
  108MOL    H9134545   7.554   1.180   4.797  2.3720  0.3972  1.2008
  108MOL    H9234546   7.702   0.918   4.831 -2.0947 -1.7385  0.6855
  108MOL    H9334547   7.929   0.996   4.818 -1.2530 -0.1525 -1.5706
  108MOL    H9434548   8.112   1.106   4.916 -0.0175 -0.7887  1.0859
  108MOL    H9534549   8.078   1.276   5.087  0.5669 -0.9504 -1.3677
  108MOL    H9634550   7.854   1.293   5.193  0.8558  1.7746 -0.7809
  108MOL    H9734551   7.658   1.193   5.098 -0.1376 -0.2692  1.1266
  108MOL    C9834552   7.553   0.959   4.986 -0.1596 -0.0382 -0.4866
  108MOL    C9934553   7.451   0.856   4.939 -0.2191  0.5302  0.4409
  108MOL   C10034554   7.516   0.730   4.880 -0.4091 -0.3113  0.5027
  108MOL   C10134555   7.523   0.709   4.742  0.0156 -0.1284  0.0833
  108MOL   C10234556   7.583   0.598   4.677 -0.6103  0.2827  0.0133
  108MOL   C10334557   7.641   0.500   4.763  0.1027 -0.7630  0.6649
  108MOL   C10434558   7.621   0.513   4.902  0.2194  0.4664 -0.5093
  108MOL   C10534559   7.574   0.628   4.961  0.5340 -0.5029  0.1543
  108MOL   H10634560   7.502   1.046   5.027  1.3712  0.0412  1.2829
  108MOL   H10734561   7.603   0.908   5.068  0.6696 -1.7617 -2.0354
  108MOL   H10834562   7.391   0.893   4.855 -0.9426 -1.6056 -0.0306
  108MOL   H10934563   7.479   0.777   4.670  1.7337 -0.4869 -1.3513
  108MOL   H11034564   7.580   0.579   4.571 -1.5463  1.3977 -0.1721
  108MOL   H11134565   7.690   0.412   4.722  0.3983 -0.9349  1.3879
  108MOL   H11234566   7.657   0.439   4.972 -2.0760 -0.6965 -0.5026
  108MOL   H11334567   7.570   0.645   5.068  4.0661  3.8145 -0.2507
  108MOL   C11434568   7.352   0.837   5.055 -0.1425  0.0824  0.0967
  108MOL   C11534569   7.266   0.708   5.067  0.1601  0.5772  0.2881
  108MOL   C11634570   7.177   0.721   5.193  0.2524  0.4810 -0.3536
  108MOL   C11734571   7.037   0.736   5.185  0.1531  0.2319 -0.4456
  108MOL   C11834572   6.964   0.781   5.301  0.3137  0.5881 -0.1138
  108MOL   C11934573   7.034   0.791   5.422  0.7685  0.7658  0.5331
  108MOL   C12034574   7.173   0.760   5.430  0.2550  0.6578  0.0799
  108MOL   C12134575   7.244   0.733   5.315 -0.5659 -0.8948 -0.4567
  108MOL   H12234576   7.287   0.924   5.051 -0.3256 -0.0617 -0.0538
  108MOL   H12334577   7.415   0.839   5.144  0.2768 -1.7037 -0.1409
  108MOL   H12434578   7.338   0.627   5.085 -1.2757 -0.4745  1.3864
  108MOL   H12534579   6.986   0.730   5.090  0.0809  0.6018 -0.4304
  108MOL   H12634580   6.861   0.811   5.293  0.2990  0.6896  0.4556
  108MOL   H12734581   6.986   0.819   5.514  0.2429 -1.2566  0.8994
  108MOL   H12834582   7.216   0.751   5.528  1.2687 -0.8024 -0.4766
  108MOL   H12934583   7.351   0.724   5.324 -0.6551 -0.4869  1.1740
  108MOL   C13034584   7.198   0.673   4.924  0.0956 -0.1705 -0.3199
  108MOL   C13134585   7.132   0.535   4.906 -0.1620 -0.0326 -0.3414
  108MOL   C13234586   7.023   0.545   4.802 -0.3271 -0.2087 -0.2115
  108MOL   C13334587   7.056   0.548   4.665  0.3174  0.2247 -0.7500
  108MOL   C13434588   6.952   0.552   4.569  0.7739  0.9605  0.8271
  108MOL   C13534589   6.821   0.552   4.614  0.6836  0.9487  0.7864
  108MOL   C13634590   6.787   0.556   4.750 -0.9487  0.5426  0.2966
  108MOL   C13734591   6.893   0.561   4.847  0.4833 -0.8020 -0.1930
  108MOL   H13834592   7.260   0.686   4.835  0.0212  0.6785 -0.2552
  108MOL   H13934593   7.120   0.747   4.906 -1.3277 -1.3770  0.7906
  108MOL   H14034594   7.081   0.506   4.998 -0.0379 -2.4563 -0.9835
  108MOL   H14134595   7.161   0.548   4.641  0.5737  1.3919  0.2965
  108MOL   H14234596   6.985   0.555   4.466  0.0514  1.9013  0.6139
  108MOL   H14334597   6.743   0.555   4.539  1.0415 -1.2695  0.2997
  108MOL   H14434598   6.686   0.572   4.787 -0.5732 -0.9292  2.0045
  108MOL   H14534599   6.858   0.589   4.945  1.9096  3.0540 -0.6555
  108MOL   C14634600   7.241   0.434   4.873 -0.0793 -0.2159 -0.0728
  108MOL   C14734601   7.221   0.285   4.839  0.4501 -0.8302 -0.7003
  108MOL   C14834602   7.359   0.227   4.824 -0.1681 -0.8149 -0.3464
  108MOL   C14934603   7.402   0.195   4.697  0.0578 -0.2178 -0.6581
  108MOL   C15034604   7.526   0.134   4.676 -0.4863  0.3134 -0.2126
  108MOL   C15134605   7.616   0.125   4.783 -0.1744  0.5246  0.5665
  108MOL   C15234606   7.578   0.160   4.915 -0.5025 -0.4944  0.2188
  108MOL   C15334607   7.450   0.210   4.932  0.1954  0.2670 -0.0838
  108MOL   H15434608   7.305   0.446   4.961 -0.0728 -0.9654  0.0269
  108MOL   H15534609   7.295   0.473   4.787 -0.8946  0.5667 -0.2381
  108MOL   H15634610   7.170   0.288   4.742 -0.2242  0.0432 -0.3252
  108MOL   H15734611   7.334   0.216   4.616  0.6116  0.8095 -0.8623
  108MOL   H15834612   7.552   0.107   4.574  0.7864 -1.0910  0.4793
  108MOL   H15934613   7.709   0.074   4.766 -0.3925  0.5406 -0.7199
  108MOL   H16034614   7.649   0.137   4.992  0.2717 -0.3767 -0.4546
  108MOL   H16134615   7.416   0.233   5.032 -2.8895  0.1355 -1.0465
  108MOL   C16234616   7.134   0.207   4.946 -0.0911  0.3556  0.2218
  108MOL   C16334617   6.981   0.192   4.911  0.4602  0.4225  0.3564
  108MOL   C16434618   6.963   0.138   4.770 -0.0493  0.0627  0.3271
  108MOL   C16534619   7.042   0.035   4.709 -0.7674  0.3823 -0.7322
  108MOL   C16634620   7.018   8.096   4.582 -0.6608 -0.0336 -0.0377
  108MOL   C16734621   6.909   0.034   4.505 -0.5104 -0.3436  0.0844
  108MOL   C16834622   6.833   0.142   4.554 -1.1344 -0.7151  0.2228
  108MOL   C16934623   6.861   0.186   4.688  0.0333 -0.1573  0.8048
  108MOL   H17034624   7.147   0.251   5.045  0.1464  0.7211  0.0300
  108MOL   H17134625   7.193   0.116   4.950  0.9479  1.0196  0.3453
  108MOL   H17234626   6.940   0.291   4.929  0.1041  0.1501  1.0423
  108MOL   H17334627   7.125   8.105   4.763 -3.0799  0.1835  2.7875
  108MOL   H17434628   7.074   8.015   4.538 -1.8776 -1.3095  0.6919
  108MOL   H17534629   6.897   8.113   4.404 -0.7368 -1.1560  0.3993
  108MOL   H17634630   6.759   0.195   4.496 -0.9915  0.4836  1.1158
  108MOL   H17734631   6.813   0.274   4.727  0.1835  0.6598 -0.8051
  108MOL   C17834632   6.911   0.101   5.010 -0.6298 -0.0987  0.3456
  108MOL   C17934633   6.754   0.100   5.017 -0.2335  0.4053  0.2164
  108MOL   C18034634   6.704   0.005   5.122  0.3846  0.3556 -0.4413
  108MOL   C18134635   6.638   7.997   5.085 -0.0013 -0.5595 -0.0250
  108MOL   C18234636   6.589   7.911   5.182 -0.1812 -0.4364 -0.2238
  108MOL   C18334637   6.614   7.939   5.318 -0.6000 -0.3743  0.2948
  108MOL   C18434638   6.677   8.057   5.361  0.8145 -0.1985  0.1537
  108MOL   C18534639   6.730   0.030   5.262 -0.4407  0.2750  1.0543
  108MOL   H18634640   6.957   0.125   5.106  0.0643 -0.2780  0.0628
  108MOL   H18734641   6.939   8.114   4.981 -0.5958  0.5571 -1.9867
  108MOL   H18834642   6.718   0.066   4.920  3.0342  1.0550 -1.2901
  108MOL   H18934643   6.625   7.975   4.980  0.6824  0.3928 -0.3128
  108MOL   H19034644   6.538   7.817   5.163 -1.3816 -0.2167  1.7280
  108MOL   H19134645   6.566   7.879   5.394 -0.4773 -1.2732 -0.3245
  108MOL   H19234646   6.689   8.081   5.466  0.0644  3.0853 -0.4438
  108MOL   H19334647   6.794   0.112   5.292  2.2244 -1.4467  0.2594
  108MOL   C19434648   6.694   0.247   5.032  0.1859  0.6118 -0.0242
  108MOL   C19534649   6.545   0.264   5.070 -0.1095 -0.1456 -0.3224
  108MOL   C19634650   6.509   0.416   5.094 -0.2728 -0.2779 -0.2791
  108MOL   C19734651   6.482   0.462   5.227  0.1393 -0.0395  0.4864
  108MOL   C19834652   6.460   0.596   5.260  0.5019  0.0083  0.7330
  108MOL   C19934653   6.452   0.692   5.157 -0.1530 -0.0694  0.5564
  108MOL   C20034654   6.487   0.653   5.027  1.4027 -0.3267 -0.2230
  108MOL   C20134655   6.516   0.516   4.992 -0.4724  0.3420 -0.1865
  108MOL   H20234656   6.718   0.303   4.941  1.2170 -0.2910 -0.3096
  108MOL   H20334657   6.746   0.299   5.112  0.2361 -0.7280  0.8275
  108MOL   H20434658   6.547   0.215   5.167  2.6060  2.3581  0.9875
  108MOL   H20534659   6.488   0.394   5.311  1.9325  0.6573  0.9439
  108MOL   H20634660   6.429   0.598   5.364 -2.2252 -1.1748 -0.0056
  108MOL   H20734661   6.421   0.793   5.179  1.7796 -0.1360  3.8795
  108MOL   H20834662   6.509   0.722   4.946  1.8444 -0.1261  0.0652
  108MOL   H20934663   6.546   0.499   4.890 -1.1643  0.1333 -0.3607
  108MOL   C21034664   6.444   0.196   4.974  0.2640  0.2838  0.2764
  108MOL   C21134665   6.299   0.163   5.026  0.5262  0.1967 -0.7032
  108MOL   C21234666   6.219   0.114   4.904  0.0746 -0.4213  0.7669
  108MOL   C21334667   6.219   8.095   4.874  0.8095  0.0404 -0.0511
  108MOL   C21434668   6.157   8.057   4.754 -0.2284 -0.8398  0.2364
  108MOL   C21534669   6.097   0.031   4.672  0.1437  0.5757  0.5110
  108MOL   C21634670   6.109   0.170   4.693 -0.3287  0.3034  0.7769
  108MOL   C21734671   6.167   0.211   4.815  0.7512 -0.0841  0.4558
  108MOL   H21834672   6.490   0.109   4.929 -1.5651  1.2552 -3.7183
  108MOL   H21934673   6.429   0.263   4.888 -1.3994 -1.3492 -0.7420
  108MOL   H22034674   6.259   0.261   5.052 -1.3318 -0.5169 -0.8330
  108MOL   H22134675   6.271   8.018   4.931  1.3647 -0.3104 -1.0274
  108MOL   H22234676   6.149   7.953   4.728 -1.4841 -0.0409 -2.7822
  108MOL   H22334677   6.043   8.114   4.584  0.2102 -0.7383  0.9368
  108MOL   H22434678   6.074   0.244   4.623  1.1140 -0.0905 -0.3869
  108MOL   H22534679   6.169   0.316   4.840 -2.2793  0.5148 -1.5420
  108MOL   C22634680   6.293   0.067   5.145  0.5778 -0.5777  0.1370
  108MOL   C22734681   6.152   0.013   5.190  0.5491 -0.5384  0.1582
  108MOL   C22834682   6.170   8.016   5.293  0.1145 -0.5541  0.1634
  108MOL   C22934683   6.245   8.044   5.408  0.3580 -0.1544 -0.3799
  108MOL   C23034684   6.269   7.944   5.504  0.7338 -0.8927 -0.5266
  108MOL   C23134685   6.231   7.812   5.482  0.0330  0.1046  0.4480
  108MOL   C23234686   6.143   7.785   5.368 -0.0403  0.5746 -0.7485
  108MOL   C23334687   6.119   7.887   5.276 -0.3137  0.6181  0.3084
  108MOL   H23434688   6.343   0.104   5.234 -1.7533  0.3766  1.1016
  108MOL   H23534689   6.357   8.095   5.127 -0.9028 -2.4738  3.4731
  108MOL   H23634690   6.100   8.079   5.108 -2.3577  0.2855  1.4634
  108MOL   H23734691   6.275   0.031   5.428 -0.3459 -0.3494  1.7877
  108MOL   H23834692   6.319   7.983   5.591  0.2707 -0.1823 -0.5802
  108MOL   H23934693   6.268   7.740   5.553 -0.3065 -0.5467 -0.0312
  108MOL   H24034694   6.113   7.683   5.345  1.5966  0.0898 -0.8260
  108MOL   H24134695   6.066   7.860   5.186  0.5562  1.3973 -0.4514
  108MOL   C24234696   6.062   0.126   5.240  0.1824 -0.5320  0.3680
  108MOL   C24334697   5.937   0.152   5.149 -0.6047  0.0978 -0.7825
  108MOL   C24434698   5.856   0.022   5.121  0.3180 -0.2952 -0.5861
  108MOL   C24534699   5.778   8.077   5.221  0.7350 -0.0161 -0.2543
  108MOL   C24634700   5.706   7.959   5.203  0.1170 -0.7392  0.0616
  108MOL   C24734701   5.710   7.895   5.077 -0.4574  0.3073  0.2674
  108MOL   C24834702   5.781   7.959   4.972 -0.2694 -0.0394  0.5356
  108MOL   C24934703   5.862   8.075   4.998  0.0352 -0.0193  0.3551
  108MOL   H25034704   6.123   0.216   5.234  0.3155 -0.6505 -0.0943
  108MOL   H25134705   6.029   0.103   5.341  0.0810 -1.7215  0.0697
  108MOL   H25234706   5.981   0.188   5.057 -1.1806 -0.5484 -1.3136
  108MOL   H25334707   5.776   0.007   5.319  0.0270  1.0226 -0.7329
  108MOL   H25434708   5.648   7.915   5.283  1.6523 -1.8433  0.5760
  108MOL   H25534709   5.663   7.800   5.061  0.3105  0.0713 -0.6910
  108MOL   H25634710   5.787   7.927   4.869  1.8268  0.8814  0.3481
  108MOL   H25734711   5.914   8.113   4.911  0.3705 -1.7972 -0.2586
  108MOL   C25834712   5.836   0.250   5.204  0.1795 -0.7327  0.2731
  108MOL   C25934713   5.897   0.384   5.254  0.0876  0.4203 -0.0201
  108MOL   C26034714   5.952   0.466   5.141  0.4078 -1.0718  0.9835
  108MOL   C26134715   6.088   0.488   5.123  0.1165 -0.4449  0.0957
  108MOL   C26234716   6.132   0.574   5.021  0.3947  0.2337 -0.1585
  108MOL   C26334717   6.045   0.647   4.936 -0.0767  0.3255  0.4439
  108MOL   C26434718   5.908   0.630   4.957  0.2077  0.0104  0.1996
  108MOL   C26534719   5.861   0.529   5.052 -0.6019  0.8313  0.9379
  108MOL   H26634720   5.778   0.204   5.284 -0.0304 -0.0219  0.5393
  108MOL   H26734721   5.760   0.271   5.130 -0.6208 -0.1329  1.2461
  108MOL   H26834722   5.984   0.361   5.316  0.4520  3.5020  0.7069
  108MOL   H26934723   6.156   0.431   5.184  1.3338  0.6291 -0.2022
  108MOL   H27034724   6.237   0.590   5.004  0.1394  0.7221 -1.3403
  108MOL   H27134725   6.077   0.716   4.859  1.3108  0.1399  0.8481
  108MOL   H27234726   5.831   0.688   4.907  0.8271  1.2686  0.7121
  108MOL   H27334727   5.755   0.515   5.069 -0.7757 -0.1135 -0.7732
  108MOL   C27434728   5.799   0.452   5.339  1.0673  0.2032 -0.6907
  108MOL   C27534729   5.849   0.583   5.393 -0.6032 -0.5099 -0.3180
  108MOL   C27634730   5.732   0.643   5.471 -0.8013 -0.7252  0.2272
  108MOL   C27734731   5.656   0.745   5.405  0.2452 -0.0464  0.4861
  108MOL   C27834732   5.528   0.796   5.447 -0.8241  0.0275 -0.7484
  108MOL   C27934733   5.476   0.736   5.569 -0.9074  0.2572 -0.1100
  108MOL   C28034734   5.550   0.638   5.638 -0.7279  0.1841  0.1616
  108MOL   C28134735   5.678   0.594   5.592 -0.4928  0.3993  0.3537
  108MOL   H28234736   5.772   0.390   5.424 -0.6020 -1.5371 -2.4579
  108MOL   H28334737   5.710   0.468   5.277  1.7932 -0.7428 -2.0026
  108MOL   H28434738   5.877   0.640   5.303  0.0042  0.5656  0.5387
  108MOL   H28534739   5.694   0.790   5.314  0.4422  1.2013  1.1654
  108MOL   H28634740   5.473   0.877   5.401  1.4209  0.3313 -3.0488
  108MOL   H28734741   5.378   0.766   5.604 -0.4888 -0.2240  1.5193
  108MOL   H28834742   5.501   0.603   5.728 -1.7934 -0.1303 -0.5233
  108MOL   H28934743   5.731   0.508   5.632 -0.5867 -0.8395 -2.1069
  108MOL   C29034744   5.976   0.568   5.479 -0.1329  0.2682  0.0351
  108MOL   C29134745   6.028   0.686   5.565 -0.2132 -0.6549 -0.1684
  108MOL   C29234746   6.167   0.665   5.622  0.3308  0.9452  0.6587
  108MOL   C29334747   6.193   0.724   5.741  0.1957  0.1382 -0.7322
  108MOL   C29434748   6.315   0.692   5.814  0.6645  0.2444  0.1102
  108MOL   C29534749   6.415   0.617   5.753  0.2813  1.0160 -0.1022
  108MOL   C29634750   6.394   0.564   5.625 -0.2194 -0.5301  1.1444
  108MOL   C29734751   6.270   0.586   5.562  0.9494  0.7232 -0.7535
  108MOL   H29834752   6.050   0.539   5.405 -0.2917 -1.0705  0.3961
  108MOL   H29934753   5.961   0.479   5.541  0.3515  0.1202 -0.0605
  108MOL   H30034754   5.976   0.716   5.656  3.1263  1.2084  1.2036
  108MOL   H30134755   6.124   0.786   5.796  1.3863  2.0602 -1.3628
  108MOL   H30234756   6.331   0.736   5.912  0.0842  0.9158 -0.0918
  108MOL   H30334757   6.509   0.613   5.805 -0.6390 -0.2261  1.5040
  108MOL   H30434758   6.476   0.502   5.592 -1.3385 -1.6080  0.3471
  108MOL   H30534759   6.254   0.530   5.470 -1.1962  0.2585 -0.1156
  108MOL   C30634760   6.030   0.822   5.489  0.5312 -0.4671  0.2154
  108MOL   C30734761   6.125   0.838   5.363  0.0631  0.2357  0.4434
  108MOL   C30834762   6.121   0.979   5.316  0.3020  0.3195  0.2288
  108MOL   C30934763   6.194   1.081   5.374  0.4826  0.2300  0.7297
  108MOL   C31034764   6.205   1.207   5.321  0.2223 -0.7755  0.2328
  108MOL   C31134765   6.144   1.228   5.192 -0.7943  0.1175 -0.4547
  108MOL   C31234766   6.064   1.133   5.130  0.3655 -0.1056 -0.7247
  108MOL   C31334767   6.042   1.012   5.204 -0.9362  0.1895  0.8051
  108MOL   H31434768   6.050   0.897   5.565  2.3368 -0.0149 -0.6874
  108MOL   H31534769   5.928   0.850   5.460  0.5380  0.2075  0.8241
  108MOL   H31634770   6.103   0.769   5.281 -0.6373  0.5473  0.3595
  108MOL   H31734771   6.248   1.051   5.463  0.0551 -0.7696  0.6583
  108MOL   H31834772   6.272   1.281   5.362 -0.2309  0.3863 -1.0699
  108MOL   H31934773   6.153   1.328   5.151  2.3214  0.2654  0.4309
  108MOL   H32034774   6.008   1.145   5.039 -0.4028  1.4860 -0.0550
  108MOL   H32134775   5.975   0.934   5.173 -1.0482 -0.0916  1.7315
  108MOL   H32234776   6.224   0.816   5.401 -0.0223 -0.4296  0.2830
  109MOL     C134777   4.730   6.860   2.233 -0.6617 -0.2976 -1.1543
  109MOL     C234778   4.673   6.997   2.290  0.0484  0.2863  0.7177
  109MOL     C334779   4.586   6.992   2.416 -0.2128 -0.0474 -0.4181
  109MOL     C434780   4.472   7.074   2.435  0.4928  0.4802  0.4193
  109MOL     C534781   4.396   7.069   2.560 -0.6168 -0.7214 -0.0808
  109MOL     C634782   4.433   6.978   2.660 -0.4368 -0.0454 -0.0240
  109MOL     C734783   4.547   6.897   2.638 -0.3655  0.1230  0.1159
  109MOL     C834784   4.625   6.906   2.521  0.1884  0.2118 -0.8099
  109MOL     H934785   4.654   6.803   2.180 -1.0335  0.4274 -1.4097
  109MOL    H1034786   4.808   6.874   2.159 -0.2498  2.6432 -0.2586
  109MOL    H1134787   4.599   7.034   2.219 -0.0049 -1.0140  0.0662
  109MOL    H1234788   4.445   7.157   2.371  0.9950  0.4834  0.2094
  109MOL    H1334789   4.307   7.129   2.574  0.1268  0.1017  1.2184
  109MOL    H1434790   4.378   6.974   2.753 -0.4867  2.9349  0.1200
  109MOL    H1534791   4.580   6.834   2.718 -1.2047 -0.0423  0.3397
  109MOL    H1634792   4.720   6.854   2.511  0.9411  1.0945  1.3474
  109MOL    H1734793   4.773   6.793   2.307  1.4139  2.1394 -0.0623
  109MOL    C1834794   4.789   7.098   2.308 -0.1024 -0.0793  0.3961
  109MOL    C1934795   4.852   7.165   2.185 -0.3189  0.1910  0.5230
  109MOL    C2034796   4.752   7.211   2.089 -0.2854  0.2697  0.1246
  109MOL    C2134797   4.748   7.171   1.954  0.9577  0.4649  0.2900
  109MOL    C2234798   4.651   7.213   1.864 -0.0508 -0.1258  0.1371
  109MOL    C2334799   4.554   7.297   1.914  0.1723  0.0642 -0.8687
  109MOL    C2434800   4.552   7.334   2.047  0.2764 -1.0530 -0.2555
  109MOL    C2534801   4.648   7.295   2.136  1.0077 -0.1075 -0.2005
  109MOL    H2634802   4.865   7.045   2.367 -1.2879 -1.9701  0.2848
  109MOL    H2734803   4.751   7.178   2.371 -0.4082  1.9853 -2.3511
  109MOL    H2834804   4.897   7.083   2.130 -1.8262 -0.8199  0.7701
  109MOL    H2934805   4.817   7.097   1.916  0.1347 -0.6338  0.9101
  109MOL    H3034806   4.644   7.176   1.763 -1.3140 -1.2570  0.6228
  109MOL    H3134807   4.473   7.330   1.850 -1.9513  0.3367  1.9036
  109MOL    H3234808   4.473   7.397   2.085  0.8043  0.6925 -1.9838
  109MOL    H3334809   4.636   7.312   2.242  0.0084 -1.0198 -0.1631
  109MOL    C3434810   4.954   7.273   2.224  0.4195 -0.7920 -0.2196
  109MOL    C3534811   5.090   7.205   2.270 -0.2010  0.0695  0.2094
  109MOL    C3634812   5.170   7.141   2.163  0.0420  0.1493  0.4386
  109MOL    C3734813   5.203   7.003   2.174  0.4957  0.2754 -0.4556
  109MOL    C3834814   5.295   6.946   2.085  0.5308  0.0228  0.3022
  109MOL    C3934815   5.352   7.020   1.976 -0.0873 -0.0825 -0.1843
  109MOL    C4034816   5.317   7.155   1.965  1.4850 -0.1745  0.1792
  109MOL    C4134817   5.223   7.214   2.056  0.0648 -0.3298  0.4324
  109MOL    H4234818   4.920   7.331   2.310  1.0359  1.1879 -1.2885
  109MOL    H4334819   4.978   7.351   2.152  0.8803 -0.8825 -0.1635
  109MOL    H4434820   5.055   7.119   2.326 -1.0153 -0.5254 -1.1808
  109MOL    H4534821   5.166   6.954   2.263  1.5240  2.5284  1.2968
  109MOL    H4634822   5.329   6.844   2.096  0.0456 -0.3805 -1.7868
  109MOL    H4734823   5.415   6.985   1.896 -0.9888 -1.5715 -0.2616
  109MOL    H4834824   5.364   7.218   1.891  0.3794  0.5937  0.1085
  109MOL    H4934825   5.205   7.321   2.061  0.6823 -0.2781  2.0635
  109MOL    C5034826   5.187   7.293   2.355 -0.1411  0.6888 -0.4816
  109MOL    C5134827   5.127   7.339   2.486 -0.3945 -0.2599 -0.3506
  109MOL    C5234828   5.070   7.225   2.575  0.1260 -0.4027 -0.1516
  109MOL    C5334829   5.149   7.114   2.614  0.0601 -0.1150 -0.0516
  109MOL    C5434830   5.091   7.009   2.682 -0.3403 -0.4837  0.2430
  109MOL    C5534831   4.954   6.994   2.697  0.1362 -0.8672 -0.1231
  109MOL    C5634832   4.876   7.106   2.655 -0.8506  0.1898 -0.2553
  109MOL    C5734833   4.929   7.222   2.599 -0.5373 -0.3375  0.4171
  109MOL    H5834834   5.222   7.377   2.295  1.5593  1.2633  1.2855
  109MOL    H5934835   5.278   7.238   2.377 -1.7983 -1.0754  2.3756
  109MOL    H6034836   5.054   7.417   2.465 -0.3322 -0.3805 -1.0243
  109MOL    H6134837   5.256   7.108   2.604  0.2553 -0.4292  1.9805
  109MOL    H6234838   5.148   6.924   2.717  1.3117  0.7329  0.5937
  109MOL    H6334839   4.911   6.910   2.750  0.4174 -1.0365 -0.1607
  109MOL    H6434840   4.768   7.108   2.663 -0.8223  2.7265 -0.0427
  109MOL    H6534841   4.865   7.306   2.579 -1.4910 -1.3106 -0.6640
  109MOL    C6634842   5.233   7.419   2.570  0.1277  0.5822 -0.6840
  109MOL    C6734843   5.254   7.567   2.530  0.5345  0.2265  0.2170
  109MOL    C6834844   5.128   7.651   2.558 -0.6326  0.8440 -0.4608
  109MOL    C6934845   5.074   7.660   2.689 -0.6864 -0.1681 -0.0467
  109MOL    C7034846   4.955   7.730   2.704 -0.2760 -0.1817 -0.5185
  109MOL    C7134847   4.894   7.803   2.597 -0.7537  0.5629 -0.1351
  109MOL    C7234848   4.945   7.792   2.465 -0.8539 -0.0329 -0.1454
  109MOL    C7334849   5.064   7.719   2.450  0.0358 -0.2850  0.0675
  109MOL    H7434850   5.323   7.358   2.578 -1.0871 -0.9915  1.7331
  109MOL    H7534851   5.197   7.410   2.673  0.6650  0.6720 -0.4895
  109MOL    H7634852   5.271   7.569   2.423 -0.5515 -1.7481 -0.0008
  109MOL    H7734853   5.115   7.608   2.775  0.6578  0.8191 -0.0796
  109MOL    H7834854   4.918   7.738   2.805 -2.0841 -0.2231 -1.1504
  109MOL    H7934855   4.797   7.838   2.628 -2.6444 -3.4234 -1.2201
  109MOL    H8034856   4.900   7.844   2.382 -2.1075  1.5383  1.4614
  109MOL    H8134857   5.107   7.720   2.351  2.8091  0.7126  1.2176
  109MOL    C8234858   5.379   7.623   2.589 -0.1700  0.4990 -0.5051
  109MOL    C8334859   5.406   7.779   2.609  0.0246  0.0998 -0.0995
  109MOL    C8434860   5.527   7.809   2.699  0.0778 -1.0912 -0.1938
  109MOL    C8534861   5.659   7.771   2.660 -0.0427 -0.5836  0.4978
  109MOL    C8634862   5.765   7.802   2.746 -0.4234 -0.2930  1.1316
  109MOL    C8734863   5.741   7.848   2.880 -0.3382 -0.0927  0.3569
  109MOL    C8834864   5.609   7.883   2.916 -0.3923 -0.0158  0.6271
  109MOL    C8934865   5.502   7.863   2.824 -0.4178  0.1117 -0.2392
  109MOL    H9034866   5.473   7.582   2.551  0.1400  0.3589  0.3963
  109MOL    H9134867   5.380   7.589   2.692  0.0474  0.9947 -0.3437
  109MOL    H9234868   5.316   7.811   2.661 -0.9485  1.0162 -2.2864
  109MOL    H9334869   5.686   7.722   2.568 -1.0127 -2.0811  0.9972
  109MOL    H9434870   5.867   7.781   2.717 -0.2356 -0.0451  1.6063
  109MOL    H9534871   5.822   7.871   2.947 -1.3253  2.0087  0.8745
  109MOL    H9634872   5.580   7.931   3.008 -3.3970  0.4626 -0.4917
  109MOL    H9734873   5.407   7.890   2.868 -0.3199 -1.0665  0.7071
  109MOL    C9834874   5.416   7.846   2.470 -0.0918 -0.7230 -0.5423
  109MOL    C9934875   5.401   8.000   2.466  0.3061 -0.4097 -0.5238
  109MOL   C10034876   5.425   8.052   2.323  0.4921 -0.6600 -0.5224
  109MOL   C10134877   5.553   8.112   2.290  0.0401  0.0060  0.3631
  109MOL   C10234878   5.571   0.059   2.166 -0.2644  0.3497  0.0113
  109MOL   C10334879   5.470   0.060   2.064 -0.3737 -0.3347  0.0844
  109MOL   C10434880   5.355   8.100   2.093 -0.1840  0.3649  0.4944
  109MOL   C10534881   5.331   8.041   2.219  0.1355  0.3115 -0.0769
  109MOL   H10634882   5.343   7.803   2.401  0.4900 -0.5182 -1.2935
  109MOL   H10734883   5.513   7.826   2.426  0.2628 -1.3739  0.5252
  109MOL   H10834884   5.480   8.050   2.523 -1.3105  1.2036  0.3405
  109MOL   H10934885   5.631   0.008   2.365  0.5891  1.2479 -0.3757
  109MOL   H11034886   5.666   0.107   2.147 -1.3833  1.5822 -2.6673
  109MOL   H11134887   5.490   0.107   1.969  0.8902 -0.3800  0.3097
  109MOL   H11234888   5.283   8.078   2.016 -0.5295  0.1555  0.8709
  109MOL   H11334889   5.231   8.006   2.240  0.6425 -1.4122 -0.3938
  109MOL   C11434890   5.266   8.044   2.530 -0.7423 -0.0182 -0.0468
  109MOL   C11534891   5.235   0.079   2.526  0.6088 -0.7468  0.3300
  109MOL   C11634892   5.119   0.106   2.425 -0.6385 -0.4067  0.1407
  109MOL   C11734893   5.145   0.179   2.306  0.2196  0.0925 -0.2025
  109MOL   C11834894   5.039   0.196   2.218 -0.5731 -0.3742  0.3990
  109MOL   C11934895   4.906   0.151   2.253 -0.0367 -0.4534 -0.6025
  109MOL   C12034896   4.885   0.082   2.372  0.3787  0.2024  0.0578
  109MOL   C12134897   4.994   0.053   2.451 -0.4987 -0.0106  0.0054
  109MOL   H12234898   5.265   8.004   2.631  0.4325 -1.7096 -0.7024
  109MOL   H12334899   5.190   7.990   2.472  0.4715 -2.2408  0.3964
  109MOL   H12434900   5.326   0.121   2.483  1.1725 -0.7693  1.4915
  109MOL   H12534901   5.242   0.222   2.287 -0.5533  2.9358  1.9450
  109MOL   H12634902   5.043   0.246   2.123  0.8101  0.1928  0.7473
  109MOL   H12734903   4.819   0.151   2.189 -1.7688 -0.8785  1.6518
  109MOL   H12834904   4.792   0.035   2.398 -0.9240  1.6881 -1.7687
  109MOL   H12934905   4.981   0.007   2.548  0.0743  1.0147  0.5740
  109MOL   C13034906   5.214   0.149   2.665 -0.3969 -0.0651  0.2379
  109MOL   C13134907   5.166   0.294   2.665  0.2934  0.2475 -0.8704
  109MOL   C13234908   5.086   0.318   2.798 -0.3670  0.2487  0.2322
  109MOL   C13334909   5.153   0.321   2.925  0.1743  0.5983  0.3962
  109MOL   C13434910   5.076   0.344   3.041 -0.0562 -0.5438  0.2930
  109MOL   C13534911   4.938   0.360   3.025  0.5642 -0.4330 -0.3461
  109MOL   C13634912   4.870   0.363   2.902 -0.4056 -0.4776 -0.1839
  109MOL   C13734913   4.945   0.331   2.787  0.5811 -0.1173  0.3769
  109MOL   H13834914   5.307   0.133   2.719  0.7403 -1.0883 -2.0157
  109MOL   H13934915   5.147   0.087   2.726  1.0795 -0.6901  1.2601
  109MOL   H14034916   5.095   0.305   2.583 -1.3047  2.7253  0.7398
  109MOL   H14134917   5.261   0.319   2.927  0.2592 -0.0866 -2.1439
  109MOL   H14234918   5.119   0.345   3.140 -1.9674  0.1850  1.1384
  109MOL   H14334919   4.869   0.372   3.108 -0.5139  1.3758 -1.4510
  109MOL   H14434920   4.764   0.374   2.889  0.0534  1.0359 -3.0606
  109MOL   H14534921   4.907   0.333   2.686  0.5912 -0.1884  0.3722
  109MOL   C14634922   5.265   0.416   2.659 -0.4636 -0.1444 -0.0964
  109MOL   C14734923   5.251   0.511   2.542 -0.8131  0.5082 -0.2301
  109MOL   C14834924   5.106   0.554   2.534 -0.4025 -0.7329  0.4657
  109MOL   C14934925   5.029   0.531   2.418 -0.4946  0.2826  0.2965
  109MOL   C15034926   4.899   0.591   2.410 -0.1426  0.0690  0.3633
  109MOL   C15134927   4.836   0.650   2.520  0.0347  0.0622  0.3524
  109MOL   C15234928   4.909   0.670   2.638 -0.0312 -0.7402  0.1994
  109MOL   C15334929   5.045   0.624   2.642  0.0568 -0.8482  0.3273
  109MOL   H15434930   5.370   0.393   2.682 -0.0114  0.1786 -1.7911
  109MOL   H15534931   5.250   0.477   2.748 -1.9511  1.3755 -1.3860
  109MOL   H15634932   5.273   0.457   2.449 -1.5213  1.4803 -0.9726
  109MOL   H15734933   5.075   0.480   2.335 -1.9705 -0.0784 -0.3291
  109MOL   H15834934   4.842   0.594   2.319  0.2655 -1.9887  0.0269
  109MOL   H15934935   4.734   0.686   2.520 -0.4087 -1.1814 -0.5838
  109MOL   H16034936   4.858   0.709   2.725 -1.1512 -2.4350  0.3193
  109MOL   H16134937   5.105   0.652   2.728  2.4124 -1.7395 -0.9919
  109MOL   C16234938   5.348   0.631   2.559 -0.4430  0.3607  0.1992
  109MOL   C16334939   5.495   0.589   2.550 -0.5480  0.3858  0.3638
  109MOL   C16434940   5.549   0.521   2.423  0.3821  0.3634 -0.4554
  109MOL   C16534941   5.639   0.413   2.431  0.6043 -0.5158  0.6100
  109MOL   C16634942   5.710   0.373   2.313  0.0944  0.2944 -0.4055
  109MOL   C16734943   5.662   0.409   2.184 -0.5404  0.1620 -0.3310
  109MOL   C16834944   5.546   0.498   2.173 -1.0238  0.0225  0.0204
  109MOL   C16934945   5.496   0.549   2.298  0.2222  0.2693  0.3505
  109MOL   H17034946   5.335   0.672   2.659  1.6949 -1.7991  1.4249
  109MOL   H17134947   5.335   0.706   2.481  1.4436 -0.7988 -1.2817
  109MOL   H17234948   5.505   0.514   2.629  0.1322  0.8326  0.6995
  109MOL   H17334949   5.662   0.379   2.531  1.1410  0.8254  0.9587
  109MOL   H17434950   5.788   0.298   2.314  2.9041  3.0553 -2.2884
  109MOL   H17534951   5.726   0.380   2.102 -0.8295 -0.0332 -0.4858
  109MOL   H17634952   5.501   0.517   2.076 -0.9509 -1.9134 -0.4228
  109MOL   H17734953   5.410   0.613   2.296 -1.5061 -2.0170 -0.3534
  109MOL   C17834954   5.602   0.692   2.603  0.1702  0.0340 -0.2228
  109MOL   C17934955   5.573   0.772   2.736  0.4670  0.5355 -0.0897
  109MOL   C18034956   5.503   0.699   2.854 -0.2099  0.3105  0.0448
  109MOL   C18134957   5.526   0.563   2.888  0.0004 -0.4649  1.0549
  109MOL   C18234958   5.473   0.502   3.001 -0.1158  0.5629 -0.1027
  109MOL   C18334959   5.382   0.568   3.083 -0.3979 -0.3718  0.2733
  109MOL   C18434960   5.348   0.701   3.052 -0.3151  0.0163 -0.3391
  109MOL   C18534961   5.417   0.769   2.944  0.6136  0.2193  0.6185
  109MOL   H18634962   5.618   0.759   2.518 -0.1619  2.2924  1.4406
  109MOL   H18734963   5.692   0.634   2.623 -1.5585 -2.1681  1.4120
  109MOL   H18834964   5.490   0.840   2.719 -1.3034 -1.0607  1.8854
  109MOL   H18934965   5.598   0.509   2.828 -1.4290  0.0044 -1.1556
  109MOL   H19034966   5.504   0.400   3.019 -1.4472  0.3915  1.3107
  109MOL   H19134967   5.322   0.523   3.161 -0.8165 -0.4899 -0.1172
  109MOL   H19234968   5.273   0.749   3.113  1.1356 -0.3314  1.7733
  109MOL   H19334969   5.389   0.870   2.922 -1.9581  0.5202  4.7847
  109MOL   C19434970   5.703   0.839   2.779  0.2146 -0.5641  0.2038
  109MOL   C19534971   5.688   0.990   2.783  0.2227  0.4801 -0.3185
  109MOL   C19634972   5.590   1.040   2.892  0.3395 -0.1811  1.2679
  109MOL   C19734973   5.606   1.006   3.025  0.3796  0.5965  0.5636
  109MOL   C19834974   5.513   1.047   3.117  0.2269  0.0928 -0.2558
  109MOL   C19934975   5.419   1.143   3.084  0.5906 -0.6492  0.4725
  109MOL   C20034976   5.401   1.176   2.952 -1.0038 -0.2599 -0.0360
  109MOL   C20134977   5.492   1.132   2.857 -0.4815  0.2106  0.4184
  109MOL   H20234978   5.782   0.814   2.708 -0.4476 -0.2868 -0.6311
  109MOL   H20334979   5.756   0.796   2.865  1.1218 -0.7380 -0.4370
  109MOL   H20434980   5.643   1.013   2.687 -2.4543 -2.5660  0.1142
  109MOL   H20534981   5.673   0.927   3.054 -1.0536 -0.7875  0.1986
  109MOL   H20634982   5.508   1.004   3.216 -1.2585  0.9274  0.0509
  109MOL   H20734983   5.342   1.163   3.157 -1.3348 -3.0849 -0.8017
  109MOL   H20834984   5.323   1.240   2.914  0.4893  0.4351 -2.0645
  109MOL   H20934985   5.474   1.163   2.755  3.6918  1.6007  0.0008
  109MOL   C21034986   5.825   1.056   2.795  0.0068  0.1895 -0.5246
  109MOL   C21134987   5.831   1.199   2.741  0.8155 -0.2543  0.2751
  109MOL   C21234988   5.893   1.298   2.829 -0.1881  0.2554 -0.5991
  109MOL   C21334989   6.015   1.268   2.896 -0.1946 -0.8375 -0.2183
  109MOL   C21434990   6.063   1.353   2.998  0.2608  0.1037 -0.4398
  109MOL   C21534991   5.996   1.475   3.033 -0.1454 -0.0539  0.2048
  109MOL   C21634992   5.873   1.501   2.963  0.7430  0.0527  0.3222
  109MOL   C21734993   5.828   1.422   2.860  0.4794 -0.0101 -0.0674
  109MOL   H21834994   5.884   0.999   2.723  1.4069  1.3924 -0.3673
  109MOL   H21934995   5.872   1.043   2.893  1.8048  0.8894 -1.2604
  109MOL   H22034996   5.726   1.221   2.723  1.3946  2.4288 -0.0869
  109MOL   H22134997   6.057   1.170   2.882 -1.3750 -1.8199  2.7706
  109MOL   H22234998   6.143   1.314   3.059  2.6118  2.1444 -2.0775
  109MOL   H22334999   6.026   1.532   3.119 -2.8103  1.1950  0.3502
  109MOL   H22435000   5.819   1.589   2.995 -0.4989 -0.8798  0.7740
  109MOL   H22535001   5.735   1.448   2.813  0.5828  1.4120  0.5145
  109MOL   C22635002   5.906   1.210   2.603  0.2253  0.4347 -0.0816
  109MOL   C22735003   5.815   1.165   2.484 -0.5979  0.4003 -0.5080
  109MOL   C22835004   5.682   1.236   2.479 -0.1842  0.4887  0.8346
  109MOL   C22935005   5.679   1.376   2.487 -0.1059  0.0582  0.2354
  109MOL   C23035006   5.555   1.443   2.476  0.0761 -0.2140 -0.1624
  109MOL   C23135007   5.432   1.370   2.457  0.8406  0.3007 -0.1378
  109MOL   C23235008   5.438   1.229   2.451 -0.1775  0.4839 -0.2073
  109MOL   C23335009   5.561   1.160   2.461  0.3927  0.3475 -0.7218
  109MOL   H23435010   5.994   1.145   2.603 -0.4038 -0.4475  1.5810
  109MOL   H23535011   5.931   1.314   2.583 -0.0208  0.3327 -0.9180
  109MOL   H23635012   5.786   1.060   2.495  1.7632 -0.1203  1.4064
  109MOL   H23735013   5.766   1.438   2.505 -0.2591  0.1347  0.7403
  109MOL   H23835014   5.534   1.547   2.496 -2.6076 -0.9312  1.0321
  109MOL   H23935015   5.337   1.421   2.459  0.4385 -0.3463 -1.8580
  109MOL   H24035016   5.351   1.166   2.441  0.1893  0.2966 -2.4885
  109MOL   H24135017   5.569   1.053   2.454  1.2305  0.5047 -2.4657
  109MOL   C24235018   5.879   1.173   2.346 -0.1144  0.5822 -0.6060
  109MOL   C24335019   5.999   1.086   2.312  0.6594 -0.3882  0.2928
  109MOL   C24435020   5.987   0.943   2.355  0.0173  0.2658  0.4899
  109MOL   C24535021   5.876   0.869   2.317 -0.7914  0.0077 -0.2439
  109MOL   C24635022   5.863   0.733   2.355 -0.0860 -0.5313 -0.1331
  109MOL   C24735023   5.964   0.677   2.430 -0.3698  0.7951 -0.0964
  109MOL   C24835024   6.066   0.758   2.484 -0.0299  0.2372 -0.1141
  109MOL   C24935025   6.068   0.890   2.452 -0.6991  0.4244  0.5931
  109MOL   H25035026   5.900   1.279   2.333  1.1431  0.9791  3.9429
  109MOL   H25135027   5.800   1.150   2.275  0.3455  1.1485 -1.3082
  109MOL   H25235028   6.080   1.136   2.366 -0.4325  0.7732  0.8745
  109MOL   H25335029   5.809   0.914   2.245 -1.0980  0.0245  0.0509
  109MOL   H25435030   5.779   0.678   2.315 -0.3401  1.6071 -2.7134
  109MOL   H25535031   5.961   0.571   2.450  0.8416  0.2725 -2.5032
  109MOL   H25635032   6.135   0.716   2.556 -2.2250 -0.3779  1.7223
  109MOL   H25735033   6.145   0.949   2.500  0.6323 -0.7601 -0.0720
  109MOL   C25835034   6.025   1.101   2.155 -0.2715 -0.1129 -0.2067
  109MOL   C25935035   6.167   1.082   2.113  0.0154  0.2539  0.2742
  109MOL   C26035036   6.184   1.005   1.979 -0.6392 -0.8447  0.3069
  109MOL   C26135037   6.286   0.903   1.979  0.2457  0.6771  0.1345
  109MOL   C26235038   6.322   0.849   1.856 -1.4809 -0.4451 -0.8967
  109MOL   C26335039   6.260   0.888   1.734  0.2121  0.3746 -0.3415
  109MOL   C26435040   6.175   0.999   1.737 -0.6148 -0.2981  0.0714
  109MOL   C26535041   6.140   1.056   1.857 -0.6008 -0.8342  0.4574
  109MOL   H26635042   5.986   1.197   2.121 -0.8198  0.1141  1.0750
  109MOL   H26735043   5.967   1.025   2.103  0.6520 -1.1675  0.2908
  109MOL   H26835044   6.217   1.025   2.192 -1.1904  0.5176  1.2333
  109MOL   H26935045   6.324   0.866   2.073 -2.2826  1.9303  1.7108
  109MOL   H27035046   6.396   0.770   1.852  0.4564  1.1765  1.6358
  109MOL   H27135047   6.296   0.850   1.640  2.6892 -2.3348  1.6198
  109MOL   H27235048   6.136   1.038   1.645  0.9762 -0.0874 -0.5392
  109MOL   H27335049   6.080   1.147   1.850  1.5063  0.5050 -0.7509
  109MOL   C27435050   6.253   1.214   2.097 -0.4430 -0.4552  0.1371
  109MOL   C27535051   6.279   1.294   2.227 -0.3424 -0.4987  0.3869
  109MOL   C27635052   6.327   1.222   2.353 -0.9582  0.4143  0.7482
  109MOL   C27735053   6.423   1.113   2.357 -0.5433 -0.1562  0.0071
  109MOL   C27835054   6.456   1.052   2.479  0.0144 -0.4502  0.0704
  109MOL   C27935055   6.413   1.106   2.600 -0.3874 -0.1234  0.3894
  109MOL   C28035056   6.319   1.212   2.594  0.5764 -0.2856 -0.4307
  109MOL   C28135057   6.271   1.265   2.477 -0.1182  0.4948  0.0951
  109MOL   H28235058   6.205   1.285   2.029  1.0071  1.2016  0.8165
  109MOL   H28335059   6.347   1.183   2.054 -0.5564 -0.6577  0.0377
  109MOL   H28435060   6.191   1.347   2.263 -0.3260  0.4154 -0.9062
  109MOL   H28535061   6.462   1.073   2.265  0.8993  0.3289  0.3925
  109MOL   H28635062   6.516   0.963   2.472  1.6987  0.7906 -2.4173
  109MOL   H28735063   6.464   1.075   2.690  0.6765 -1.4959 -0.6458
  109MOL   H28835064   6.273   1.245   2.686 -0.9615  0.0969 -1.3184
  109MOL   H28935065   6.193   1.338   2.487 -1.7931 -1.2293 -0.0884
  109MOL   C29035066   6.362   1.421   2.197  0.3455  0.1387 -0.5977
  109MOL   C29135067   6.309   1.517   2.088 -1.0637 -0.7791 -0.1610
  109MOL   C29235068   6.158   1.546   2.104  0.0168  1.3908  0.7064
  109MOL   C29335069   6.106   1.613   2.213 -0.3377 -0.4546 -0.2149
  109MOL   C29435070   5.966   1.616   2.236  0.2177 -0.3768 -0.0604
  109MOL   C29535071   5.879   1.559   2.140 -0.0656 -0.8566  0.7468
  109MOL   C29635072   5.927   1.507   2.021  0.1366 -0.4379  0.0586
  109MOL   C29735073   6.068   1.497   2.004  0.0993 -0.5259 -0.0567
  109MOL   H29835074   6.464   1.392   2.173  0.7381 -1.0209  2.2927
  109MOL   H29935075   6.376   1.470   2.293  1.2610 -1.4832  0.1286
  109MOL   H30035076   6.333   1.472   1.992  0.5515 -2.0260  0.7827
  109MOL   H30135077   6.167   1.662   2.287  0.7116  0.3986 -1.6126
  109MOL   H30235078   5.921   1.653   2.327 -0.2596  1.2375 -0.9245
  109MOL   H30335079   5.775   1.541   2.163  0.3403 -1.7645  1.9398
  109MOL   H30435080   5.857   1.470   1.948 -2.0611  0.3649  1.6943
  109MOL   H30535081   6.106   1.466   1.908 -1.7179  5.2246 -2.8882
  109MOL   C30635082   6.383   1.646   2.092  0.2108 -0.1955  0.3663
  109MOL   C30735083   6.337   1.739   1.977 -0.5534 -0.1312 -0.0855
  109MOL   C30835084   6.430   1.856   1.951  0.3172 -0.5988  0.2866
  109MOL   C30935085   6.432   1.917   1.826  0.7162  0.3107  0.0292
  109MOL   C31035086   6.518   2.021   1.800  0.6854  0.0004 -0.4445
  109MOL   C31135087   6.599   2.069   1.901  0.9851 -0.1332 -0.2843
  109MOL   C31235088   6.587   2.020   2.032 -0.0541  0.7711  0.4968
  109MOL   C31335089   6.506   1.913   2.059 -0.1159  0.2154 -0.1804
  109MOL   H31435090   6.492   1.635   2.094  0.4655  1.9010 -0.2906
  109MOL   H31535091   6.368   1.703   2.184 -1.0259  2.7169 -1.5898
  109MOL   H31635092   6.241   1.788   1.992  0.1129  1.4820 -1.0631
  109MOL   H31735093   6.385   1.875   1.738 -0.2056 -1.3850  1.3081
  109MOL   H31835094   6.524   2.057   1.698 -0.1643 -0.0493 -0.5134
  109MOL   H31935095   6.663   2.155   1.883  1.5804 -0.7821 -1.3397
  109MOL   H32035096   6.651   2.060   2.110  0.1985 -0.4976  0.9533
  109MOL   H32135097   6.507   1.870   2.157 -4.5889 -1.5417 -0.7558
  109MOL   H32235098   6.315   1.691   1.881 -0.8813  0.5747 -0.3663
  110MOL     C135099   6.286   5.527   5.765  1.1160  0.7624  0.6362
  110MOL     C235100   6.440   5.517   5.794 -1.0655  0.2777 -0.0279
  110MOL     C335101   6.492   5.652   5.839 -0.7444 -0.1383  0.1340
  110MOL     C435102   6.498   5.689   5.978 -0.2723 -0.2241 -0.1791
  110MOL     C535103   6.556   5.813   6.020  0.0139  0.4720  0.1467
  110MOL     C635104   6.609   5.904   5.927 -0.0166 -0.1122  0.7749
  110MOL     C735105   6.601   5.870   5.791  0.4808 -0.3167  0.5738
  110MOL     C835106   6.543   5.749   5.752 -0.4582  0.0968 -0.0957
  110MOL     H935107   6.266   5.599   5.685 -1.4094 -1.4380 -0.8059
  110MOL    H1035108   6.255   5.430   5.725 -0.7923  0.9817  1.5552
  110MOL    H1135109   6.482   5.511   5.693 -1.7508  2.0923 -0.4511
  110MOL    H1235110   6.455   5.617   6.046  0.5266 -1.1915 -0.6723
  110MOL    H1335111   6.577   5.825   6.125 -4.1186  1.9942  0.9269
  110MOL    H1435112   6.659   5.995   5.956  0.5058 -0.2987  0.4680
  110MOL    H1535113   6.624   5.939   5.711 -2.3512 -0.6426 -0.5879
  110MOL    H1635114   6.552   5.730   5.646  3.2166 -3.0216  0.6601
  110MOL    H1735115   6.243   5.554   5.861 -0.7515 -3.1374  1.0216
  110MOL    C1835116   6.467   5.394   5.876 -0.2910  0.4271  0.3635
  110MOL    C1935117   6.614   5.359   5.892  0.5636  0.0873  0.1839
  110MOL    C2035118   6.633   5.291   6.022 -0.3168 -0.1702  0.4175
  110MOL    C2135119   6.559   5.172   6.054 -0.1602  0.1176 -0.2483
  110MOL    C2235120   6.567   5.129   6.191  0.2314 -0.3556 -0.3760
  110MOL    C2335121   6.652   5.182   6.284  0.0651 -0.1804 -0.0924
  110MOL    C2435122   6.739   5.282   6.243 -0.9803  0.2236 -0.5934
  110MOL    C2535123   6.728   5.337   6.112  0.2748  0.2874 -0.0953
  110MOL    H2635124   6.427   5.315   5.812 -0.8056  2.0410 -1.3364
  110MOL    H2735125   6.410   5.392   5.968  0.2957  1.2419  0.7408
  110MOL    H2835126   6.663   5.456   5.892  0.8857 -0.0663 -1.5082
  110MOL    H2935127   6.496   5.122   5.982 -1.1842 -0.1610  0.8279
  110MOL    H3035128   6.505   5.048   6.225  1.0077 -0.0217  1.8800
  110MOL    H3135129   6.649   5.150   6.387 -0.2639  1.2556  0.3440
  110MOL    H3235130   6.797   5.322   6.325 -0.2042 -1.7629 -0.1475
  110MOL    H3335131   6.782   5.426   6.083 -4.0521  3.6905  1.8280
  110MOL    C3435132   6.678   5.285   5.773 -0.0617  0.1988  0.0785
  110MOL    C3535133   6.821   5.347   5.741 -0.4827  0.6635  0.1055
  110MOL    C3635134   6.910   5.251   5.665 -0.0411  0.2074 -0.1157
  110MOL    C3735135   6.924   5.236   5.524  0.2601 -0.7864 -0.5251
  110MOL    C3835136   7.021   5.152   5.477 -0.7235  0.2067  0.7152
  110MOL    C3935137   7.107   5.082   5.561  0.0163  0.8327 -0.0193
  110MOL    C4035138   7.098   5.086   5.698 -0.0672 -0.7614  0.3224
  110MOL    C4135139   6.997   5.172   5.753 -0.0306 -0.5027  0.2698
  110MOL    H4235140   6.613   5.285   5.687 -0.0615 -1.7480  0.0739
  110MOL    H4335141   6.692   5.179   5.794  1.8819  0.8645  2.4129
  110MOL    H4435142   6.874   5.370   5.834 -0.4805 -1.8619  0.7706
  110MOL    H4535143   6.857   5.287   5.456 -1.2743 -1.8679  0.1598
  110MOL    H4635144   7.048   5.154   5.372 -0.5162  1.9400  0.7887
  110MOL    H4735145   7.181   5.026   5.506 -1.2475 -0.2487 -0.6329
  110MOL    H4835146   7.163   5.031   5.763  1.1482 -1.1250 -1.1698
  110MOL    H4935147   6.979   5.173   5.860  0.7656 -0.6623  0.4094
  110MOL    C5035148   6.811   5.475   5.656  0.2236 -0.3915 -0.2813
  110MOL    C5135149   6.934   5.567   5.641  0.2093  0.0796  0.3487
  110MOL    C5235150   6.907   5.648   5.512 -0.2840 -0.0368 -0.6557
  110MOL    C5335151   6.805   5.746   5.512  0.1739 -0.3112 -0.8526
  110MOL    C5435152   6.769   5.816   5.395 -0.1346 -0.2265  0.4647
  110MOL    C5535153   6.853   5.801   5.279  0.4806 -0.6906  0.0400
  110MOL    C5635154   6.958   5.704   5.280  0.1312  0.0828  1.0455
  110MOL    C5735155   6.977   5.625   5.392 -0.0723 -0.4497 -0.2288
  110MOL    H5835156   6.734   5.543   5.693  0.5268 -0.4533  0.4801
  110MOL    H5935157   6.766   5.451   5.560 -1.8334 -1.0100  0.7991
  110MOL    H6035158   7.016   5.502   5.612 -0.8581 -0.0242 -2.5333
  110MOL    H6135159   6.754   5.767   5.605  1.6568  0.9512 -0.3105
  110MOL    H6235160   6.687   5.886   5.398 -1.4070 -1.7241  1.8354
  110MOL    H6335161   6.831   5.862   5.192  0.1668  0.7995  1.1533
  110MOL    H6435162   7.011   5.689   5.186 -3.7598 -2.6751 -0.8379
  110MOL    H6535163   7.045   5.541   5.382 -0.3015 -0.8897  1.8342
  110MOL    C6635164   6.956   5.668   5.758  0.2475 -0.2894 -0.3282
  110MOL    C6735165   7.036   5.610   5.879  0.9029  0.3737  0.1459
  110MOL    C6835166   7.175   5.561   5.845 -0.2974 -0.3778 -0.1977
  110MOL    C6935167   7.264   5.647   5.775 -0.6845  0.2684  0.5247
  110MOL    C7035168   7.391   5.604   5.736  0.2170 -0.3506 -0.2660
  110MOL    C7135169   7.433   5.474   5.771 -0.2010  0.2012 -1.0914
  110MOL    C7235170   7.345   5.388   5.846  0.4032  0.1373  0.4101
  110MOL    C7335171   7.214   5.429   5.875  0.2118  0.2035 -0.4219
  110MOL    H7435172   6.860   5.706   5.793  0.3155  1.3510 -1.8291
  110MOL    H7535173   7.007   5.756   5.721  2.2645 -1.7899 -1.2078
  110MOL    H7635174   6.979   5.530   5.924 -0.7865  0.3616 -1.9317
  110MOL    H7735175   7.224   5.746   5.755 -1.5465 -0.2720 -0.4900
  110MOL    H7835176   7.459   5.678   5.697  1.1602 -0.8716  0.3639
  110MOL    H7935177   7.534   5.438   5.769  0.0190  0.7145  0.3461
  110MOL    H8035178   7.381   5.291   5.876  1.3454  0.2576 -0.2784
  110MOL    H8135179   7.140   5.365   5.919 -0.1140  0.9920  0.1728
  110MOL    C8235180   7.045   5.718   5.985 -0.0810 -0.6478  0.1529
  110MOL    C8335181   7.138   5.693   6.101 -0.2718  0.0707  0.0707
  110MOL    C8435182   7.161   5.827   6.170 -0.2049  0.9175  0.2725
  110MOL    C8535183   7.055   5.908   6.212 -0.0688 -0.4326 -0.3114
  110MOL    C8635184   7.083   6.040   6.263  0.3502 -0.4434  0.1390
  110MOL    C8735185   7.220   6.084   6.260 -0.0232  0.4772 -0.3345
  110MOL    C8835186   7.323   6.005   6.206 -0.1839 -0.8337  0.0875
  110MOL    C8935187   7.296   5.876   6.166 -0.2807  0.6395 -0.1663
  110MOL    H9035188   6.939   5.719   6.010  0.3131 -1.0091  1.9175
  110MOL    H9135189   7.070   5.816   5.945 -1.9120  0.2887  1.2697
  110MOL    H9235190   7.232   5.651   6.065  0.3747  1.3326  0.2497
  110MOL    H9335191   6.954   5.871   6.220 -0.5904  1.0354  0.2985
  110MOL    H9435192   7.007   6.097   6.314  0.6631  0.0690  0.0391
  110MOL    H9535193   7.239   6.180   6.306 -0.8821 -0.3556  1.7997
  110MOL    H9635194   7.426   6.036   6.199 -0.0657 -1.4473 -0.8946
  110MOL    H9735195   7.368   5.811   6.118 -1.2202 -0.6044  0.0874
  110MOL    C9835196   7.086   5.592   6.204  0.2202 -0.6760 -0.3048
  110MOL    C9935197   7.177   5.479   6.248 -0.3217 -0.5587 -0.5868
  110MOL   C10035198   7.265   5.531   6.364 -0.1606  0.4796  0.6153
  110MOL   C10135199   7.229   5.523   6.500  0.1903 -0.1093 -0.4986
  110MOL   C10235200   7.304   5.589   6.604  0.4066 -0.1232  0.3594
  110MOL   C10335201   7.412   5.668   6.568 -0.0061 -0.5319 -0.4266
  110MOL   C10435202   7.459   5.671   6.437  0.5109  0.2603  0.0891
  110MOL   C10535203   7.387   5.600   6.336 -0.7911 -0.6609  0.7733
  110MOL   H10635204   7.006   5.541   6.150 -0.4045 -0.3155  0.2767
  110MOL   H10735205   7.050   5.639   6.295  1.5966 -2.2680  1.0745
  110MOL   H10835206   7.244   5.459   6.164 -1.0446 -0.1583 -1.2591
  110MOL   H10935207   7.137   5.469   6.516  0.1908  0.4045  1.2873
  110MOL   H11035208   7.265   5.564   6.701  0.5797 -2.3111 -0.0950
  110MOL   H11135209   7.471   5.721   6.641 -0.6040  0.6363 -0.7874
  110MOL   H11235210   7.537   5.742   6.416 -0.5537  1.3797 -0.1339
  110MOL   H11335211   7.433   5.601   6.239  0.1385 -0.0297  1.2196
  110MOL   C11435212   7.093   5.355   6.283  0.1885  0.6600  0.2115
  110MOL   C11535213   7.179   5.233   6.303  0.5184 -0.5727  0.0816
  110MOL   C11635214   7.100   5.123   6.377 -0.6280 -0.5313 -0.3436
  110MOL   C11735215   7.133   5.084   6.506 -0.5681  0.4524  0.2052
  110MOL   C11835216   7.056   4.985   6.566 -0.7212  0.5029  0.3121
  110MOL   C11935217   6.954   4.915   6.501 -0.2012  0.0403  0.2012
  110MOL   C12035218   6.918   4.957   6.371  0.5725 -0.6516  0.4637
  110MOL   C12135219   6.992   5.059   6.310 -0.2346 -0.2130  0.1785
  110MOL   H12235220   7.020   5.327   6.206  1.6279 -1.7351 -0.3356
  110MOL   H12335221   7.025   5.367   6.368  1.0651  0.4411  0.9507
  110MOL   H12435222   7.254   5.268   6.375  0.9610  1.3350 -1.2849
  110MOL   H12535223   7.211   5.127   6.567 -2.3184  0.4868  2.4862
  110MOL   H12635224   7.089   4.946   6.662 -0.9681 -2.5057 -0.7671
  110MOL   H12735225   6.900   4.836   6.552  2.0914 -1.4858  0.3720
  110MOL   H12835226   6.850   4.901   6.309 -0.2789 -0.7783  1.4849
  110MOL   H12935227   6.963   5.082   6.208  0.9110 -0.0372 -0.1148
  110MOL   C13035228   7.253   5.186   6.175  0.5754  0.7359 -0.0087
  110MOL   C13135229   7.338   5.055   6.186  0.3482  0.3718 -0.8737
  110MOL   C13235230   7.256   4.920   6.171  0.0763  0.3992 -0.2562
  110MOL   C13335231   7.232   4.838   6.278 -0.0787 -0.3972  0.0383
  110MOL   C13435232   7.159   4.719   6.268  0.1324 -0.5250  0.2362
  110MOL   C13535233   7.112   4.681   6.148  0.4878 -0.3092  0.4500
  110MOL   C13635234   7.117   4.765   6.034  0.0577 -0.4947  0.0234
  110MOL   C13735235   7.188   4.886   6.051  0.2406 -0.2202 -0.1767
  110MOL   H13835236   7.317   5.268   6.144  0.1448  0.6086 -1.2279
  110MOL   H13935237   7.182   5.172   6.094 -0.8558 -2.3106  1.6686
  110MOL   H14035238   7.380   5.048   6.287 -0.1023 -3.2050 -0.8644
  110MOL   H14135239   7.274   4.857   6.376 -1.3709 -0.0360  0.5393
  110MOL   H14235240   7.141   4.648   6.348  0.8185 -0.0435  0.8257
  110MOL   H14335241   7.050   4.592   6.143 -0.8721  0.5007  2.1655
  110MOL   H14435242   7.077   4.735   5.938  0.2371  1.2771 -0.6303
  110MOL   H14535243   7.202   4.953   5.968  2.1055 -2.0425 -1.3920
  110MOL   C14635244   7.458   5.062   6.089 -0.4447  0.1931 -0.4438
  110MOL   C14735245   7.570   5.173   6.116 -0.5287 -0.3716  0.2779
  110MOL   C14835246   7.595   5.195   6.266  0.2377  0.0951  0.0865
  110MOL   C14935247   7.650   5.094   6.345 -0.0089 -0.1721 -0.2481
  110MOL   C15035248   7.664   5.109   6.484  0.0122 -0.3468  0.6803
  110MOL   C15135249   7.643   5.232   6.538 -0.3827 -0.6009 -0.4395
  110MOL   C15235250   7.615   5.343   6.457 -0.3857  0.3623  0.0089
  110MOL   C15335251   7.585   5.323   6.321  0.1112  0.3899  0.4517
  110MOL   H15435252   7.425   5.064   5.985  0.0080 -1.4039 -0.6407
  110MOL   H15535253   7.502   4.965   6.111  0.6675  1.2143  2.0652
  110MOL   H15635254   7.540   5.266   6.066 -1.4088 -1.4552 -1.2489
  110MOL   H15735255   7.673   4.996   6.305 -1.5871 -0.1590 -1.2267
  110MOL   H15835256   7.676   5.013   6.531  1.1243 -0.3444  0.4182
  110MOL   H15935257   7.651   5.251   6.644  1.1577  0.9682 -0.8176
  110MOL   H16035258   7.597   5.440   6.501 -1.6917 -1.0245  2.6014
  110MOL   H16135259   7.549   5.396   6.250  0.1643 -1.0268 -1.0444
  110MOL   C16235260   7.696   5.135   6.034  0.2274  0.3336 -0.2342
  110MOL   C16335261   7.818   5.234   6.043  0.0373  0.9178  0.3457
  110MOL   C16435262   7.949   5.163   6.017 -0.3758  0.2673 -0.2093
  110MOL   C16535263   8.007   5.152   5.888 -0.9132  0.0498  0.4210
  110MOL   C16635264   0.008   5.079   5.868 -0.1786 -0.6517 -0.0013
  110MOL   C16735265   0.076   5.012   5.972  0.0158  0.4705 -0.0818
  110MOL   C16835266   0.017   5.019   6.098  0.4549 -0.2929  0.1309
  110MOL   C16935267   8.012   5.088   6.124  0.1509  0.0635  0.1910
  110MOL   H17035268   7.665   5.119   5.931 -0.1756  0.9501 -0.2075
  110MOL   H17135269   7.741   5.041   6.067 -0.3056  0.0624 -0.2659
  110MOL   H17235270   7.820   5.259   6.149 -1.5083 -0.3143  0.7021
  110MOL   H17335271   7.947   5.186   5.805 -2.8791 -1.0272  1.3471
  110MOL   H17435272   0.050   5.082   5.769 -1.4563  0.1909 -0.5279
  110MOL   H17535273   0.168   4.957   5.960 -0.9538 -1.5452  1.2042
  110MOL   H17635274   0.063   4.971   6.183 -1.8893 -0.1935  1.4989
  110MOL   H17735275   7.983   5.093   6.228  1.3020  1.0020  0.4749
  110MOL   C17835276   7.793   5.360   5.967  0.6142  0.2389 -0.1637
  110MOL   C17935277   7.906   5.463   5.952 -0.0245 -0.3381  0.7864
  110MOL   C18035278   7.901   5.537   5.822  0.2610 -0.6493  0.2707
  110MOL   C18135279   7.773   5.601   5.788  0.4838 -0.5735 -0.6143
  110MOL   C18235280   7.767   5.688   5.679 -0.1251  0.2175  0.2166
  110MOL   C18335281   7.883   5.704   5.600  0.5242 -0.6472 -0.1142
  110MOL   C18435282   8.010   5.648   5.629 -0.7693 -0.5130 -1.0361
  110MOL   C18535283   8.020   5.567   5.745  0.0497  0.3893 -0.6473
  110MOL   H18635284   7.704   5.410   6.004  1.9917  2.0255  0.8728
  110MOL   H18735285   7.763   5.324   5.868  2.0884  0.1330 -0.5938
  110MOL   H18835286   8.001   5.410   5.954 -0.3907 -1.0709 -0.2678
  110MOL   H18935287   7.691   5.593   5.858 -0.7140 -1.5115 -2.0980
  110MOL   H19035288   7.678   5.745   5.654 -1.0922 -1.8464 -1.1797
  110MOL   H19135289   7.885   5.781   5.524 -0.3402  0.3101  0.8149
  110MOL   H19235290   8.088   5.681   5.563 -3.0355  0.9706 -3.0660
  110MOL   H19335291   0.001   5.527   5.775  0.3045  1.0282 -0.6011
  110MOL   C19435292   7.907   5.563   6.069  0.0603  0.1348  0.4171
  110MOL   C19535293   7.980   5.511   6.193  0.5725  0.0219  0.2156
  110MOL   C19635294   0.016   5.540   6.182 -0.1736 -0.4970 -0.1941
  110MOL   C19735295   0.071   5.671   6.206 -0.1314  0.1939 -0.0837
  110MOL   C19835296   0.201   5.703   6.178 -0.2792  0.3846 -0.8340
  110MOL   C19935297   0.291   5.606   6.130  0.5180 -0.5250 -0.1752
  110MOL   C20035298   0.240   5.476   6.116  0.3059  0.2488  0.4463
  110MOL   C20135299   0.101   5.445   6.131 -0.1738  0.5979  0.0658
  110MOL   H20235300   7.804   5.598   6.082 -0.2200  1.0854 -3.7445
  110MOL   H20335301   7.964   5.647   6.029  0.2474 -0.7456 -1.1796
  110MOL   H20435302   7.968   5.403   6.201 -0.0851  0.1884  1.7718
  110MOL   H20535303   8.111   5.746   6.226  0.0060 -0.2754  2.3391
  110MOL   H20635304   0.239   5.804   6.187  1.4649 -0.1860 -1.4889
  110MOL   H20735305   0.395   5.626   6.108  0.8233 -0.5033  1.2665
  110MOL   H20835306   0.299   5.391   6.085  0.4388 -0.6032  2.9167
  110MOL   H20935307   0.068   5.345   6.105  0.7065  0.0851  0.8875
  110MOL   C21035308   7.919   5.569   6.323  0.1833 -0.5121 -0.0400
  110MOL   C21135309   8.008   5.540   6.448 -0.4323 -0.2843  0.5512
  110MOL   C21235310   7.965   5.621   6.573 -0.4088 -0.0001 -0.5476
  110MOL   C21335311   8.066   5.665   6.663 -0.3319  0.4694 -0.2946
  110MOL   C21435312   8.027   5.743   6.772 -0.8015 -0.1805  0.9876
  110MOL   C21535313   7.897   5.780   6.800  0.0426  0.0701 -0.2172
  110MOL   C21635314   7.798   5.733   6.714 -0.8900  0.2487  0.0804
  110MOL   C21735315   7.832   5.651   6.604  0.0390 -0.4706 -0.2408
  110MOL   H21835316   7.817   5.544   6.351 -0.6588  0.8652 -1.8183
  110MOL   H21935317   7.920   5.677   6.328 -0.9473 -0.5693  1.9194
  110MOL   H22035318   8.107   5.582   6.431 -1.1600  0.9544 -0.8996
  110MOL   H22135319   0.053   5.632   6.655 -1.0723 -1.6378 -1.6820
  110MOL   H22235320   8.098   5.779   6.845 -0.5214 -0.9422  1.0905
  110MOL   H22335321   7.872   5.838   6.888 -0.3593  1.4154 -1.2078
  110MOL   H22435322   7.694   5.760   6.726 -0.3358  1.5290  2.1533
  110MOL   H22535323   7.756   5.625   6.531 -0.1121  0.4704 -0.4299
  110MOL   C22635324   8.028   5.388   6.490 -0.5456 -0.0267  0.5902
  110MOL   C22735325   0.066   5.337   6.482 -0.3902 -0.7768 -0.1885
  110MOL   C22835326   0.161   5.422   6.569  0.5446 -0.9357  0.4112
  110MOL   C22935327   0.155   5.416   6.710  0.3058  0.2177 -0.0830
  110MOL   C23035328   0.240   5.495   6.789 -0.0574  0.0625  0.4852
  110MOL   C23135329   0.332   5.576   6.717  0.2183 -0.4359 -0.4430
  110MOL   C23235330   0.345   5.582   6.574  0.2871  0.3682 -0.5039
  110MOL   C23335331   0.254   5.511   6.502 -0.2468 -0.3185 -0.1221
  110MOL   H23435332   7.963   5.338   6.419  0.5847  1.7428 -1.7659
  110MOL   H23535333   8.000   5.368   6.594  1.9397 -2.0259  0.9351
  110MOL   H23635334   0.100   5.353   6.379  1.9111  0.7232  0.7810
  110MOL   H23735335   0.088   5.344   6.755  0.4577 -0.5052 -1.0015
  110MOL   H23835336   0.218   5.506   6.894 -0.6305 -1.0083  0.4835
  110MOL   H23935337   0.387   5.651   6.773 -2.1759  0.9477  0.0964
  110MOL   H24035338   0.413   5.650   6.525 -0.1187 -0.8854 -2.8305
  110MOL   H24135339   0.257   5.517   6.394 -1.9670  1.7938 -0.0890
  110MOL   C24235340   0.070   5.192   6.519 -1.0838  0.0866 -0.4758
  110MOL   C24335341   0.212   5.133   6.521  0.3558 -0.0263 -0.3101
  110MOL   C24435342   0.229   5.007   6.602  0.5887 -0.8038 -0.1389
  110MOL   C24535343   0.148   4.903   6.560 -0.1024  0.5177 -0.6406
  110MOL   C24635344   0.144   4.788   6.647  0.3317 -0.4043  0.0560
  110MOL   C24735345   0.224   4.776   6.766 -0.4885 -0.3656 -0.3128
  110MOL   C24835346   0.313   4.881   6.797 -0.5948  1.2311 -0.0314
  110MOL   C24935347   0.317   4.996   6.712 -0.5659 -0.4344  0.2765
  110MOL   H25035348   8.112   5.137   6.459  1.0519 -0.5424 -2.5581
  110MOL   H25135349   0.035   5.190   6.622 -2.7473 -1.0998 -1.0413
  110MOL   H25235350   0.263   5.209   6.580 -1.5537  0.7934  0.2984
  110MOL   H25335351   0.074   4.908   6.481 -0.1055 -1.6438 -0.8004
  110MOL   H25435352   0.075   4.705   6.635  1.6352 -1.2596 -1.7233
  110MOL   H25535353   0.225   4.682   6.820 -4.3943  0.5549  1.6211
  110MOL   H25635354   0.388   4.876   6.875  1.4365  2.3531 -1.8280
  110MOL   H25735355   0.378   5.081   6.739  0.2924 -0.7079 -0.7664
  110MOL   C25835356   0.279   5.120   6.382  0.0106 -0.2623 -0.0660
  110MOL   C25935357   0.430   5.131   6.382  0.2695  0.1904 -0.1927
  110MOL   C26035358   0.496   5.063   6.259 -0.0879 -0.1291  0.6322
  110MOL   C26135359   0.437   5.070   6.136 -0.2253 -0.1895  1.1496
  110MOL   C26235360   0.499   5.005   6.021 -0.4996  0.2383  0.1774
  110MOL   C26335361   0.611   4.927   6.035  0.1000  0.1017  0.1788
  110MOL   C26435362   0.675   4.925   6.160 -0.3046 -0.3385  0.0900
  110MOL   C26535363   0.619   4.996   6.268 -0.2214  0.5149 -0.0771
  110MOL   H26635364   0.237   5.197   6.316  3.0384  1.0725 -0.5258
  110MOL   H26735365   0.246   5.022   6.346  1.7581 -0.3756 -1.4071
  110MOL   H26835366   0.463   5.079   6.473  2.1529  0.3904 -0.7407
  110MOL   H26935367   0.341   5.121   6.132  0.7858  1.6308 -1.1361
  110MOL   H27035368   0.446   5.007   5.927  0.0045  0.2165 -0.1108
  110MOL   H27135369   0.641   4.862   5.954  0.4614 -0.0954  0.4702
  110MOL   H27235370   0.765   4.866   6.162 -0.1257 -0.1457 -1.5825
  110MOL   H27335371   0.664   4.989   6.366 -2.5116 -0.1501  0.9546
  110MOL   C27435372   0.475   5.279   6.413  0.7896  0.0221 -0.4336
  110MOL   C27535373   0.627   5.302   6.383 -0.5305 -0.4518  0.5070
  110MOL   C27635374   0.664   5.366   6.252  0.1001 -0.3011 -0.3024
  110MOL   C27735375   0.738   5.291   6.155 -0.1391 -0.7194  0.8356
  110MOL   C27835376   0.773   5.344   6.023  0.8183 -0.0346 -1.1935
  110MOL   C27935377   0.756   5.483   6.000 -0.6930  0.5007 -0.2990
  110MOL   C28035378   0.693   5.559   6.100  0.1480 -1.2484  0.2833
  110MOL   C28135379   0.647   5.508   6.221 -0.2831 -0.1731 -0.6778
  110MOL   H28235380   0.458   5.290   6.520 -0.9768  0.2582 -0.7205
  110MOL   H28335381   0.409   5.350   6.363 -0.8870 -0.7524  0.6180
  110MOL   H28435382   0.693   5.215   6.386  2.7880  1.8968 -0.8941
  110MOL   H28535383   0.755   5.185   6.166  1.6196 -0.4192  1.0873
  110MOL   H28635384   0.820   5.286   5.945  0.5930 -0.5018 -0.9909
  110MOL   H28735385   0.784   5.534   5.910  0.7443  1.5194  0.7070
  110MOL   H28835386   0.671   5.659   6.067 -0.1718 -0.3594  3.1141
  110MOL   H28935387   0.590   5.566   6.293  0.5255  1.8327 -1.6309
  110MOL   C29035388   0.703   5.388   6.488  0.7098  0.4719 -0.1528
  110MOL   C29135389   0.725   5.322   6.628  0.3586  0.3424 -0.5358
  110MOL   C29235390   0.807   5.189   6.626  0.4821  1.0946  0.4593
  110MOL   C29335391   0.733   5.065   6.632 -0.3730  0.5666  0.2183
  110MOL   C29435392   0.803   4.943   6.607  0.1591  0.1394  0.0897
  110MOL   C29535393   0.940   4.938   6.582 -0.1903 -0.0206 -0.2716
  110MOL   C29635394   1.008   5.060   6.581 -0.2675  0.3443  0.2667
  110MOL   C29735395   0.943   5.181   6.610  0.0743 -0.0316 -0.1872
  110MOL   H29835396   0.648   5.482   6.488 -0.0247  0.0436 -0.2972
  110MOL   H29935397   0.800   5.415   6.446  0.7511 -0.0354 -0.3891
  110MOL   H30035398   0.627   5.299   6.669  0.9437 -1.3659 -0.0580
  110MOL   H30135399   0.626   5.061   6.644 -0.6401  3.0508 -1.0124
  110MOL   H30235400   0.749   4.849   6.598  0.1446  0.3314 -1.8553
  110MOL   H30335401   0.991   4.844   6.568  2.1167  1.2072 -0.3979
  110MOL   H30435402   1.115   5.064   6.572 -0.2082  0.2987  0.9237
  110MOL   H30535403   1.004   5.270   6.619 -0.9588  0.3837  3.3796
  110MOL   C30635404   0.789   5.435   6.715 -0.5045 -0.4454  0.2315
  110MOL   C30735405   0.672   5.516   6.772  0.3215 -0.2559 -0.2216
  110MOL   C30835406   0.711   5.624   6.867  0.7521 -0.8456  0.9519
  110MOL   C30935407   0.742   5.601   7.000  0.1163 -0.1134 -0.3118
  110MOL   C31035408   0.762   5.703   7.091  0.3864  0.5026 -0.0925
  110MOL   C31135409   0.756   5.836   7.044  0.2403 -0.6109  0.1766
  110MOL   C31235410   0.713   5.868   6.908  0.2174  0.3471 -0.7790
  110MOL   C31335411   0.677   5.759   6.830  0.4048  0.3221  0.0716
  110MOL   H31435412   0.859   5.497   6.659 -0.5065 -0.3944  0.2851
  110MOL   H31535413   0.845   5.396   6.800  0.6632  1.4296  0.3471
  110MOL   H31635414   0.607   5.450   6.831 -1.2915 -0.7685 -2.5149
  110MOL   H31735415   0.757   5.500   7.037  0.3637  0.6544  1.7431
  110MOL   H31835416   0.791   5.693   7.195 -0.4009 -0.3467  0.0586
  110MOL   H31935417   0.785   5.919   7.107  1.6210 -0.1166 -1.0729
  110MOL   H32035418   0.707   5.969   6.870 -0.1333  0.1407 -1.2751
  110MOL   H32135419   0.622   5.785   6.741  0.1737  0.3214  0.2130
  110MOL   H32235420   0.615   5.562   6.692 -0.3054  1.0683  0.9694
  111MOL     C135421   5.373   7.175   5.509 -0.1997  0.6077 -0.5356
  111MOL     C235422   5.490   7.081   5.560  0.1611 -0.1896 -0.0428
  111MOL     C335423   5.555   7.016   5.440  0.1913  0.5357 -0.0961
  111MOL     C435424   5.646   7.093   5.362  0.7222  0.2288  0.4336
  111MOL     C535425   5.707   7.021   5.257  0.7131  0.0863 -0.0978
  111MOL     C635426   5.681   6.880   5.234 -0.2972 -0.0032 -0.1041
  111MOL     C735427   5.586   6.807   5.304  0.8104  0.6155 -0.1945
  111MOL     C835428   5.527   6.876   5.415 -0.4973  0.2656 -0.0320
  111MOL     H935429   5.300   7.125   5.446  0.2638 -0.7323 -0.0293
  111MOL    H1035430   5.324   7.227   5.592 -0.2221 -1.5999  0.8815
  111MOL    H1135431   5.444   7.010   5.628 -0.3068 -0.3034 -0.4745
  111MOL    H1235432   5.667   7.199   5.374 -2.0640  0.8191  0.4436
  111MOL    H1335433   5.762   7.083   5.187  0.3326  2.1053  1.3650
  111MOL    H1435434   5.743   6.825   5.164  0.4641  0.9749 -0.2104
  111MOL    H1535435   5.560   6.703   5.288  0.3499  0.5217  1.1439
  111MOL    H1635436   5.457   6.821   5.476 -1.3221  0.0435 -1.1755
  111MOL    H1735437   5.412   7.256   5.447 -0.2031  0.9967 -0.0339
  111MOL    C1835438   5.592   7.162   5.651  0.1302 -0.2227  0.4556
  111MOL    C1935439   5.711   7.068   5.693  0.6553  0.3807  0.4198
  111MOL    C2035440   5.835   7.154   5.726  0.0242 -0.0079 -0.2651
  111MOL    C2135441   5.960   7.120   5.682  0.4227  0.0169 -0.2532
  111MOL    C2235442   6.069   7.210   5.706  0.5541 -0.0885  0.0139
  111MOL    C2335443   6.049   7.327   5.772  0.3289 -0.2110  0.2272
  111MOL    C2435444   5.917   7.364   5.805  0.0072  1.4404 -0.8496
  111MOL    C2535445   5.812   7.273   5.793 -0.7407 -0.5238 -0.3062
  111MOL    H2635446   5.540   7.204   5.736 -0.8785  1.0801 -0.7752
  111MOL    H2735447   5.634   7.246   5.596  2.1678 -2.0322 -0.8716
  111MOL    H2835448   5.756   7.000   5.621 -1.2705 -0.4707 -0.0290
  111MOL    H2935449   5.970   7.025   5.632 -0.9322  0.6533 -1.7715
  111MOL    H3035450   6.170   7.174   5.691  0.0991 -2.2209  1.7933
  111MOL    H3135451   6.133   7.392   5.794  0.8557 -1.0059  0.5661
  111MOL    H3235452   5.900   7.464   5.844  1.1425  1.1684  0.3958
  111MOL    H3335453   5.709   7.297   5.819 -0.7097 -1.0330  0.2885
  111MOL    C3435454   5.679   6.962   5.807  0.3425 -0.3110 -1.0132
  111MOL    C3535455   5.608   7.014   5.941  0.7004  0.2436 -0.1494
  111MOL    C3635456   5.453   7.026   5.915 -0.5563  0.1740 -0.8128
  111MOL    C3735457   5.389   7.147   5.948 -0.6007 -0.3674  0.4026
  111MOL    C3835458   5.250   7.160   5.935 -0.8111 -0.0152  0.0505
  111MOL    C3935459   5.173   7.054   5.890 -0.4913 -0.0225 -0.0561
  111MOL    C4035460   5.232   6.930   5.867  0.3107 -0.1837 -0.8711
  111MOL    C4135461   5.371   6.913   5.882 -0.1283  0.1818 -0.3639
  111MOL    H4235462   5.776   6.917   5.829  0.7250  1.6464  1.5344
  111MOL    H4335463   5.613   6.880   5.778  0.5167 -0.8555  0.0996
  111MOL    H4435464   5.640   7.116   5.965  0.5240  0.4653 -0.8187
  111MOL    H4535465   5.448   7.232   5.978 -1.7047 -0.0081  1.5489
  111MOL    H4635466   5.206   7.247   5.980 -2.0152 -0.9258  0.6885
  111MOL    H4735467   5.066   7.066   5.884 -0.4628  1.1117  1.3208
  111MOL    H4835468   5.175   6.843   5.836 -0.2360 -1.1433  2.5906
  111MOL    H4935469   5.415   6.815   5.867 -0.9923  0.1211 -2.6236
  111MOL    C5035470   5.635   6.925   6.063  0.0943  0.5328  0.4194
  111MOL    C5135471   5.737   6.982   6.161 -0.3244 -0.0060  0.7128
  111MOL    C5235472   5.717   7.131   6.194 -0.0761  0.3474  0.0548
  111MOL    C5335473   5.810   7.226   6.143 -0.2772  0.4091  0.4580
  111MOL    C5435474   5.791   7.365   6.163 -0.0897  0.5752 -0.9534
  111MOL    C5535475   5.698   7.407   6.257 -0.2291 -0.1013  1.5490
  111MOL    C5635476   5.613   7.318   6.321 -0.6753 -0.5290 -0.0742
  111MOL    C5735477   5.622   7.181   6.286  0.9238  0.5736 -0.2416
  111MOL    H5835478   5.661   6.822   6.040  1.8731  1.2854 -1.0640
  111MOL    H5935479   5.540   6.911   6.115 -0.7794  0.6551 -1.1193
  111MOL    H6035480   5.834   6.968   6.113 -0.3229 -0.8390  0.9516
  111MOL    H6135481   5.882   7.191   6.071 -2.0339 -1.5113 -0.4340
  111MOL    H6235482   5.852   7.431   6.104  0.9975  1.3171  0.9564
  111MOL    H6335483   5.678   7.513   6.266 -0.6285 -0.0689  0.3787
  111MOL    H6435484   5.542   7.361   6.390 -1.9779 -1.7166 -0.6350
  111MOL    H6535485   5.560   7.113   6.342  1.2464  0.6437  0.2027
  111MOL    C6635486   5.735   6.892   6.289 -0.7325  0.0021 -0.0583
  111MOL    C6735487   5.853   6.934   6.387  0.3807 -0.1802  0.3828
  111MOL    C6835488   5.801   7.000   6.512  0.0449 -0.0558 -0.3160
  111MOL    C6935489   5.696   6.950   6.584  0.3008 -0.1059  1.2704
  111MOL    C7035490   5.659   7.004   6.708 -0.2323  0.1610 -0.0950
  111MOL    C7135491   5.729   7.108   6.771 -0.2146  0.7261  0.3192
  111MOL    C7235492   5.823   7.174   6.693  0.0763 -0.0745 -0.2779
  111MOL    C7335493   5.859   7.120   6.568  0.1247  0.2271  0.7051
  111MOL    H7435494   5.761   6.794   6.248 -2.1556  0.4003 -2.0091
  111MOL    H7535495   5.641   6.895   6.343 -0.3618  0.1619  0.5753
  111MOL    H7635496   5.914   7.012   6.342  0.0783 -0.2090 -0.0796
  111MOL    H7735497   5.653   6.856   6.551  0.0641  0.0628  1.0912
  111MOL    H7835498   5.571   6.969   6.758 -0.7051  0.8063 -0.4547
  111MOL    H7935499   5.702   7.140   6.871 -2.6457  0.3106 -0.1729
  111MOL    H8035500   5.870   7.264   6.731 -0.2186 -0.2337  0.4596
  111MOL    H8135501   5.941   7.163   6.511 -0.7603  0.2335 -0.5902
  111MOL    C8235502   5.950   6.825   6.414 -0.4141 -0.0683  0.4164
  111MOL    C8335503   6.086   6.860   6.483 -0.7180  0.4187 -0.8189
  111MOL    C8435504   6.074   6.811   6.632  0.4122 -0.2739 -0.8626
  111MOL    C8535505   6.057   6.904   6.733 -0.3145 -0.2549  0.2374
  111MOL    C8635506   6.063   6.859   6.864  0.7161 -0.2098 -0.3898
  111MOL    C8735507   6.071   6.723   6.897  0.3120 -0.3983  0.6836
  111MOL    C8835508   6.077   6.625   6.799  0.5237 -0.2165  0.4506
  111MOL    C8935509   6.090   6.668   6.660  0.3907 -0.0560  0.2945
  111MOL    H9035510   5.968   6.767   6.323  0.7523  0.9921 -0.0503
  111MOL    H9135511   5.892   6.754   6.472  0.6768  0.0747  1.7024
  111MOL    H9235512   6.101   6.968   6.481  1.0035  0.2132 -0.3413
  111MOL    H9335513   6.060   7.010   6.709  1.6054  0.2047  2.3191
  111MOL    H9435514   6.054   6.932   6.943 -1.7912 -1.3545  0.4080
  111MOL    H9535515   6.067   6.688   6.999  0.5663  1.0371  1.1953
  111MOL    H9635516   6.072   6.521   6.826 -0.9242 -0.6247 -1.3057
  111MOL    H9735517   6.112   6.598   6.581 -0.3587  0.4475 -0.3618
  111MOL    C9835518   6.215   6.815   6.410  0.0883  0.0238 -0.0839
  111MOL    C9935519   6.260   6.891   6.288  0.1515  0.2545  0.2773
  111MOL   C10035520   6.251   7.042   6.290  0.3191 -0.3828 -0.1235
  111MOL   C10135521   6.296   7.119   6.398 -0.0989  0.1085 -0.2851
  111MOL   C10235522   6.282   7.259   6.400  0.4443  0.7329 -0.4780
  111MOL   C10335523   6.233   7.326   6.288 -0.0412 -0.1980  0.0328
  111MOL   C10435524   6.183   7.246   6.182  0.4379  0.7805  0.6756
  111MOL   C10535525   6.181   7.103   6.183 -0.1012  0.3633 -0.1266
  111MOL   H10635526   6.207   6.710   6.381  1.5935 -0.2939  0.6010
  111MOL   H10735527   6.293   6.821   6.486 -0.1206  1.4712  0.0210
  111MOL   H10835528   6.178   6.867   6.221  0.8857 -2.3077  0.2119
  111MOL   H10935529   6.335   7.073   6.487  0.3091 -2.7765 -1.8591
  111MOL   H11035530   6.322   7.321   6.479 -0.1969  2.3465 -1.3879
  111MOL   H11135531   6.214   7.432   6.276 -0.1588 -0.2063  0.1408
  111MOL   H11235532   6.145   7.302   6.097  2.3596 -3.0508 -2.8806
  111MOL   H11335533   6.141   7.045   6.101 -1.3186 -1.1444  1.4932
  111MOL   C11435534   6.394   6.848   6.227 -0.7369  1.0180  0.2456
  111MOL   C11535535   6.394   6.702   6.167 -0.6763 -0.2740  0.6728
  111MOL   C11635536   6.272   6.697   6.070 -0.6524 -0.2552  0.5622
  111MOL   C11735537   6.155   6.622   6.103  0.1887  0.4337  1.0068
  111MOL   C11835538   6.039   6.618   6.017 -0.3663 -0.1291  0.1460
  111MOL   C11935539   6.042   6.687   5.893  0.3410  0.2314 -0.2137
  111MOL   C12035540   6.157   6.766   5.864  0.5050 -0.5578  0.1581
  111MOL   C12135541   6.264   6.775   5.949  0.1318 -0.3647 -0.8235
  111MOL   H12235542   6.476   6.853   6.299 -1.2167  0.5015  0.8299
  111MOL   H12335543   6.422   6.921   6.151 -1.0289  0.1293 -0.7260
  111MOL   H12435544   6.381   6.625   6.243  1.1928 -0.2508  1.0309
  111MOL   H12535545   6.158   6.560   6.191 -1.8924 -0.2230  0.6567
  111MOL   H12635546   5.955   6.552   6.038  0.7744 -1.4353  0.7163
  111MOL   H12735547   5.955   6.679   5.829 -0.5287 -1.5539  1.1440
  111MOL   H12835548   6.161   6.825   5.774  1.8028 -1.8075 -0.6227
  111MOL   H12935549   6.343   6.846   5.931  0.2369  0.2628  1.8727
  111MOL   C13035550   6.523   6.670   6.088  0.7055 -0.5849  0.8172
  111MOL   C13135551   6.645   6.602   6.157  0.7024 -0.2403  0.7237
  111MOL   C13235552   6.614   6.459   6.182 -0.2090  0.2342  0.0935
  111MOL   C13335553   6.596   6.365   6.080  0.1890 -0.4874 -0.0584
  111MOL   C13435554   6.584   6.228   6.111  0.5668  0.2860 -0.2871
  111MOL   C13535555   6.591   6.179   6.246 -0.0062 -0.3848  0.4224
  111MOL   C13635556   6.625   6.267   6.348  0.4603 -0.3020  0.4232
  111MOL   C13735557   6.626   6.406   6.318  0.4425 -0.2324 -0.0109
  111MOL   H13835558   6.546   6.759   6.029  3.2031 -0.8817  1.2520
  111MOL   H13935559   6.484   6.597   6.017  0.0728  0.1722  0.3894
  111MOL   H14035560   6.672   6.639   6.255 -0.4797 -1.2240  1.4412
  111MOL   H14135561   6.594   6.399   5.977  0.5167 -0.1039  0.0596
  111MOL   H14235562   6.557   6.161   6.030 -2.0473  1.8738 -0.8081
  111MOL   H14335563   6.577   6.073   6.263 -2.1974 -0.3935 -1.2368
  111MOL   H14435564   6.613   6.230   6.449 -0.6653 -1.2868 -0.0675
  111MOL   H14535565   6.647   6.465   6.406 -1.2369 -1.2781  1.1324
  111MOL   C14635566   6.771   6.615   6.063  0.6821 -0.4445 -0.2352
  111MOL   C14735567   6.904   6.566   6.119  0.2346 -0.1433 -0.1722
  111MOL   C14835568   6.993   6.493   6.022 -0.7240  0.2439  0.4617
  111MOL   C14935569   7.035   6.362   6.050  0.4893  0.0182 -0.5760
  111MOL   C15035570   7.113   6.281   5.966  0.0469  0.3747 -0.8565
  111MOL   C15135571   7.156   6.340   5.846  0.2325  0.0687  0.5772
  111MOL   C15235572   7.121   6.476   5.814 -0.6929  0.6999  0.5311
  111MOL   C15335573   7.034   6.553   5.901 -0.3273  0.4018  0.8616
  111MOL   H15435574   6.773   6.720   6.032 -0.0079 -0.4898 -0.4446
  111MOL   H15535575   6.753   6.555   5.974  3.5510  0.2851 -1.3669
  111MOL   H15635576   6.877   6.491   6.193  0.7937  0.3772  0.5735
  111MOL   H15735577   7.004   6.318   6.144  1.4485  0.3662 -0.0891
  111MOL   H15835578   7.157   6.184   5.982  0.5307  0.9277  1.4753
  111MOL   H15935579   7.222   6.293   5.775 -1.8248 -0.7499 -0.8682
  111MOL   H16035580   7.158   6.513   5.720 -1.4707  1.2559  0.4444
  111MOL   H16135581   7.008   6.656   5.883  0.9068  1.1505  3.2326
  111MOL   C16235582   7.003   6.687   6.168 -0.4642 -0.0151 -0.2264
  111MOL   C16335583   6.979   6.739   6.307 -0.1524 -0.0615 -0.0649
  111MOL   C16435584   6.989   6.616   6.406 -0.3883 -0.0880  0.1487
  111MOL   C16535585   7.105   6.535   6.418  0.5653 -0.3668 -0.3122
  111MOL   C16635586   7.117   6.440   6.515  0.4431 -0.8418 -0.2238
  111MOL   C16735587   7.012   6.423   6.614 -0.4167 -0.1989 -0.0684
  111MOL   C16835588   6.893   6.498   6.603  0.1129  0.1706 -0.7730
  111MOL   C16935589   6.884   6.591   6.498  0.1592 -1.0422 -0.4177
  111MOL   H17035590   7.021   6.758   6.087  4.7019  0.6521  1.3272
  111MOL   H17135591   7.103   6.646   6.182  0.2004  1.5166 -0.3554
  111MOL   H17235592   6.876   6.776   6.310 -0.2370 -0.2377 -0.7421
  111MOL   H17335593   7.189   6.549   6.352 -0.2874 -0.6817 -1.4756
  111MOL   H17435594   7.199   6.371   6.521  0.9097 -0.2390  0.6371
  111MOL   H17535595   7.020   6.352   6.695 -2.5425 -0.6806 -0.2557
  111MOL   H17635596   6.812   6.485   6.674  0.4128 -1.4457 -0.6947
  111MOL   H17735597   6.799   6.656   6.483  0.3645 -0.2619  1.6013
  111MOL   C17835598   7.078   6.855   6.344 -0.0934 -0.0950  0.6440
  111MOL   C17935599   7.027   6.987   6.282 -0.0816  0.1420  0.8330
  111MOL   C18035600   6.905   7.029   6.354 -0.1784  0.1230  0.0088
  111MOL   C18135601   6.779   7.012   6.292  0.7643  0.2230  0.0017
  111MOL   C18235602   6.666   7.059   6.359 -0.5287 -0.1325  0.1376
  111MOL   C18335603   6.672   7.132   6.478  0.6436  0.0720 -0.2322
  111MOL   C18435604   6.793   7.139   6.547  0.3086 -0.2730  0.6646
  111MOL   C18535605   6.909   7.088   6.482 -0.4763  0.3646 -0.1002
  111MOL   H18635606   7.176   6.824   6.308 -0.1333 -0.0743  0.5156
  111MOL   H18735607   7.101   6.862   6.450  0.8063  1.6022  0.3640
  111MOL   H18835608   7.004   6.961   6.179  0.3333 -0.5231  0.9065
  111MOL   H18935609   6.762   6.965   6.196  1.2652  1.4234 -0.6894
  111MOL   H19035610   6.565   7.054   6.320 -0.8669  0.3427  0.9398
  111MOL   H19135611   6.589   7.185   6.523  2.6978  2.9197  0.3738
  111MOL   H19235612   6.798   7.180   6.647  1.4835  0.6333  0.2415
  111MOL   H19335613   6.999   7.101   6.541  0.0781  0.5555 -0.9849
  111MOL   C19435614   7.131   7.104   6.260  0.3104  0.6048  0.2707
  111MOL   C19535615   7.253   7.075   6.174  0.2644 -0.0448 -0.2755
  111MOL   C19635616   7.215   7.010   6.041 -0.3140  0.4167  0.9692
  111MOL   C19735617   7.245   6.879   6.016 -0.0490 -0.6047  0.4649
  111MOL   C19835618   7.217   6.825   5.889  0.2140  0.1067 -0.2150
  111MOL   C19935619   7.165   6.906   5.787 -0.2923 -0.0133 -0.3240
  111MOL   C20035620   7.124   7.034   5.821  0.4827 -0.4129 -0.6343
  111MOL   C20135621   7.141   7.089   5.949 -0.7581 -0.0317  0.4866
  111MOL   H20235622   7.164   7.134   6.359 -0.5489 -0.3316  0.8473
  111MOL   H20335623   7.096   7.191   6.203  0.2188 -0.9192 -2.0987
  111MOL   H20435624   7.307   7.007   6.240 -2.8229 -2.4233 -0.0637
  111MOL   H20535625   7.295   6.818   6.091  0.6070 -0.3703  0.2236
  111MOL   H20635626   7.252   6.726   5.867 -0.9942 -0.5308  0.6801
  111MOL   H20735627   7.139   6.867   5.690  1.9944  2.1655 -1.8837
  111MOL   H20835628   7.077   7.094   5.744  0.6767  0.6281  0.0459
  111MOL   H20935629   7.121   7.192   5.974 -1.3731 -0.4296  1.6928
  111MOL   C21035630   7.333   7.202   6.150  0.3252  0.3111 -0.2302
  111MOL   C21135631   7.461   7.189   6.057 -0.3443  0.0130 -0.0191
  111MOL   C21235632   7.517   7.332   6.028  0.5759 -0.5289 -0.4607
  111MOL   C21335633   7.520   7.440   6.122  0.3843 -0.4710  0.7858
  111MOL   C21435634   7.566   7.569   6.081  0.4027  0.5721  0.4305
  111MOL   C21535635   7.618   7.589   5.948  0.5386 -0.0151 -0.6545
  111MOL   C21635636   7.604   7.480   5.854  0.0085  0.7712 -0.2232
  111MOL   C21735637   7.557   7.355   5.893  0.0714 -0.1998  0.6069
  111MOL   H21835638   7.354   7.243   6.249  1.0547 -1.4694  0.3639
  111MOL   H21935639   7.273   7.285   6.113  3.3377  2.9349  0.5120
  111MOL   H22035640   7.424   7.149   5.963 -2.5963  0.8466  0.4770
  111MOL   H22135641   7.479   7.435   6.222 -0.0320 -1.2494  0.5777
  111MOL   H22235642   7.557   7.653   6.149  1.0970  0.3532  0.7926
  111MOL   H22335643   7.669   7.677   5.910 -0.0856  0.4452 -0.4178
  111MOL   H22435644   7.653   7.484   5.758  0.6116  1.5114  0.1151
  111MOL   H22535645   7.557   7.275   5.821  2.0743 -0.1369  0.5127
  111MOL   C22635646   7.568   7.095   6.115 -0.5074  0.5909 -0.2863
  111MOL   C22735647   7.628   7.132   6.253 -0.0136  0.8112 -0.0185
  111MOL   C22835648   7.542   7.089   6.373 -0.0917  0.3822  0.4451
  111MOL   C22935649   7.493   6.953   6.394  0.1987 -0.4534  0.0671
  111MOL   C23035650   7.424   6.917   6.512  0.5201  0.0769  0.0565
  111MOL   C23135651   7.395   7.016   6.605  0.8079  0.2999 -0.7120
  111MOL   C23235652   7.439   7.145   6.591  0.4485  0.1556  1.1252
  111MOL   C23335653   7.515   7.179   6.474  0.3326 -0.2831  0.0017
  111MOL   H23435654   7.648   7.108   6.042 -0.9109  1.2551 -0.6207
  111MOL   H23535655   7.532   6.993   6.099  0.0329  0.1481  1.2540
  111MOL   H23635656   7.622   7.241   6.255  0.3508  0.8061  1.6526
  111MOL   H23735657   7.505   6.886   6.310 -2.6033  2.4064 -2.7345
  111MOL   H23835658   7.385   6.817   6.521  0.3376  0.0858 -0.6016
  111MOL   H23935659   7.341   6.989   6.695 -0.1099  1.3353 -0.9501
  111MOL   H24035660   7.425   7.216   6.670 -1.2719 -0.3656  1.3066
  111MOL   H24135661   7.558   7.278   6.473  1.9342 -0.9543  0.6877
  111MOL   C24235662   7.783   7.090   6.259  0.1080 -0.2212 -0.4014
  111MOL   C24335663   7.864   7.158   6.367 -0.1072  0.0501 -0.4937
  111MOL   C24435664   7.990   7.075   6.414  0.0332 -0.3263  0.0117
  111MOL   C24535665   8.019   7.056   6.550 -0.2657 -0.9625 -0.0294
  111MOL   C24635666   0.012   6.982   6.582  0.2408 -0.1472  0.1479
  111MOL   C24735667   0.097   6.927   6.488 -0.1027 -0.1558 -0.2913
  111MOL   C24835668   0.073   6.948   6.354  0.7660  0.3686 -0.6696
  111MOL   C24935669   8.073   7.018   6.316 -0.0470  0.0206  0.2180
  111MOL   H25035670   7.823   7.102   6.158  0.0637 -0.0866 -0.4027
  111MOL   H25135671   7.783   6.982   6.277 -2.0097 -0.1378  0.2380
  111MOL   H25235672   7.797   7.156   6.453  0.6159  0.1869  0.0745
  111MOL   H25335673   7.951   7.096   6.623 -1.1246  0.1477 -1.4144
  111MOL   H25435674   0.045   6.963   6.683  0.8782  0.7542  0.1100
  111MOL   H25535675   0.175   6.864   6.525 -1.0864 -1.7556 -0.8871
  111MOL   H25635676   0.137   6.915   6.273  0.1596 -0.9976 -0.6144
  111MOL   H25735677   8.050   7.044   6.214  0.9832 -0.9683 -0.2861
  111MOL   C25835678   7.901   7.304   6.327  0.1759  0.5659  0.1199
  111MOL   C25935679   7.959   7.381   6.445 -0.2423  0.2333  0.0207
  111MOL   C26035680   8.050   7.492   6.382 -0.4364  0.2826  0.5480
  111MOL   C26135681   7.989   7.598   6.311 -0.1797 -0.2241 -0.0445
  111MOL   C26235682   8.065   7.696   6.251 -0.5558 -0.2874 -0.5125
  111MOL   C26335683   0.091   7.674   6.243  0.6380 -0.2898  0.1200
  111MOL   C26435684   0.156   7.563   6.305 -0.3024  0.4985  0.1498
  111MOL   C26535685   0.077   7.469   6.378  0.2341 -0.1121 -0.5771
  111MOL   H26635686   7.815   7.358   6.287 -1.1756 -1.4780  0.1847
  111MOL   H26735687   7.974   7.300   6.246  0.3932  1.9987  0.2438
  111MOL   H26835688   8.025   7.315   6.501  0.4388  0.9067  0.0170
  111MOL   H26935689   7.881   7.593   6.321 -0.1301 -0.4399  0.4044
  111MOL   H27035690   8.020   7.787   6.215 -0.6011  0.0800  0.4436
  111MOL   H27135691   0.152   7.751   6.200 -1.7179  0.8189 -1.3438
  111MOL   H27235692   0.264   7.563   6.298 -0.3642 -0.8609 -1.0875
  111MOL   H27335693   0.134   7.392   6.427  1.5110  2.3388  1.9655
  111MOL   C27435694   7.845   7.435   6.538 -0.2916 -0.4453 -0.0181
  111MOL   C27535695   7.883   7.545   6.633  0.0993 -0.1770 -0.0031
  111MOL   C27635696   7.759   7.600   6.692  0.3127 -0.4606 -0.4051
  111MOL   C27735697   7.720   7.732   6.668 -0.2661 -0.0055  0.8448
  111MOL   C27835698   7.608   7.794   6.727  0.2479 -0.4045 -0.3171
  111MOL   C27935699   7.526   7.718   6.812  0.4235 -0.7459  0.2601
  111MOL   C28035700   7.564   7.584   6.842 -0.3898  0.2890 -0.3007
  111MOL   C28135701   7.683   7.526   6.786 -0.4092  0.5832  0.1320
  111MOL   H28235702   7.803   7.356   6.599 -0.8904 -2.6503 -3.1770
  111MOL   H28335703   7.756   7.471   6.486 -0.0821  0.5780  0.3253
  111MOL   H28435704   7.929   7.627   6.579 -3.1845  1.0000 -1.0847
  111MOL   H28535705   7.783   7.796   6.607 -3.6469  0.5182 -2.3067
  111MOL   H28635706   7.592   7.899   6.708  0.2154 -0.4964 -0.7869
  111MOL   H28735707   7.438   7.768   6.851  0.7395 -0.0306  0.0708
  111MOL   H28835708   7.495   7.520   6.896 -1.3121  0.8991 -0.7352
  111MOL   H28935709   7.710   7.426   6.815  0.1170 -0.4343 -3.5717
  111MOL   C29035710   7.996   7.504   6.742 -0.0321  0.2442 -0.1271
  111MOL   C29135711   8.023   7.618   6.848 -1.0406  0.3457 -0.3166
  111MOL   C29235712   8.034   7.564   6.985  0.1105  0.5767  0.3987
  111MOL   C29335713   7.950   7.624   7.082  0.0530 -0.2065  0.1723
  111MOL   C29435714   7.941   7.570   7.210 -0.0610 -0.9634 -0.1027
  111MOL   C29535715   8.018   7.462   7.249 -0.3241  0.4953  0.0512
  111MOL   C29635716   8.101   7.401   7.152 -0.4098 -0.0568 -0.1370
  111MOL   C29735717   8.107   7.449   7.020  0.5276  0.1821 -0.9750
  111MOL   H29835718   8.091   7.476   6.699 -0.9269 -3.9542  0.4081
  111MOL   H29935719   7.964   7.415   6.797 -0.6127 -0.4243 -1.5191
  111MOL   H30035720   7.940   7.688   6.848 -0.8502  0.5967  1.3192
  111MOL   H30135721   7.895   7.710   7.047 -1.4678 -0.9117  0.8262
  111MOL   H30235722   7.872   7.601   7.287 -1.4075 -1.0784 -1.2244
  111MOL   H30335723   8.018   7.432   7.352 -0.3652  2.0411  0.5085
  111MOL   H30435724   0.046   7.315   7.178  0.5986  0.9005  0.7935
  111MOL   H30535725   0.056   7.394   6.953  0.5550  0.2457 -1.0008
  111MOL   C30635726   0.031   7.695   6.798 -0.4482  0.7945 -0.0182
  111MOL   C30735727   0.043   7.845   6.813 -0.3826 -0.0928 -0.2372
  111MOL   C30835728   8.052   7.924   6.738  0.2707 -0.9580  0.2811
  111MOL   C30935729   8.056   7.924   6.599 -0.3805  0.6646 -0.1977
  111MOL   C31035730   7.966   8.003   6.523  0.9003  0.2909  0.3805
  111MOL   C31135731   7.858   8.061   6.585  0.5355 -0.2628  0.8595
  111MOL   C31235732   7.850   8.059   6.725  0.2716 -0.3519  0.1998
  111MOL   C31335733   7.946   7.987   6.800  0.4597 -0.7478 -0.7038
  111MOL   H31435734   0.038   7.673   6.691  0.1384 -1.5413  0.4733
  111MOL   H31535735   0.123   7.650   6.834 -1.4379 -1.3677 -0.0796
  111MOL   H31635736   0.141   7.882   6.786 -0.3725  0.1723  0.1578
  111MOL   H31735737   0.007   7.859   6.544 -3.0353 -1.8978 -0.4864
  111MOL   H31835738   7.976   8.018   6.417 -0.1274  1.5671  0.4443
  111MOL   H31935739   7.800   0.023   6.536 -0.5403 -0.9832  1.0090
  111MOL   H32035740   7.779   0.010   6.773  1.0263 -0.2257  1.1463
  111MOL   H32135741   7.940   8.004   6.907  1.0225  1.6878 -1.0386
  111MOL   H32235742   0.031   7.859   6.921 -0.0948 -0.9371 -0.0862
  112MOL     C135743   6.779   4.170   1.843 -0.0435 -0.0044 -0.3006
  112MOL     C235744   6.814   4.109   1.704 -0.0700  0.5094  0.1990
  112MOL     C335745   6.741   3.972   1.691  0.1531  0.1286  0.5699
  112MOL     C435746   6.818   3.858   1.666 -0.0403 -0.0902 -0.2629
  112MOL     C535747   6.761   3.733   1.653 -0.1674 -0.0018  0.6527
  112MOL     C635748   6.620   3.725   1.659 -0.8191  0.1550  0.0918
  112MOL     C735749   6.543   3.839   1.677 -0.2709  0.7974 -0.7041
  112MOL     C835750   6.600   3.968   1.695 -0.3361 -0.6386 -0.4556
  112MOL     H935751   6.791   4.101   1.927 -0.1482 -1.8737 -1.7789
  112MOL    H1035752   6.843   4.257   1.861  0.3589 -0.1876 -0.8449
  112MOL    H1135753   6.917   4.073   1.703 -0.4548 -0.6833 -2.4149
  112MOL    H1235754   6.924   3.875   1.653 -0.1236 -0.9254 -2.1568
  112MOL    H1335755   6.818   3.643   1.636 -0.7246 -0.5902  1.8600
  112MOL    H1435756   6.579   3.631   1.626  0.7750  0.6396 -3.6001
  112MOL    H1535757   6.437   3.838   1.654  0.0613  0.1773 -2.2525
  112MOL    H1635758   6.533   4.053   1.692  0.4152 -0.0178  0.2073
  112MOL    H1735759   6.674   4.198   1.835 -0.3431 -0.9163  0.3287
  112MOL    C1835760   6.798   4.203   1.582  0.3526  0.3662  0.0982
  112MOL    C1935761   6.839   4.146   1.446  0.3583  0.6969  0.1347
  112MOL    C2035762   6.716   4.110   1.362 -0.0789  0.1755 -0.4316
  112MOL    C2135763   6.682   3.972   1.354  0.3439 -0.2445 -0.1341
  112MOL    C2235764   6.567   3.936   1.285 -0.8315  0.7803 -0.3837
  112MOL    C2335765   6.492   4.035   1.219  0.2440  0.9113 -0.9588
  112MOL    C2435766   6.528   4.169   1.228 -0.2924 -0.1370  0.0041
  112MOL    C2535767   6.637   4.211   1.301 -0.3040  0.1858  0.8164
  112MOL    H2635768   6.860   4.293   1.588  0.6906  0.2155 -1.0361
  112MOL    H2735769   6.698   4.246   1.588 -0.2105 -0.7981 -0.7766
  112MOL    H2835770   6.911   4.065   1.462  0.0581  0.7200  1.6497
  112MOL    H2935771   6.733   3.894   1.409  1.6403 -0.6557 -1.8849
  112MOL    H3035772   6.532   3.834   1.281 -1.5890  1.0005  0.5348
  112MOL    H3135773   6.401   4.008   1.169 -0.4799  0.0521  0.7802
  112MOL    H3235774   6.465   4.242   1.179  0.7670  1.1188  0.4801
  112MOL    H3335775   6.647   4.317   1.316  0.2530  0.4875 -1.5139
  112MOL    C3435776   6.933   4.230   1.367 -0.8641  0.3137  0.1426
  112MOL    C3535777   7.080   4.237   1.422  0.3066  0.1638  0.3528
  112MOL    C3635778   7.162   4.115   1.376  0.1863 -0.6375 -0.1597
  112MOL    C3735779   7.269   4.083   1.458  0.1768  0.0747 -0.4788
  112MOL    C3835780   7.348   3.970   1.437 -0.7477 -0.2953  0.0987
  112MOL    C3935781   7.339   3.900   1.321  0.0078  0.4697 -0.2131
  112MOL    C4035782   7.247   3.944   1.227  0.3580 -0.1100 -0.1070
  112MOL    C4135783   7.151   4.048   1.252 -0.6533  0.5636  0.2144
  112MOL    H4235784   6.889   4.330   1.376 -1.1219  0.3008 -0.8962
  112MOL    H4335785   6.938   4.215   1.259 -1.4638 -0.5748  0.2350
  112MOL    H4435786   7.072   4.225   1.530  1.0818 -3.3863  0.0699
  112MOL    H4535787   7.283   4.134   1.552 -2.3342  0.3222 -0.1990
  112MOL    H4635788   7.422   3.936   1.509  1.6702  2.4733 -0.9657
  112MOL    H4735789   7.407   3.821   1.294  0.1626  0.5665 -0.1052
  112MOL    H4835790   7.223   3.892   1.135 -0.6238 -2.3037  1.3321
  112MOL    H4935791   7.074   4.066   1.178  1.7640  0.8797 -2.2798
  112MOL    C5035792   7.155   4.369   1.379  0.1187  0.1678 -0.2319
  112MOL    C5135793   7.108   4.497   1.441 -0.2919  0.1818  0.6228
  112MOL    C5235794   7.113   4.498   1.595  0.3347 -0.3095 -0.1698
  112MOL    C5335795   7.013   4.563   1.666 -0.0455  0.8582 -0.4222
  112MOL    C5435796   7.012   4.569   1.805 -0.6171 -0.1545 -0.1457
  112MOL    C5535797   7.114   4.503   1.879  0.0787  0.3625 -0.4031
  112MOL    C5635798   7.214   4.433   1.804  0.6772  0.0563 -0.3514
  112MOL    C5735799   7.220   4.435   1.663 -0.3697 -0.4507 -0.4358
  112MOL    H5835800   7.126   4.376   1.274  0.0044 -0.0224 -0.2140
  112MOL    H5935801   7.261   4.368   1.403 -0.1517  2.4426  1.2071
  112MOL    H6035802   7.003   4.497   1.410 -0.5004  1.0408  1.3177
  112MOL    H6135803   6.934   4.618   1.617  1.0044  2.5466 -0.2590
  112MOL    H6235804   6.932   4.619   1.858  0.1056  0.0724  0.7418
  112MOL    H6335805   7.114   4.513   1.987  3.8586 -1.0292 -0.1949
  112MOL    H6435806   7.297   4.388   1.857 -0.8550 -3.5349 -0.8495
  112MOL    H6535807   7.301   4.378   1.619 -0.5493  0.2845 -1.7340
  112MOL    C6635808   7.198   4.608   1.391 -0.1609 -0.4629  0.9093
  112MOL    C6735809   7.184   4.650   1.244  0.2378  0.2010  0.3687
  112MOL    C6835810   7.036   4.647   1.203  0.2728  0.2990 -0.3754
  112MOL    C6935811   6.983   4.566   1.101  0.0190 -1.1572  0.2183
  112MOL    C7035812   6.844   4.565   1.059 -0.2608  0.6143 -0.5992
  112MOL    C7135813   6.757   4.655   1.130 -0.0106 -0.4268 -0.6128
  112MOL    C7235814   6.810   4.734   1.236  0.6942  0.0781 -0.8035
  112MOL    C7335815   6.943   4.734   1.272 -0.2607 -0.1177  0.3722
  112MOL    H7435816   7.301   4.578   1.409  0.0095 -0.9790 -0.8667
  112MOL    H7535817   7.181   4.701   1.445  1.1283  0.1230  0.3410
  112MOL    H7635818   7.234   4.574   1.184  0.3819  0.6669 -0.1073
  112MOL    H7735819   7.043   4.493   1.049 -0.4705 -0.5690 -1.1891
  112MOL    H7835820   6.818   4.494   0.982 -0.5497 -0.0971  0.1463
  112MOL    H7935821   6.651   4.669   1.119  0.1098  0.7315 -0.3081
  112MOL    H8035822   6.744   4.802   1.287  1.0033 -1.5302  1.7923
  112MOL    H8135823   6.971   4.797   1.355 -0.3500  1.6482 -0.9122
  112MOL    C8235824   7.267   4.770   1.213 -0.6243 -0.0965 -0.5271
  112MOL    C8335825   7.418   4.763   1.204 -0.1835 -0.3559 -0.0170
  112MOL    C8435826   7.464   4.678   1.087 -0.0578 -0.5624  0.2469
  112MOL    C8535827   7.551   4.569   1.100 -0.0691 -0.2136  0.7436
  112MOL    C8635828   7.583   4.490   0.987  0.1928 -0.0339 -0.0076
  112MOL    C8735829   7.532   4.525   0.862 -0.1876  0.0027  0.0820
  112MOL    C8835830   7.450   4.638   0.852 -0.1534  0.5462 -0.1964
  112MOL    C8935831   7.411   4.714   0.963  0.1967  0.5109  0.2447
  112MOL    H9035832   7.232   4.846   1.283 -1.7426 -1.1844  0.1069
  112MOL    H9135833   7.235   4.807   1.115  0.2477  1.9460 -0.0768
  112MOL    H9235834   7.447   4.717   1.298  1.2288  1.7864  0.6374
  112MOL    H9335835   7.594   4.549   1.197  1.8333  2.4081  0.4892
  112MOL    H9435836   7.656   4.410   0.992 -1.7113 -1.7772  0.4641
  112MOL    H9535837   7.560   4.468   0.774  3.6829 -0.2199  1.3655
  112MOL    H9635838   7.407   4.664   0.756 -2.7503  0.0812  0.8126
  112MOL    H9735839   7.341   4.794   0.943 -1.8042 -1.3103 -0.2393
  112MOL    C9835840   7.472   4.905   1.205 -0.1898  0.1226  0.1228
  112MOL    C9935841   7.624   4.919   1.189  0.4998  0.1753 -0.0040
  112MOL   C10035842   7.653   5.062   1.178 -0.2083  0.1121  0.6060
  112MOL   C10135843   7.631   5.143   1.291 -0.3427  0.0663 -0.4113
  112MOL   C10235844   7.667   5.278   1.292  0.1089  0.1481 -0.6508
  112MOL   C10335845   7.714   5.333   1.175 -0.1046 -0.6769  1.0402
  112MOL   C10435846   7.736   5.263   1.057 -0.3691  0.5813 -0.0480
  112MOL   C10535847   7.707   5.124   1.057  0.6136  0.8681 -0.1199
  112MOL   H10635848   7.451   4.969   1.291  1.6214  2.7348 -1.3127
  112MOL   H10735849   7.430   4.953   1.116 -1.8976  1.7590  1.7525
  112MOL   H10835850   7.641   4.881   1.088 -1.8952  0.4843 -0.5563
  112MOL   H10935851   7.591   5.100   1.382  0.2574 -1.6341 -0.9281
  112MOL   H11035852   7.663   5.338   1.382  1.7942  0.1654 -0.5769
  112MOL   H11135853   7.740   5.437   1.176 -0.2114 -0.5699 -2.0633
  112MOL   H11235854   7.771   5.328   0.978  0.4934 -0.1951 -0.3176
  112MOL   H11335855   7.721   5.076   0.961  0.8581  1.3005 -0.3002
  112MOL   C11435856   7.704   4.844   1.295 -0.4173 -0.2927 -0.1121
  112MOL   C11535857   7.866   4.853   1.296 -0.1650  0.1574 -0.1853
  112MOL   C11635858   7.917   4.985   1.344 -0.0554 -0.3165  0.3262
  112MOL   C11735859   7.983   5.077   1.265 -0.3271  0.4169 -0.0163
  112MOL   C11835860   8.029   5.204   1.315 -0.4867  0.4201 -0.0304
  112MOL   C11935861   8.012   5.237   1.447 -0.5990  0.2148  0.0814
  112MOL   C12035862   7.946   5.151   1.534  0.3040  0.5311  0.5029
  112MOL   C12135863   7.894   5.026   1.481  0.3988 -0.1276  0.2684
  112MOL   H12235864   7.678   4.739   1.281 -0.2704 -0.2106 -1.0923
  112MOL   H12335865   7.660   4.858   1.393 -1.8114  1.0386 -0.9004
  112MOL   H12435866   7.886   4.836   1.190 -1.5369  0.7600 -0.5561
  112MOL   H12535867   7.999   5.058   1.160 -0.1199  1.0124 -0.0953
  112MOL   H12635868   8.074   5.263   1.237  2.8296 -0.0798  1.4111
  112MOL   H12735869   8.048   5.337   1.469  0.5397 -0.6658  2.4015
  112MOL   H12835870   7.931   5.178   1.637 -0.8539  2.4631 -0.1524
  112MOL   H12935871   7.829   4.964   1.540  1.6970 -1.3271  0.4717
  112MOL   C13035872   7.932   4.738   1.372 -0.1043  0.4720  0.6008
  112MOL   C13135873   7.899   4.587   1.330 -0.0450 -0.1421  0.5044
  112MOL   C13235874   7.983   4.556   1.208 -0.1641  0.6006  0.3792
  112MOL   C13335875   0.004   4.527   1.226 -0.1550 -0.2829  0.4310
  112MOL   C13435876   0.080   4.481   1.117 -0.2459 -0.2532 -0.5111
  112MOL   C13535877   0.027   4.486   0.987 -0.1417 -0.3739  0.5021
  112MOL   C13635878   8.000   4.524   0.968  0.0734  0.8932  0.3704
  112MOL   C13735879   7.924   4.557   1.083 -0.3290 -0.4999 -0.1778
  112MOL   H13835880   7.897   4.751   1.474 -1.4897 -0.1604  0.2244
  112MOL   H13935881   8.040   4.741   1.383  0.0200 -1.2548 -0.0187
  112MOL   H14035882   7.794   4.577   1.300  0.5378 -1.2190 -1.2780
  112MOL   H14135883   0.046   4.528   1.326  0.3458  0.6529  0.2163
  112MOL   H14235884   0.183   4.458   1.137 -0.2571 -0.0332 -0.2037
  112MOL   H14335885   0.084   4.451   0.902 -2.3300 -3.5606  0.2633
  112MOL   H14435886   7.968   4.535   0.865  3.2534  3.3912 -0.4585
  112MOL   H14535887   7.820   4.586   1.075  0.0598  0.8072 -0.4477
  112MOL   C14635888   7.917   4.481   1.448  0.9480 -0.0724  0.2075
  112MOL   C14735889   7.783   4.408   1.482  0.1961  0.3340  0.0218
  112MOL   C14835890   7.718   4.324   1.374 -0.1130 -0.7231  0.8892
  112MOL   C14935891   7.577   4.335   1.348 -0.4555 -0.2575 -0.0544
  112MOL   C15035892   7.514   4.261   1.249 -0.1710 -0.1580 -0.8207
  112MOL   C15135893   7.585   4.163   1.178  0.0140 -0.0161 -0.9889
  112MOL   C15235894   7.724   4.148   1.205  0.4361 -0.1942 -0.1327
  112MOL   C15335895   7.784   4.227   1.302 -0.6167  0.8277 -0.2923
  112MOL   H15435896   7.951   4.527   1.541 -0.3371  0.8485  0.2436
  112MOL   H15535897   7.987   4.401   1.424  0.3458 -0.4344 -0.3535
  112MOL   H15635898   7.709   4.488   1.489  0.1690  0.2756  0.4161
  112MOL   H15735899   7.516   4.411   1.394 -0.1966  0.5212 -0.9792
  112MOL   H15835900   7.409   4.278   1.230  0.3097  2.2222 -1.5982
  112MOL   H15935901   7.531   4.107   1.105 -1.6611  1.6836 -1.0941
  112MOL   H16035902   7.783   4.076   1.150 -0.5490 -2.2150  1.3731
  112MOL   H16135903   7.889   4.223   1.328 -0.0859  1.2216 -2.2332
  112MOL   C16235904   7.783   4.336   1.624 -0.8079  0.3440 -0.0437
  112MOL   C16335905   7.787   4.426   1.744  1.0107 -0.1827  0.2915
  112MOL   C16435906   7.709   4.556   1.724  0.3002 -0.1279 -0.7897
  112MOL   C16535907   7.776   4.676   1.742 -0.0119 -0.2071  0.4627
  112MOL   C16635908   7.707   4.797   1.728  0.0936 -0.1021 -0.9441
  112MOL   C16735909   7.569   4.798   1.717  0.0767 -0.1055  0.0337
  112MOL   C16835910   7.501   4.683   1.706 -1.0375  0.0731  0.4796
  112MOL   C16935911   7.566   4.558   1.702 -0.6880 -0.4052 -1.0613
  112MOL   H17035912   7.860   4.259   1.628 -0.8617  0.3238  0.5796
  112MOL   H17135913   7.688   4.281   1.621  0.4153 -1.7685 -2.4271
  112MOL   H17235914   7.887   4.453   1.779 -0.2042  3.2204  1.3104
  112MOL   H17335915   7.881   4.680   1.765  0.0361 -0.7357  0.3254
  112MOL   H17435916   7.761   4.888   1.748 -0.6554 -0.4282  2.8496
  112MOL   H17535917   7.514   4.891   1.712  0.3079  0.0770  0.8045
  112MOL   H17635918   7.393   4.685   1.699 -0.9931  1.7049  0.0724
  112MOL   H17735919   7.519   4.461   1.693  0.0585 -0.6429 -2.6077
  112MOL   C17835920   7.744   4.344   1.864  0.1774  0.0714 -0.0919
  112MOL   C17935921   7.744   4.414   2.001  0.2650 -0.1837 -0.5372
  112MOL   C18035922   7.607   4.420   2.079 -0.4267  0.1282 -0.1184
  112MOL   C18135923   7.566   4.541   2.134  0.4277 -0.1889  0.4008
  112MOL   C18235924   7.443   4.547   2.202 -0.2437  0.9062  0.5645
  112MOL   C18335925   7.372   4.433   2.226 -0.6656  0.1397  0.0402
  112MOL   C18435926   7.416   4.309   2.179  0.2151  0.1068  0.0365
  112MOL   C18535927   7.538   4.301   2.106 -0.2805  0.3969  0.8978
  112MOL   H18635928   7.811   4.258   1.864 -0.8067 -0.7010  0.7643
  112MOL   H18735929   7.642   4.306   1.858 -0.0713  0.9509 -1.8150
  112MOL   H18835930   7.766   4.520   1.982  0.2662 -0.3015 -1.2273
  112MOL   H18935931   7.613   4.635   2.113 -1.3018  0.7451  0.6419
  112MOL   H19035932   7.403   4.645   2.223 -1.8067  0.6073 -0.9155
  112MOL   H19135933   7.290   4.438   2.297  0.7457  2.8010  1.5401
  112MOL   H19235934   7.355   4.230   2.222  1.6495  0.1819  2.3017
  112MOL   H19335935   7.576   4.206   2.074 -2.7307 -0.2770 -0.1146
  112MOL   C19435936   7.847   4.360   2.098  0.8662 -0.0663 -0.2431
  112MOL   C19535937   7.999   4.396   2.085  0.3167  0.0967  0.4909
  112MOL   C19635938   8.062   4.383   2.223 -0.7405  0.0818  0.6589
  112MOL   C19735939   0.002   4.493   2.285 -0.2353  0.0319  0.0727
  112MOL   C19835940   0.042   4.490   2.417 -1.0372  1.1241 -0.8653
  112MOL   C19935941   0.045   4.361   2.484  0.1721  0.4749 -0.1497
  112MOL   C20035942   8.108   4.250   2.415 -0.0220  0.5461  0.7612
  112MOL   C20135943   8.059   4.258   2.287 -0.3873 -0.3469  0.2910
  112MOL   H20235944   7.835   4.255   2.122 -0.1333 -0.1425 -1.0182
  112MOL   H20335945   7.815   4.410   2.190 -0.6646 -1.5904  0.0679
  112MOL   H20435946   7.997   4.499   2.048 -1.2338 -0.2215 -0.3622
  112MOL   H20535947   0.012   4.593   2.246 -2.8894  0.1690 -0.3329
  112MOL   H20635948   0.085   4.582   2.452  0.2559  0.7707 -1.5007
  112MOL   H20735949   0.095   4.348   2.579 -0.4487 -1.4245 -0.0582
  112MOL   H20835950   0.009   4.154   2.461  0.6949  0.3357  0.0870
  112MOL   H20935951   8.015   4.172   2.239  1.1939 -0.0957 -1.7049
  112MOL   C21035952   8.072   4.315   1.978 -0.3806  0.1973  0.2680
  112MOL   C21135953   0.091   4.361   1.920  0.1754 -0.1069  0.6134
  112MOL   C21235954   0.081   4.495   1.847 -0.4154 -0.2929 -0.0959
  112MOL   C21335955   0.067   4.505   1.707 -0.7707 -0.3600  0.3863
  112MOL   C21435956   0.059   4.631   1.644 -0.0057 -0.1259 -0.2625
  112MOL   C21535957   0.055   4.748   1.720  0.3605  0.0443  0.7011
  112MOL   C21635958   0.051   4.740   1.860  0.8233 -0.0698  0.2017
  112MOL   C21735959   0.083   4.613   1.923 -0.6123 -1.0803  0.7024
  112MOL   H21835960   8.004   4.317   1.893 -2.1080  1.9931  1.6362
  112MOL   H21935961   8.070   4.208   1.997  1.6741  0.2025  0.5543
  112MOL   H22035962   0.115   4.295   1.837  0.9541  0.8383  0.0749
  112MOL   H22135963   0.044   4.416   1.650 -0.1640 -0.2695 -0.0161
  112MOL   H22235964   0.063   4.627   1.537 -0.1170 -1.0012 -0.2404
  112MOL   H22335965   0.048   4.844   1.671  0.1749 -0.2163  0.2156
  112MOL   H22435966   0.054   4.830   1.920  0.7706  0.0922 -0.0394
  112MOL   H22535967   0.098   4.616   2.030  0.2206 -0.6149  0.5750
  112MOL   C22635968   0.215   4.353   2.016  0.4642 -0.0786  1.0231
  112MOL   C22735969   0.252   4.210   2.053  0.1819 -0.3673  0.3858
  112MOL   C22835970   0.333   4.141   1.943 -0.5311  0.3839  0.7371
  112MOL   C22935971   0.474   4.156   1.934 -0.3275  0.4350 -0.7213
  112MOL   C23035972   0.547   4.074   1.847  0.4854 -0.0439  0.2433
  112MOL   C23135973   0.479   3.984   1.762 -0.0352 -0.7209  0.4681
  112MOL   C23235974   0.335   3.987   1.754 -0.1382 -0.2702  0.2283
  112MOL   C23335975   0.267   4.058   1.849 -0.0296 -0.2930 -0.1111
  112MOL   H23435976   0.184   4.397   2.111  0.0546 -0.8921  1.2745
  112MOL   H23535977   0.300   4.412   1.983 -0.4824  0.6611 -0.1057
  112MOL   H23635978   0.161   4.150   2.063 -0.5597  0.4248 -1.4211
  112MOL   H23735979   0.529   4.219   2.003 -1.5839  0.4517  0.2882
  112MOL   H23835980   0.653   4.088   1.836  0.3590  2.5615  1.9902
  112MOL   H23935981   0.533   3.922   1.692  0.7625  0.5795 -0.0707
  112MOL   H24035982   0.292   3.912   1.689  2.2322  1.2589 -3.2652
  112MOL   H24135983   0.160   4.052   1.861 -0.4973  1.8920 -2.5649
  112MOL   C24235984   0.331   4.212   2.191  0.1751 -0.1407  0.0642
  112MOL   C24335985   0.364   4.072   2.251 -0.1173 -0.0272 -0.5405
  112MOL   C24435986   0.449   4.095   2.377  0.2891  0.1090  0.4796
  112MOL   C24535987   0.583   4.061   2.370 -0.1721  0.0056  0.3655
  112MOL   C24635988   0.670   4.082   2.481  0.2389  0.2988 -0.5120
  112MOL   C24735989   0.611   4.123   2.601 -0.2381 -0.2515 -0.2684
  112MOL   C24835990   0.473   4.151   2.612 -0.2157 -0.4726  0.1651
  112MOL   C24935991   0.391   4.146   2.495 -0.7872 -0.8668 -0.6487
  112MOL   H25035992   0.264   4.260   2.262 -1.4633 -0.4387 -1.2474
  112MOL   H25135993   0.422   4.271   2.183  0.0019  0.3463  1.5607
  112MOL   H25235994   0.425   4.024   2.174 -1.5872  0.5365 -2.0844
  112MOL   H25335995   0.618   4.016   2.279  0.1194  0.9917 -0.0143
  112MOL   H25435996   0.774   4.064   2.459 -0.0273 -0.4036 -1.2346
  112MOL   H25535997   0.669   4.144   2.690 -0.3008 -1.7275  0.1375
  112MOL   H25635998   0.435   4.185   2.708 -0.0040  3.4134 -1.0388
  112MOL   H25735999   0.284   4.159   2.500 -0.7944 -0.7953 -0.9913
  112MOL   C25836000   0.236   3.981   2.273  0.2433  0.3976  0.3412
  112MOL   C25936001   0.272   3.843   2.333 -0.0285 -0.5937  0.1523
  112MOL   C26036002   0.250   3.834   2.485 -0.2908 -0.2506  0.1200
  112MOL   C26136003   0.347   3.781   2.572  0.2396  0.1082  0.0208
  112MOL   C26236004   0.332   3.799   2.710 -0.4808 -0.1541 -0.1649
  112MOL   C26336005   0.220   3.862   2.767  0.0704  0.7835 -0.2042
  112MOL   C26436006   0.117   3.907   2.681  0.2987  0.4105  0.2992
  112MOL   C26536007   0.135   3.898   2.541  0.1696 -0.2428 -0.0900
  112MOL   H26636008   0.216   3.958   2.168  0.1876 -0.8245  0.6033
  112MOL   H26736009   0.154   4.035   2.321 -1.0661 -1.9840  0.9085
  112MOL   H26836010   0.381   3.839   2.341  0.2887 -0.7895 -3.4314
  112MOL   H26936011   0.436   3.731   2.538 -0.0700 -1.6058  1.6098
  112MOL   H27036012   0.406   3.761   2.779  1.1965  1.4473 -1.0399
  112MOL   H27136013   0.208   3.865   2.875  1.4005 -0.4101 -0.0122
  112MOL   H27236014   0.025   3.945   2.724 -0.5260  0.2086 -1.2459
  112MOL   H27336015   0.057   3.952   2.489  2.0331  2.0466 -0.5435
  112MOL   C27436016   0.208   3.721   2.267 -0.5781  0.0017  0.5173
  112MOL   C27536017   0.261   3.699   2.120  0.0976 -0.0410 -0.3733
  112MOL   C27636018   0.408   3.667   2.111 -0.3226 -0.0091  0.0048
  112MOL   C27736019   0.482   3.723   2.002 -0.2480 -0.5553  0.0093
  112MOL   C27836020   0.622   3.702   1.997 -0.0642 -0.4801 -0.5529
  112MOL   C27936021   0.688   3.631   2.094 -0.2393  0.5129 -0.6599
  112MOL   C28036022   0.619   3.572   2.198  0.4824 -0.2482 -0.5212
  112MOL   C28136023   0.475   3.593   2.210 -0.6484  0.5863 -0.2353
  112MOL   H28236024   0.101   3.735   2.278 -0.7564  0.0717 -1.1290
  112MOL   H28336025   0.232   3.637   2.332 -1.2584 -1.8841 -1.6329
  112MOL   H28436026   0.252   3.787   2.056  0.4083  1.2870  1.3630
  112MOL   H28536027   0.445   3.785   1.921  0.9688  0.3842  0.1554
  112MOL   H28636028   0.678   3.746   1.916 -0.6165  2.2379  0.4857
  112MOL   H28736029   0.793   3.608   2.091 -0.8731 -2.6384  0.2723
  112MOL   H28836030   0.680   3.512   2.264 -0.5474  1.7027  2.2862
  112MOL   H28936031   0.423   3.555   2.296 -1.2586 -0.0910 -0.9012
  112MOL   C29036032   0.183   3.586   2.052 -0.6802  0.8593 -0.0031
  112MOL   C29136033   0.025   3.595   2.040  0.2926 -0.1155  0.2898
  112MOL   C29236034   8.094   3.734   2.008  0.3238  0.0901 -0.6428
  112MOL   C29336035   8.111   3.786   1.880 -0.1192  0.2520  1.0082
  112MOL   C29436036   8.037   3.895   1.843 -0.1236  0.2552 -0.8216
  112MOL   C29536037   7.957   3.965   1.939  0.1693  0.6802  0.2606
  112MOL   C29636038   7.955   3.924   2.072 -0.4234 -0.3050 -0.2686
  112MOL   C29736039   8.009   3.802   2.108 -0.6326 -0.1164  0.1319
  112MOL   H29836040   0.210   3.493   2.101  2.0892  1.0337 -1.1225
  112MOL   H29936041   0.218   3.573   1.950 -1.4897  0.6664 -0.2659
  112MOL   H30036042   8.111   3.566   2.141 -0.7756  1.0704  0.3372
  112MOL   H30136043   0.059   3.741   1.804 -0.1502 -0.9866  1.7022
  112MOL   H30236044   8.040   3.931   1.742  1.6264  0.6127 -0.6454
  112MOL   H30336045   7.915   4.061   1.910 -0.4094  1.0017  2.0490
  112MOL   H30436046   7.902   3.989   2.140  2.7060 -0.1926  2.1452
  112MOL   H30536047   7.995   3.747   2.199  0.6858  1.9178  1.6059
  112MOL   C30636048   8.093   3.489   1.937 -0.6368 -0.1400 -0.0317
  112MOL   C30736049   7.946   3.476   1.911  0.0099  0.7569 -0.1985
  112MOL   C30836050   7.872   3.442   2.037 -0.0053 -0.3145 -0.2442
  112MOL   C30936051   7.802   3.541   2.110  0.4081  0.0227 -0.2719
  112MOL   C31036052   7.746   3.499   2.231  0.0258 -0.0945  0.4714
  112MOL   C31136053   7.764   3.370   2.285 -0.4745  0.3943 -0.5289
  112MOL   C31236054   7.831   3.271   2.208  0.5861  0.7626 -0.2402
  112MOL   C31336055   7.884   3.314   2.086  0.6970  0.1405 -0.3356
  112MOL   H31436056   0.012   3.394   1.978 -3.5429  0.3835  3.8448
  112MOL   H31536057   0.023   3.501   1.838 -0.9302 -2.3249 -0.4631
  112MOL   H31636058   7.912   3.406   1.835 -1.5280  1.0948  0.1566
  112MOL   H31736059   7.788   3.642   2.075 -0.7718 -0.2911 -0.7431
  112MOL   H31836060   7.697   3.573   2.294  1.7896  0.6987  0.9318
  112MOL   H31936061   7.711   3.342   2.375  1.3965  1.5843  0.9733
  112MOL   H32036062   7.837   3.168   2.242 -0.4553  0.5714 -0.6231
  112MOL   H32136063   7.938   3.248   2.020 -1.6050 -1.2747 -0.8952
  112MOL   H32236064   7.899   3.570   1.882 -1.1540  0.4382  0.6320
  113MOL     C136065   7.184   6.643   3.639  0.8005  0.0201 -0.3901
  113MOL     C236066   7.098   6.751   3.571 -0.0050 -0.2416  0.8453
  113MOL     C336067   7.121   6.739   3.419  0.0583  0.4395 -0.3194
  113MOL     C436068   7.234   6.791   3.351  0.3179 -0.1374 -0.2298
  113MOL     C536069   7.237   6.785   3.211 -0.1466  0.2071  0.5653
  113MOL     C636070   7.133   6.731   3.138 -0.2357  0.2682 -0.5502
  113MOL     C736071   7.030   6.666   3.205 -0.5341  0.2448  0.1880
  113MOL     C836072   7.023   6.676   3.342  0.2161  0.6431  0.6798
  113MOL     H936073   7.290   6.669   3.632  1.4599 -2.3175  0.2209
  113MOL    H1036074   7.158   6.621   3.743  0.3689 -1.8482 -0.8655
  113MOL    H1136075   7.130   6.853   3.591  3.1130 -0.5650 -2.1452
  113MOL    H1236076   7.312   6.842   3.405 -0.8671  0.8282  0.5919
  113MOL    H1336077   7.310   6.843   3.156 -1.6787  1.1230 -0.5898
  113MOL    H1436078   7.128   6.739   3.031 -1.0749  1.7536 -0.4070
  113MOL    H1536079   6.946   6.619   3.156 -1.6441  1.5252  0.8050
  113MOL    H1636080   6.942   6.632   3.400 -0.3147 -1.6039 -1.6734
  113MOL    H1736081   7.169   6.557   3.573 -1.5099  2.0820 -2.6312
  113MOL    C1836082   6.954   6.742   3.621  0.8650  0.4950  0.1291
  113MOL    C1936083   6.940   6.806   3.762 -0.2787  0.1986 -0.0103
  113MOL    C2036084   6.947   6.964   3.759  0.3485  0.3177 -0.4681
  113MOL    C2136085   6.867   7.035   3.670  0.0364  0.1169 -0.1576
  113MOL    C2236086   6.866   7.180   3.663  0.4192 -0.0586  0.9489
  113MOL    C2336087   6.940   7.253   3.759  0.4270 -0.6033  0.3550
  113MOL    C2436088   7.016   7.182   3.848 -0.9963 -0.7922  0.7671
  113MOL    C2536089   7.018   7.041   3.857  0.3552  0.2347  0.7327
  113MOL    H2636090   6.929   6.638   3.641 -0.4496  0.4018 -1.8536
  113MOL    H2736091   6.880   6.785   3.553 -1.1693 -0.7455  1.5248
  113MOL    H2836092   7.017   6.764   3.826  0.2132  1.6828  0.4004
  113MOL    H2936093   6.802   6.991   3.595  1.2724 -0.5397 -0.8577
  113MOL    H3036094   6.804   7.228   3.589 -0.3563 -1.2288  0.8350
  113MOL    H3136095   6.939   7.360   3.746 -2.1142 -0.8819 -2.1793
  113MOL    H3236096   7.075   7.238   3.919 -2.0342 -0.3403  1.2963
  113MOL    H3336097   7.053   6.992   3.946  1.6520  0.9535  0.6480
  113MOL    C3436098   6.798   6.772   3.821  0.5001  0.6659  0.0923
  113MOL    C3536099   6.772   6.783   3.970 -0.5186  0.3560  0.7191
  113MOL    C3636100   6.633   6.832   4.007 -0.3130  0.0283 -0.2359
  113MOL    C3736101   6.516   6.781   3.944  0.1620 -0.6842  0.2445
  113MOL    C3836102   6.387   6.823   3.983  0.3366 -0.7633  0.0945
  113MOL    C3936103   6.373   6.927   4.080  0.5531 -0.2720 -0.2677
  113MOL    C4036104   6.484   6.981   4.140  0.7508 -0.3287  0.2165
  113MOL    C4136105   6.614   6.939   4.101  0.0867  0.6656  0.1734
  113MOL    H4236106   6.768   6.669   3.799 -0.5076  0.4873  2.1974
  113MOL    H4336107   6.729   6.844   3.777 -2.1339 -0.9275  1.4738
  113MOL    H4436108   6.844   6.857   4.004 -1.2745  0.2752  2.5373
  113MOL    H4536109   6.537   6.699   3.877 -1.2495 -1.0347  0.2237
  113MOL    H4636110   6.299   6.793   3.929  0.3486  0.3953 -0.5708
  113MOL    H4736111   6.270   6.956   4.099  0.2623 -0.0646 -2.0078
  113MOL    H4836112   6.481   7.061   4.212 -1.0303  0.0541 -0.2372
  113MOL    H4936113   6.696   6.990   4.150 -0.1841 -1.1139  2.5768
  113MOL    C5036114   6.802   6.648   4.045  0.9603 -0.0220  0.6401
  113MOL    C5136115   6.951   6.605   4.055 -0.4668 -0.7457  0.2011
  113MOL    C5236116   7.046   6.717   4.104 -0.1650 -0.3271 -0.0819
  113MOL    C5336117   7.016   6.809   4.215 -0.3061  0.5962  0.7223
  113MOL    C5436118   7.106   6.908   4.253 -0.8308 -0.9616  0.3279
  113MOL    C5536119   7.235   6.921   4.188  0.9549 -0.2724  0.1466
  113MOL    C5636120   7.261   6.835   4.079  0.2484 -0.0525 -1.0924
  113MOL    C5736121   7.167   6.738   4.038 -1.2106 -0.0132 -0.3070
  113MOL    H5836122   6.736   6.575   3.998  0.3276 -0.7881  2.6782
  113MOL    H5936123   6.752   6.652   4.142 -1.2392  0.0890 -0.4554
  113MOL    H6036124   6.991   6.589   3.955  0.7420  0.2130  0.5204
  113MOL    H6136125   6.919   6.813   4.263 -1.9168 -0.6561 -2.2808
  113MOL    H6236126   7.075   6.979   4.328 -2.6350 -1.7071  0.3184
  113MOL    H6336127   7.305   6.997   4.218 -0.4006  1.3164 -0.6456
  113MOL    H6436128   7.357   6.827   4.031  0.8234  0.0237  0.0183
  113MOL    H6536129   7.192   6.669   3.959  0.9033  0.1254  0.2195
  113MOL    C6636130   6.970   6.474   4.130 -0.2343 -0.2745  0.1553
  113MOL    C6736131   6.884   6.355   4.087 -0.3242 -0.1017  0.1928
  113MOL    C6836132   6.896   6.315   3.940  0.4393  0.4465  0.2076
  113MOL    C6936133   7.023   6.301   3.879 -0.2200  0.1352 -0.1666
  113MOL    C7036134   7.034   6.269   3.744  0.6713  0.5000 -0.4482
  113MOL    C7136135   6.915   6.243   3.672 -0.2569  0.2261 -0.4227
  113MOL    C7236136   6.787   6.264   3.733 -0.5152 -0.0213  0.2036
  113MOL    C7336137   6.779   6.315   3.867 -0.6844 -0.2078  0.3214
  113MOL    H7436138   6.957   6.501   4.235 -1.6723  0.1038 -0.1169
  113MOL    H7536139   7.075   6.451   4.111 -0.3348 -1.8213  1.3729
  113MOL    H7636140   6.781   6.385   4.101  0.0140  0.2478  2.1339
  113MOL    H7736141   7.111   6.304   3.941  1.0169 -0.3123 -1.9033
  113MOL    H7836142   7.133   6.264   3.702  1.3698 -1.2752  1.3449
  113MOL    H7936143   6.918   6.211   3.569  0.9823  0.1931 -0.3777
  113MOL    H8036144   6.694   6.241   3.682 -0.7526  1.7793 -0.2304
  113MOL    H8136145   6.684   6.327   3.918  0.4497  2.7908  1.8244
  113MOL    C8236146   6.903   6.229   4.173 -0.9857  0.0132 -0.3583
  113MOL    C8336147   6.871   6.245   4.320  0.0933  0.2597 -0.4739
  113MOL    C8436148   6.724   6.303   4.335 -0.1488 -0.1931 -0.1031
  113MOL    C8536149   6.617   6.219   4.308 -0.6691  0.3176 -0.7024
  113MOL    C8636150   6.484   6.269   4.309  0.0098  0.5131  0.0333
  113MOL    C8736151   6.466   6.407   4.326 -0.0740  0.0781 -0.8956
  113MOL    C8836152   6.573   6.495   4.357 -0.5510 -0.0984  0.8950
  113MOL    C8936153   6.705   6.441   4.365 -0.2274  0.2105 -0.3501
  113MOL    H9036154   7.007   6.201   4.157 -1.5661 -1.7993 -1.0740
  113MOL    H9136155   6.846   6.144   4.136  1.3454 -2.5787  1.7701
  113MOL    H9236156   6.945   6.314   4.362  0.8548 -0.2720 -0.9119
  113MOL    H9336157   6.628   6.116   4.278 -1.7013  0.1266 -0.4597
  113MOL    H9436158   6.402   6.201   4.289  1.1411 -0.8876  0.0709
  113MOL    H9536159   6.364   6.437   4.344 -0.1051 -0.5938  0.0315
  113MOL    H9636160   6.554   6.596   4.388  2.2182  0.4452  0.9591
  113MOL    H9736161   6.791   6.506   4.376 -0.2704 -0.2626  3.1214
  113MOL    C9836162   6.884   6.110   4.401 -0.0122 -0.0585 -0.3437
  113MOL    C9936163   7.031   6.053   4.408 -0.2877 -0.6430 -0.7970
  113MOL   C10036164   7.127   6.149   4.483  0.4119  0.2943 -0.2171
  113MOL   C10136165   7.227   6.212   4.412  0.1507 -0.1659  0.0366
  113MOL   C10236166   7.314   6.306   4.474 -0.3459 -0.0223 -0.6247
  113MOL   C10336167   7.302   6.318   4.610  0.2378 -0.3602  0.1824
  113MOL   C10436168   7.203   6.249   4.689  0.4104 -0.2023 -0.3277
  113MOL   C10536169   7.113   6.166   4.623 -1.1599 -0.2572 -0.2245
  113MOL   H10636170   6.817   6.033   4.363  1.2230 -1.1301 -0.3528
  113MOL   H10736171   6.854   6.130   4.504  2.2777 -1.3367  0.6117
  113MOL   H10836172   7.060   6.043   4.303 -0.9352 -0.2346 -1.0175
  113MOL   H10936173   7.234   6.196   4.305 -0.7552  2.1410 -0.3826
  113MOL   H11036174   7.387   6.362   4.419 -0.5251 -0.9332 -1.8134
  113MOL   H11136175   7.374   6.387   4.652 -0.7423  1.7375 -1.5189
  113MOL   H11236176   7.203   6.264   4.796  0.2095  1.5986 -0.5511
  113MOL   H11336177   7.033   6.108   4.667  0.1739 -2.4437 -0.5661
  113MOL   C11436178   7.024   5.914   4.460  0.3582  0.5911 -0.2179
  113MOL   C11536179   7.159   5.834   4.476 -0.6890 -0.5223 -0.4398
  113MOL   C11636180   7.164   5.777   4.615  0.0551 -0.0457 -0.8326
  113MOL   C11736181   7.252   5.835   4.707 -0.3214 -0.3203  0.5939
  113MOL   C11836182   7.265   5.786   4.840  1.2229  0.2531 -0.5646
  113MOL   C11936183   7.168   5.693   4.882 -0.6964 -0.8197  1.2433
  113MOL   C12036184   7.084   5.637   4.795  0.3048  0.1074  0.3032
  113MOL   C12136185   7.084   5.668   4.655 -0.2019 -0.4495  0.1199
  113MOL   H12236186   6.958   5.851   4.401  0.5945  0.2767 -0.1459
  113MOL   H12336187   6.971   5.915   4.555  0.0116 -2.2761 -0.3547
  113MOL   H12436188   7.249   5.896   4.468 -1.8291  0.9308 -2.7491
  113MOL   H12536189   7.310   5.919   4.672  1.0952 -1.5283  0.0020
  113MOL   H12636190   7.337   5.821   4.912 -1.8705  1.2602  2.1954
  113MOL   H12736191   7.167   5.665   4.986  2.3022 -1.7272  1.0539
  113MOL   H12836192   7.005   5.573   4.832 -0.8143  1.3810  0.1584
  113MOL   H12936193   7.004   5.632   4.592  0.5115 -0.6599 -0.6721
  113MOL   C13036194   7.178   5.729   4.373  0.6197 -0.4294  0.6083
  113MOL   C13136195   7.215   5.782   4.230 -0.2270  0.9048 -0.4770
  113MOL   C13236196   7.348   5.844   4.213 -0.3027  0.0165  0.0723
  113MOL   C13336197   7.349   5.970   4.144  0.3157 -0.1875 -0.3400
  113MOL   C13436198   7.470   6.020   4.101 -0.3846 -0.6733 -0.0132
  113MOL   C13536199   7.589   5.952   4.130  0.5389  0.8151  0.1400
  113MOL   C13636200   7.586   5.828   4.191  0.6595  0.2449 -1.5418
  113MOL   C13736201   7.465   5.772   4.233 -0.2003  0.2098 -0.1735
  113MOL   H13836202   7.085   5.674   4.364  1.2086 -1.6213  1.5689
  113MOL   H13936203   7.245   5.646   4.400  0.0677 -1.1101 -0.1066
  113MOL   H14036204   7.143   5.860   4.207 -1.1875 -0.1054 -0.9341
  113MOL   H14136205   7.260   6.028   4.125 -1.8371 -3.5525 -0.8688
  113MOL   H14236206   7.484   6.113   4.048 -0.8158 -2.0377 -2.6277
  113MOL   H14336207   7.681   5.997   4.096  1.2555 -0.5085  0.2646
  113MOL   H14436208   7.675   5.768   4.207  0.6205 -0.2299 -3.0144
  113MOL   H14536209   7.471   5.674   4.278 -3.0004 -0.3031 -0.7991
  113MOL   C14636210   7.209   5.665   4.126 -0.2860 -0.2408 -0.2163
  113MOL   C14736211   7.070   5.598   4.095  0.1847 -0.0616  0.5864
  113MOL   C14836212   6.965   5.710   4.063  0.5496 -0.1420  0.0363
  113MOL   C14936213   6.970   5.784   3.939  0.5966 -0.3455 -1.4188
  113MOL   C15036214   6.884   5.887   3.907  0.1217 -0.2455  0.3725
  113MOL   C15136215   6.790   5.919   4.007  0.3297  0.1271 -0.2503
  113MOL   C15236216   6.778   5.852   4.127 -0.6210  0.3416  0.4956
  113MOL   C15336217   6.866   5.747   4.158 -0.1349 -0.8830 -1.0199
  113MOL   H15436218   7.276   5.586   4.158 -1.4558 -0.5481  1.5083
  113MOL   H15536219   7.255   5.700   4.033  1.0583  0.7613  0.8129
  113MOL   H15636220   7.043   5.541   4.183  1.8583 -1.4178  0.2424
  113MOL   H15736221   7.048   5.754   3.870  2.3816 -1.8516  1.1761
  113MOL   H15836222   6.897   5.939   3.813  0.1289  0.6376  0.8547
  113MOL   H15936223   6.722   6.001   3.988 -0.3409 -0.9653 -2.7441
  113MOL   H16036224   6.706   5.894   4.196 -0.0628  1.4891  0.3878
  113MOL   H16136225   6.868   5.700   4.255  1.7989 -0.8496 -1.0380
  113MOL   C16236226   7.096   5.495   3.986  0.3869 -0.2787 -0.4230
  113MOL   C16336227   6.973   5.423   3.944  1.0898  0.7687 -0.3606
  113MOL   C16436228   7.016   5.326   3.831 -0.1879  0.4934  0.6643
  113MOL   C16536229   7.019   5.364   3.699 -0.3803  0.1126  0.3391
  113MOL   C16636230   7.062   5.271   3.591  0.3145 -0.1740 -0.6728
  113MOL   C16736231   7.110   5.146   3.626  0.2593 -0.1979 -0.4877
  113MOL   C16836232   7.115   5.111   3.764  0.5636 -0.4726  1.1331
  113MOL   C16936233   7.067   5.199   3.863  0.2271  0.3800  0.1630
  113MOL   H17036234   7.161   5.414   4.020 -2.3511 -2.2633  0.2928
  113MOL   H17136235   7.142   5.536   3.896  2.1108  0.7679  0.8948
  113MOL   H17236236   6.905   5.497   3.901 -1.0193 -0.7964  0.1996
  113MOL   H17336237   6.975   5.451   3.652 -0.7714 -0.5398 -0.5194
  113MOL   H17436238   7.051   5.305   3.489  1.1098 -0.5128 -0.8741
  113MOL   H17536239   7.164   5.088   3.552  1.2034  1.6406 -1.2830
  113MOL   H17636240   7.162   5.020   3.798  1.0095 -0.6426  0.0860
  113MOL   H17736241   7.074   5.167   3.966  0.4748 -1.4368 -0.4012
  113MOL   C17836242   6.883   5.367   4.054  0.9120 -0.3553 -0.0372
  113MOL   C17936243   6.747   5.297   4.012 -0.5623 -0.1096  0.0842
  113MOL   C18036244   6.694   5.219   4.141 -0.4290  0.3222  0.5817
  113MOL   C18136245   6.597   5.279   4.230 -0.2757 -0.2664 -0.5140
  113MOL   C18236246   6.553   5.206   4.344 -0.1368  0.2401 -0.4512
  113MOL   C18336247   6.594   5.074   4.358  0.0593  0.9041 -0.0510
  113MOL   C18436248   6.688   5.019   4.271  0.6025 -0.0344  0.0466
  113MOL   C18536249   6.740   5.088   4.164 -0.4713  0.4286  0.6502
  113MOL   H18636250   6.859   5.446   4.125  1.3896  0.0582 -0.3371
  113MOL   H18736251   6.950   5.299   4.107  1.0253 -0.9290 -0.9065
  113MOL   H18836252   6.773   5.220   3.940 -1.4350  2.5422 -3.1873
  113MOL   H18936253   6.546   5.371   4.205  0.1560 -0.2500 -1.3633
  113MOL   H19036254   6.485   5.253   4.414 -0.3123  1.2746 -1.2986
  113MOL   H19136255   6.550   5.017   4.439 -2.4007 -0.2305 -2.1382
  113MOL   H19236256   6.714   4.916   4.289 -1.2977 -0.7115 -0.9592
  113MOL   H19336257   6.807   5.030   4.102  1.2747  1.8986  1.1085
  113MOL   C19436258   6.641   5.382   3.939  0.0541  0.4238  0.0213
  113MOL   C19536259   6.600   5.333   3.798 -0.6758 -0.2845 -0.2831
  113MOL   C19636260   6.549   5.187   3.801 -0.2781 -0.0579  0.6830
  113MOL   C19736261   6.435   5.145   3.878 -0.1805 -0.0316 -0.5528
  113MOL   C19836262   6.385   5.014   3.876 -0.6142 -0.2292  0.5269
  113MOL   C19936263   6.438   4.919   3.787  0.7045 -0.5933 -0.5090
  113MOL   C20036264   6.538   4.966   3.702  0.9076 -0.0014 -0.1029
  113MOL   C20136265   6.597   5.099   3.704  0.6911 -0.7978  0.0915
  113MOL   H20236266   6.670   5.487   3.935  2.1799 -0.1407  0.2347
  113MOL   H20336267   6.545   5.373   3.990 -0.7033 -0.8153 -1.5481
  113MOL   H20436268   6.694   5.333   3.743 -0.1493  0.4960  0.5904
  113MOL   H20536269   6.399   5.218   3.949  2.6956  0.3615  0.5643
  113MOL   H20636270   6.302   4.990   3.940 -1.3895 -0.1213 -0.4144
  113MOL   H20736271   6.416   4.814   3.789 -3.3780  0.2051  3.4391
  113MOL   H20836272   6.574   4.888   3.637  1.5611  0.5358 -0.3846
  113MOL   H20936273   6.674   5.123   3.633  0.9300 -0.5103  0.4411
  113MOL   C21036274   6.499   5.439   3.730 -0.7219  0.1454  0.3507
  113MOL   C21136275   6.466   5.406   3.583 -0.0450  0.1632 -0.0753
  113MOL   C21236276   6.337   5.482   3.536  0.4951  0.1144 -0.0639
  113MOL   C21336277   6.329   5.623   3.533 -0.1233 -0.8307  0.1055
  113MOL   C21436278   6.211   5.685   3.485 -0.1755 -0.4068 -0.4801
  113MOL   C21536279   6.096   5.613   3.450  0.0324 -0.7860  0.2246
  113MOL   C21636280   6.103   5.473   3.464  0.0153  0.0176  0.4561
  113MOL   C21736281   6.220   5.411   3.500 -0.1283  0.1585 -0.4462
  113MOL   H21836282   6.517   5.545   3.744  0.4278 -0.1830  1.5160
  113MOL   H21936283   6.407   5.426   3.787 -0.4026  0.6622  0.9942
  113MOL   H22036284   6.450   5.298   3.580  1.1339 -0.0796  1.3790
  113MOL   H22136285   6.418   5.679   3.557  0.5624 -1.2961 -1.2552
  113MOL   H22236286   6.214   5.792   3.472  0.6244 -0.7458 -3.5889
  113MOL   H22336287   6.006   5.664   3.419 -0.2249 -0.4489  1.4722
  113MOL   H22436288   6.020   5.412   3.431  1.6050 -2.1167  0.3619
  113MOL   H22536289   6.211   5.304   3.509 -2.4131  0.4348  1.1778
  113MOL   C22636290   6.588   5.441   3.492  0.0774 -0.4270  0.4546
  113MOL   C22736291   6.590   5.375   3.349 -0.9792  0.5454  0.1471
  113MOL   C22836292   6.698   5.443   3.265  1.3277 -0.1368 -0.6583
  113MOL   C22936293   6.665   5.511   3.145  0.8017  0.0874 -0.2623
  113MOL   C23036294   6.767   5.569   3.066 -0.2800 -0.2638 -0.6064
  113MOL   C23136295   6.900   5.565   3.111 -0.2420 -0.3112  0.0108
  113MOL   C23236296   6.930   5.509   3.235  0.0620  0.4820  0.6113
  113MOL   C23336297   6.829   5.441   3.309 -0.3185  0.3596  0.3949
  113MOL   H23436298   6.680   5.411   3.542  0.4874  1.9432  1.1907
  113MOL   H23536299   6.592   5.547   3.467 -0.7725 -0.2866  0.8782
  113MOL   H23636300   6.496   5.394   3.296 -1.4736 -0.9483  0.4524
  113MOL   H23736301   6.566   5.483   3.111  0.8148 -0.3637  0.0700
  113MOL   H23836302   6.739   5.592   2.964  2.1576  1.0349 -1.0309
  113MOL   H23936303   6.981   5.596   3.046  1.6054  0.5279  2.6274
  113MOL   H24036304   7.033   5.505   3.269  1.0291 -0.6608 -2.2097
  113MOL   H24136305   6.852   5.392   3.402  0.2207 -1.3734 -0.6214
  113MOL   C24236306   6.601   5.221   3.352 -0.2161  0.2775 -0.4068
  113MOL   C24336307   6.656   5.157   3.223  0.0800  0.2768 -0.8726
  113MOL   C24436308   6.784   5.078   3.260  0.0338 -0.5794 -0.3248
  113MOL   C24536309   6.904   5.131   3.207 -0.7504  0.3675 -0.0111
  113MOL   C24636310   7.026   5.075   3.249  0.0253  0.0472  0.8142
  113MOL   C24736311   7.034   4.957   3.333  0.8516  0.5439  0.3433
  113MOL   C24836312   6.911   4.913   3.387  0.7629  0.5418 -0.4727
  113MOL   C24936313   6.788   4.963   3.340  0.7469 -0.2297 -0.2231
  113MOL   H25036314   6.506   5.179   3.385 -1.5044  1.7604 -2.1200
  113MOL   H25136315   6.666   5.197   3.436 -3.4219 -1.3584  1.7119
  113MOL   H25236316   6.677   5.231   3.145 -0.9718  1.6391  0.1246
  113MOL   H25336317   6.901   5.222   3.148  0.8830 -1.0057 -2.3062
  113MOL   H25436318   7.122   5.112   3.216  0.0644 -2.0143 -1.5491
  113MOL   H25536319   7.133   4.919   3.354 -0.5336 -2.3530  2.0026
  113MOL   H25636320   6.903   4.829   3.454  1.0757  2.7139  2.3327
  113MOL   H25736321   6.692   4.926   3.372  1.3271 -0.8928  0.7627
  113MOL   C25836322   6.561   5.061   3.146  0.9208 -0.3318  0.5702
  113MOL   C25936323   6.432   5.108   3.076  0.4766 -0.6294  0.5857
  113MOL   C26036324   6.453   5.236   2.986  0.2623  0.0390 -1.0170
  113MOL   C26136325   6.558   5.239   2.892 -0.5485  0.3825 -0.5630
  113MOL   C26236326   6.583   5.356   2.810  0.1001  0.7954  0.0297
  113MOL   C26336327   6.487   5.463   2.820 -0.1347 -0.6671 -0.2718
  113MOL   C26436328   6.383   5.456   2.916  0.2920 -0.4465 -0.4715
  113MOL   C26536329   6.369   5.345   2.998  0.0006  0.1555 -0.2235
  113MOL   H26636330   6.529   4.983   3.215 -1.7502 -0.1558 -0.4232
  113MOL   H26736331   6.620   5.011   3.069  1.0993  3.2112 -1.6753
  113MOL   H26836332   6.368   5.149   3.154 -0.6151  0.3036 -0.7604
  113MOL   H26936333   6.626   5.154   2.893 -1.5331 -0.4099 -0.0895
  113MOL   H27036334   6.665   5.368   2.740 -2.3019  0.1379 -3.0130
  113MOL   H27136335   6.494   5.555   2.764 -1.6756 -1.1876 -1.3859
  113MOL   H27236336   6.307   5.533   2.912  0.7245  0.1703  2.0549
  113MOL   H27336337   6.283   5.340   3.062  0.4034 -1.5005  0.2199
  113MOL   C27436338   6.352   4.996   3.004  0.1576  0.2370 -0.3338
  113MOL   C27536339   6.271   4.894   3.094  0.3573 -0.7270 -0.7291
  113MOL   C27636340   6.142   4.945   3.152  0.5232 -0.4448 -0.5895
  113MOL   C27736341   6.035   4.986   3.068 -0.5050 -0.0740 -0.1011
  113MOL   C27836342   5.922   5.046   3.118  0.1676  0.2173 -0.5393
  113MOL   C27936343   5.900   5.054   3.258 -0.4983  0.0322  0.5982
  113MOL   C28036344   5.998   5.014   3.341  0.2262  1.6279 -0.5930
  113MOL   C28136345   6.114   4.953   3.290 -0.0893 -0.0187 -0.1160
  113MOL   H28236346   6.423   4.936   2.948  0.9082 -0.0632  0.9102
  113MOL   H28336347   6.280   5.030   2.931  0.7985  0.0987 -1.0353
  113MOL   H28436348   6.326   4.886   3.188 -1.7510 -0.5635  0.5465
  113MOL   H28536349   6.044   4.991   2.960 -2.1917  1.4250 -0.1971
  113MOL   H28636350   5.846   5.079   3.049  0.1501  0.4572 -0.4028
  113MOL   H28736351   5.810   5.091   3.304 -1.0645 -0.9635  0.2940
  113MOL   H28836352   5.998   5.019   3.449 -0.3052 -1.7242 -0.3685
  113MOL   H28936353   6.198   4.920   3.350 -0.6931 -0.4730  0.4807
  113MOL   C29036354   6.256   4.748   3.048  0.1041  0.4975 -0.6684
  113MOL   C29136355   6.381   4.668   3.083  0.6255  0.2548  0.4460
  113MOL   C29236356   6.403   4.660   3.233 -0.2065 -0.4124  0.2716
  113MOL   C29336357   6.297   4.626   3.315  0.0071 -0.3805  0.0588
  113MOL   C29436358   6.307   4.627   3.458  0.0907 -0.5938 -0.0183
  113MOL   C29536359   6.433   4.652   3.513  0.1723  0.3790 -0.0074
  113MOL   C29636360   6.546   4.672   3.430  0.1545 -0.8762 -0.5130
  113MOL   C29736361   6.534   4.681   3.293 -0.4854  0.7573 -0.5880
  113MOL   H29836362   6.232   4.750   2.941 -1.0596 -0.0684 -0.4264
  113MOL   H29936363   6.167   4.698   3.088  2.1488 -0.6963  2.5627
  113MOL   H30036364   6.460   4.726   3.035 -1.9053  1.5464 -2.2692
  113MOL   H30136365   6.199   4.607   3.275 -0.0579 -0.5371  0.2939
  113MOL   H30236366   6.219   4.604   3.516 -0.2775 -1.6473 -0.9854
  113MOL   H30336367   6.430   4.653   3.621 -1.3708  0.5093 -0.0367
  113MOL   H30436368   6.643   4.685   3.477 -0.3391 -1.6624  0.7405
  113MOL   H30536369   6.626   4.691   3.237  1.1984 -2.4291  1.4440
  113MOL   C30636370   6.388   4.526   3.032 -0.1898  1.0593 -0.2296
  113MOL   C30736371   6.383   4.509   2.871  0.1142  0.2385 -0.1586
  113MOL   C30836372   6.420   4.367   2.825  0.3127 -0.2107  0.1629
  113MOL   C30936373   6.549   4.320   2.863 -0.1423  0.5184 -0.4591
  113MOL   C31036374   6.597   4.202   2.806 -0.1797  0.0961 -0.6368
  113MOL   C31136375   6.516   4.120   2.727 -0.0364 -0.4708  0.4460
  113MOL   C31236376   6.384   4.162   2.699 -0.1917  0.6523  0.1843
  113MOL   C31336377   6.340   4.286   2.748  0.1150  0.7733  0.1783
  113MOL   H31436378   6.311   4.472   3.087 -0.3510  0.7946 -0.7132
  113MOL   H31536379   6.482   4.485   3.069 -0.9986 -0.9576 -0.3566
  113MOL   H31636380   6.463   4.568   2.825 -0.6772  0.7794 -0.8779
  113MOL   H31736381   6.621   4.378   2.918  1.1756 -1.4238 -0.0533
  113MOL   H31836382   6.692   4.162   2.837 -0.2552  1.8406  2.0358
  113MOL   H31936383   6.562   4.034   2.680  1.3782 -0.4266  1.7124
  113MOL   H32036384   6.322   4.101   2.634 -1.4118  1.3520  0.6697
  113MOL   H32136385   6.246   4.317   2.705  0.1837  0.4113 -0.2354
  113MOL   H32236386   6.290   4.534   2.818  1.0229  0.0867 -1.8604
  114MOL     C136387   3.802   1.600   6.902  0.6616 -0.0100 -0.4050
  114MOL     C236388   3.789   1.726   6.979  0.0873 -0.0816 -0.5586
  114MOL     C336389   3.692   1.716   7.097 -0.8346  0.2097 -0.7809
  114MOL     C436390   3.667   1.600   7.172 -0.5418 -0.4692 -0.2455
  114MOL     C536391   3.571   1.594   7.271 -0.0894  0.1125 -0.4414
  114MOL     C636392   3.488   1.703   7.301 -0.7410 -0.5424 -0.1075
  114MOL     C736393   3.503   1.821   7.219 -0.0909  0.2933  0.4387
  114MOL     C836394   3.607   1.827   7.123  0.5280  0.3145 -0.2115
  114MOL     H936395   3.851   1.519   6.956 -0.2540  0.1835  0.7297
  114MOL    H1036396   3.706   1.560   6.872  0.9394 -1.6745  0.8408
  114MOL    H1136397   3.749   1.802   6.913 -1.1701 -1.7914 -1.8066
  114MOL    H1236398   3.721   1.509   7.151 -0.6655 -0.9601  1.4225
  114MOL    H1336399   3.568   1.502   7.328 -0.3323  0.0298 -0.5871
  114MOL    H1436400   3.416   1.691   7.380 -0.6352 -1.9067 -0.2089
  114MOL    H1536401   3.435   1.904   7.226 -1.3364 -0.7043  0.3802
  114MOL    H1636402   3.630   1.925   7.083 -0.4107  0.7390  0.2617
  114MOL    H1736403   3.857   1.620   6.810 -1.0907  0.7933 -1.2831
  114MOL    C1836404   3.933   1.758   7.035 -0.6418  0.2863  1.2090
  114MOL    C1936405   4.047   1.783   6.938  0.6216 -0.4908  0.4357
  114MOL    C2036406   4.026   1.897   6.841  0.4943 -0.5084 -0.0043
  114MOL    C2136407   3.986   2.026   6.890  0.4900 -0.4300  0.2274
  114MOL    C2236408   3.930   2.121   6.809 -0.0818  0.0510  0.0015
  114MOL    C2336409   3.933   2.102   6.671  0.3422 -0.0309 -0.3762
  114MOL    C2436410   3.983   1.981   6.620 -0.5577  0.1500 -0.0709
  114MOL    C2536411   4.030   1.878   6.706 -0.4355 -0.1987 -0.0872
  114MOL    H2636412   3.952   1.681   7.109 -0.5522  0.4859  1.3972
  114MOL    H2736413   3.922   1.848   7.096  0.3600  1.0019  0.3575
  114MOL    H2836414   4.060   1.692   6.880  1.2840 -0.3337  0.3336
  114MOL    H2936415   3.971   2.047   6.995  1.2326 -0.7677  0.4075
  114MOL    H3036416   3.893   2.217   6.844  1.5368  1.1824 -1.2818
  114MOL    H3136417   3.905   2.175   6.596  0.0067  0.9178  0.6624
  114MOL    H3236418   3.972   1.981   6.513  0.4179 -2.2519 -0.1998
  114MOL    H3336419   4.048   1.778   6.669 -1.0424 -1.2205  2.2960
  114MOL    C3436420   4.187   1.796   7.012  0.0629  0.2378 -0.0629
  114MOL    C3536421   4.306   1.746   6.930  0.1777  0.2962 -0.8193
  114MOL    C3636422   4.423   1.854   6.934  0.4564 -0.2407  0.6397
  114MOL    C3736423   4.462   1.927   6.823 -0.3697 -0.3621  0.1407
  114MOL    C3836424   4.565   2.020   6.826  0.2926  0.1507 -0.3779
  114MOL    C3936425   4.640   2.039   6.948 -0.3902 -0.0381 -0.4974
  114MOL    C4036426   4.611   1.962   7.061  0.3086 -0.1626 -0.2168
  114MOL    C4136427   4.503   1.871   7.054  0.1901 -0.0241  1.3149
  114MOL    H4236428   4.175   1.754   7.112  0.8629 -1.8224 -0.8037
  114MOL    H4336429   4.203   1.898   7.047  0.3534  0.9364 -2.2045
  114MOL    H4436430   4.275   1.741   6.825 -2.2589 -0.1346 -0.1095
  114MOL    H4536431   4.413   1.917   6.727  0.4116 -0.1343 -0.2818
  114MOL    H4636432   4.596   2.065   6.733 -0.9657  1.6502 -0.0907
  114MOL    H4736433   4.716   2.116   6.954 -0.2587 -0.2562  0.8065
  114MOL    H4836434   4.667   1.961   7.153  0.7683 -2.5570 -0.4862
  114MOL    H4936435   4.477   1.818   7.144  0.3143 -3.0101 -0.3161
  114MOL    C5036436   4.362   1.611   6.977 -0.5703 -0.0337  0.2461
  114MOL    C5136437   4.273   1.483   6.949 -0.0916 -0.3211 -0.6636
  114MOL    C5236438   4.255   1.461   6.804 -0.1858 -0.4055 -0.3393
  114MOL    C5336439   4.123   1.458   6.745 -1.1985  0.0749 -0.3516
  114MOL    C5436440   4.098   1.470   6.606 -0.2281  0.3760 -0.0190
  114MOL    C5536441   4.208   1.488   6.522 -0.0616 -0.2393 -0.1086
  114MOL    C5636442   4.340   1.484   6.579 -0.2459 -0.8441 -0.4133
  114MOL    C5736443   4.367   1.469   6.712  0.2333 -0.3681 -0.2814
  114MOL    H5836444   4.385   1.612   7.084 -1.2854  0.0825  0.4034
  114MOL    H5936445   4.461   1.602   6.933  0.5599  1.0855  2.5119
  114MOL    H6036446   4.176   1.501   6.996  0.7584  1.8887  0.3210
  114MOL    H6136447   4.034   1.450   6.807 -0.9833  1.9796  0.2322
  114MOL    H6236448   3.999   1.460   6.565  0.3502 -0.7910 -1.1702
  114MOL    H6336449   4.192   1.494   6.416 -1.0691 -1.7875 -0.0582
  114MOL    H6436450   4.427   1.471   6.516 -0.6103 -2.3928 -0.6322
  114MOL    H6536451   4.466   1.451   6.751  0.7224  1.2891 -0.7376
  114MOL    C6636452   4.335   1.361   7.020  0.2247  0.7351 -0.2330
  114MOL    C6736453   4.345   1.363   7.178  0.5192  0.0385  0.8361
  114MOL    C6836454   4.202   1.345   7.232  0.6495 -0.3606  0.6393
  114MOL    C6936455   4.127   1.226   7.214  0.3415 -0.5204  0.0755
  114MOL    C7036456   3.994   1.212   7.260  0.5230 -0.2183 -0.2592
  114MOL    C7136457   3.925   1.321   7.318  0.6196 -0.6157 -0.1365
  114MOL    C7236458   3.994   1.445   7.325  0.4140  0.2354 -0.0629
  114MOL    C7336459   4.131   1.458   7.287  0.4020  0.3561  0.5305
  114MOL    H7436460   4.430   1.332   6.974 -0.4772 -0.6460 -0.8392
  114MOL    H7536461   4.272   1.275   7.002  2.2502 -0.3166 -2.5572
  114MOL    H7636462   4.377   1.459   7.219  2.1050  0.3020 -0.9611
  114MOL    H7736463   4.177   1.139   7.174  2.6105  0.7554  0.0243
  114MOL    H7836464   3.951   1.112   7.253 -0.5407  0.3072 -1.6925
  114MOL    H7936465   3.820   1.322   7.344  0.6724 -0.1520  0.0645
  114MOL    H8036466   3.936   1.526   7.367 -0.0123  1.5058 -2.9558
  114MOL    H8136467   4.179   1.555   7.293  1.0524  0.0862 -0.2811
  114MOL    C8236468   4.429   1.265   7.249 -0.3264 -0.3240 -0.6506
  114MOL    C8336469   4.572   1.313   7.276 -0.2778 -0.0187 -0.4536
  114MOL    C8436470   4.585   1.421   7.385 -0.9680 -0.0240  0.1091
  114MOL    C8536471   4.626   1.551   7.343  0.5123 -0.4345 -1.0590
  114MOL    C8636472   4.664   1.651   7.435  0.4979 -0.2723 -0.7644
  114MOL    C8736473   4.675   1.612   7.566 -0.4972 -0.1411  0.1692
  114MOL    C8836474   4.632   1.488   7.618 -0.1492 -0.0366 -0.6979
  114MOL    C8936475   4.586   1.391   7.526  0.2715 -0.4961 -0.2726
  114MOL    H9036476   4.422   1.175   7.188 -1.1330  0.2423 -1.3976
  114MOL    H9136477   4.383   1.259   7.348 -1.8690 -1.8169 -1.4405
  114MOL    H9236478   4.609   1.357   7.183  0.7815 -2.6644 -1.3340
  114MOL    H9336479   4.620   1.565   7.236  1.3829  0.4373 -0.9898
  114MOL    H9436480   4.700   1.746   7.397 -1.1791  1.3782  1.6480
  114MOL    H9536481   4.719   1.686   7.632  1.0036 -1.7787  1.0457
  114MOL    H9636482   4.634   1.467   7.724 -0.7640 -1.8227 -1.0174
  114MOL    H9736483   4.576   1.295   7.574  0.9726 -0.9865 -1.0956
  114MOL    C9836484   4.665   1.191   7.303  0.0247  0.5439  0.5463
  114MOL    C9936485   4.755   1.151   7.187  0.1162 -0.0353  0.1216
  114MOL   C10036486   4.858   1.256   7.142 -0.0294  0.0834  0.1682
  114MOL   C10136487   4.900   1.359   7.229 -0.0068  0.5078  0.2313
  114MOL   C10236488   5.001   1.451   7.188  0.7888 -0.0315  0.1745
  114MOL   C10336489   5.053   1.444   7.057 -0.2080  0.0725 -0.0988
  114MOL   C10436490   5.003   1.351   6.966 -1.0776 -0.2703 -0.2423
  114MOL   C10536491   4.909   1.256   7.009  0.2719 -0.4607 -0.0163
  114MOL   H10636492   4.601   1.107   7.327  0.4924  0.3810  1.2406
  114MOL   H10736493   4.725   1.204   7.393 -2.1620 -0.4900  2.2031
  114MOL   H10836494   4.695   1.136   7.098  1.2492 -0.9435 -0.5138
  114MOL   H10936495   4.842   1.365   7.320 -2.8698  1.1414 -1.5426
  114MOL   H11036496   5.026   1.529   7.258 -0.0114 -1.0251  1.5981
  114MOL   H11136497   5.123   1.521   7.028 -1.8552  2.3072  1.7576
  114MOL   H11236498   5.025   1.344   6.861  0.1363  3.0900 -0.2440
  114MOL   H11336499   4.879   1.177   6.941 -2.9535 -1.0551  1.9495
  114MOL   C11436500   4.830   1.019   7.213  0.3674  0.1445 -0.1262
  114MOL   C11536501   4.742   0.891   7.198  0.1920 -0.1964 -0.7252
  114MOL   C11636502   4.639   0.901   7.085 -0.2611  0.7002 -0.4342
  114MOL   C11736503   4.505   0.932   7.112  0.1327  0.0148 -0.5214
  114MOL   C11836504   4.408   0.927   7.008 -0.3929 -0.6111 -0.5059
  114MOL   C11936505   4.447   0.924   6.875 -0.7819 -0.5469 -0.1824
  114MOL   C12036506   4.580   0.880   6.853 -0.4806  0.4487  0.6022
  114MOL   C12136507   4.674   0.876   6.948  0.1009 -0.8390 -0.0513
  114MOL   H12236508   4.878   1.015   7.311  1.7721  1.7439 -0.7115
  114MOL   H12336509   4.916   1.011   7.147  1.6336  1.1085  1.3558
  114MOL   H12436510   4.683   0.866   7.287  2.2700 -2.6673  0.0280
  114MOL   H12536511   4.475   0.939   7.215 -0.7532 -4.0464 -0.4289
  114MOL   H12636512   4.304   0.922   7.035 -0.4098  0.0039 -0.4422
  114MOL   H12736513   4.376   0.914   6.795  0.2014 -1.8973 -0.9109
  114MOL   H12836514   4.603   0.837   6.757 -0.4549 -1.5851  1.5045
  114MOL   H12936515   4.779   0.862   6.926  0.3104  0.4334  0.0984
  114MOL   C13036516   4.823   0.762   7.180 -0.6423  0.4033 -0.3311
  114MOL   C13136517   4.914   0.717   7.300 -0.2017  0.4587 -0.4243
  114MOL   C13236518   4.848   0.599   7.364  0.1698 -0.4862  0.6106
  114MOL   C13336519   4.747   0.625   7.455 -0.1654 -0.4821 -0.3926
  114MOL   C13436520   4.679   0.524   7.527 -0.4542  0.1206 -0.0540
  114MOL   C13536521   4.701   0.387   7.491 -0.1460  0.2091 -0.4441
  114MOL   C13636522   4.785   0.358   7.383 -0.1755  0.2563  0.0920
  114MOL   C13736523   4.866   0.462   7.329  0.2265 -0.3157 -0.0689
  114MOL   H13836524   4.875   0.761   7.084 -0.6737  1.0616 -0.3571
  114MOL   H13936525   4.742   0.692   7.159  0.6617 -1.6850  1.3753
  114MOL   H14036526   4.909   0.801   7.370 -2.7945  0.0775 -0.1115
  114MOL   H14136527   4.737   0.731   7.477  4.6079  0.3754 -1.8433
  114MOL   H14236528   4.609   0.564   7.600  0.2524 -0.2495  0.8429
  114MOL   H14336529   4.658   0.300   7.538 -2.8685  0.8981 -1.5865
  114MOL   H14436530   4.801   0.256   7.350 -0.3956  0.3627 -0.3482
  114MOL   H14536531   4.945   0.428   7.264  0.3044  0.9110 -0.6286
  114MOL   C14636532   5.061   0.686   7.257  0.1726  0.5008  0.5768
  114MOL   C14736533   5.144   0.813   7.210 -0.1809  0.3683  0.5320
  114MOL   C14836534   5.165   0.917   7.323 -0.2074  0.4214  0.6739
  114MOL   C14936535   5.180   0.888   7.460  0.3715  0.2815 -0.8926
  114MOL   C15036536   5.199   0.987   7.564 -0.4081 -0.5141  0.5739
  114MOL   C15136537   5.198   1.123   7.526 -0.4579  0.8136  0.5455
  114MOL   C15236538   5.172   1.158   7.387 -0.5054  0.1343  0.2647
  114MOL   C15336539   5.157   1.051   7.291  0.3528  0.3132  0.1007
  114MOL   H15436540   5.068   0.624   7.168  1.8795  0.0709  0.9822
  114MOL   H15536541   5.116   0.645   7.342  0.0961 -0.8262 -0.0025
  114MOL   H15636542   5.077   0.856   7.136 -1.9292 -1.5076  0.9675
  114MOL   H15736543   5.176   0.786   7.494  1.3557  1.0824  1.7558
  114MOL   H15836544   5.194   0.962   7.669 -1.7217  3.8339  1.6694
  114MOL   H15936545   5.221   1.197   7.602  0.3366  0.7983  0.3185
  114MOL   H16036546   5.181   1.259   7.352 -0.6407  0.0372 -0.0476
  114MOL   H16136547   5.136   1.083   7.190 -0.7157  1.1771  0.5893
  114MOL   C16236548   5.282   0.776   7.154  0.2455  0.1589 -0.8153
  114MOL   C16336549   5.280   0.741   7.002 -0.0537 -0.1010 -0.7415
  114MOL   C16436550   5.181   0.830   6.924 -0.1835 -0.9381 -0.6182
  114MOL   C16536551   5.077   0.777   6.849  0.0616 -0.2878  0.5544
  114MOL   C16636552   4.998   0.862   6.769  0.3607  0.1167  0.1748
  114MOL   C16736553   5.021   1.003   6.760 -0.4356  0.1705 -0.6582
  114MOL   C16836554   5.123   1.058   6.842  0.1098 -0.5025 -0.2825
  114MOL   C16936555   5.207   0.970   6.915  0.1936  0.0604 -0.3407
  114MOL   H17036556   5.327   0.694   7.209 -1.0792 -1.2329 -1.7631
  114MOL   H17136557   5.345   0.864   7.168 -1.4929  1.6400 -1.9960
  114MOL   H17236558   5.250   0.636   6.997 -3.7223  0.8582 -0.1344
  114MOL   H17336559   5.058   0.671   6.842 -1.6311  0.0370 -0.0044
  114MOL   H17436560   4.932   0.810   6.700 -1.1427  0.8439  1.0392
  114MOL   H17536561   4.973   1.059   6.681 -1.9236 -1.0835 -0.6586
  114MOL   H17636562   5.152   1.158   6.814  0.3925 -0.3086  0.7071
  114MOL   H17736563   5.294   1.011   6.962  1.0103  0.4518 -2.1362
  114MOL   C17836564   5.424   0.741   6.939  0.6555  0.7892 -0.2549
  114MOL   C17936565   5.524   0.638   6.999 -0.3610  0.5267  0.1247
  114MOL   C18036566   5.505   0.487   6.962  0.0707 -1.2090 -0.1349
  114MOL   C18136567   5.532   0.443   6.832 -0.1151 -0.4137  0.5892
  114MOL   C18236568   5.507   0.306   6.797 -0.0848 -0.3537 -0.2091
  114MOL   C18336569   5.471   0.209   6.896  0.9531 -0.8089  0.2620
  114MOL   C18436570   5.467   0.253   7.029 -0.4913  0.4119 -0.1224
  114MOL   C18536571   5.483   0.385   7.061  0.2142 -0.0309  0.8804
  114MOL   H18636572   5.457   0.845   6.948  1.9848  0.2206  1.4886
  114MOL   H18736573   5.416   0.723   6.832  2.4971  1.1588 -0.4664
  114MOL   H18836574   5.515   0.643   7.107 -1.4092  1.5423 -0.0000
  114MOL   H18936575   5.569   0.507   6.753  1.2323 -1.2363  0.5242
  114MOL   H19036576   5.514   0.278   6.692  0.4288  0.7237 -0.4619
  114MOL   H19136577   5.449   0.110   6.860  1.2833 -0.3108 -1.3757
  114MOL   H19236578   5.458   0.173   7.101  0.7085  0.1833 -0.2221
  114MOL   H19336579   5.472   0.419   7.162 -0.4225  1.7147  0.2394
  114MOL   C19436580   5.668   0.684   6.971  0.0682  0.0690 -0.1793
  114MOL   C19536581   5.726   0.804   7.050 -0.6351 -0.3122 -0.4249
  114MOL   C19636582   5.733   0.783   7.198  0.4339 -0.7614 -0.6607
  114MOL   C19736583   5.837   0.709   7.264  0.0078 -0.1770  0.0922
  114MOL   C19836584   5.829   0.693   7.403  0.2757 -0.1347  0.2762
  114MOL   C19936585   5.737   0.770   7.485 -0.4892  0.1598 -0.4261
  114MOL   C20036586   5.653   0.861   7.427  0.0022 -0.4287  0.2882
  114MOL   C20136587   5.651   0.866   7.284 -0.0915  0.1402 -0.3724
  114MOL   H20236588   5.670   0.702   6.863  1.0919 -1.0344 -0.3552
  114MOL   H20336589   5.723   0.593   6.996 -0.4806 -0.0163  0.7091
  114MOL   H20436590   5.658   0.887   7.030  0.2953  0.5781  0.0134
  114MOL   H20536591   5.895   0.639   7.205 -1.2873 -0.2863 -1.0954
  114MOL   H20636592   5.897   0.621   7.445 -1.3031 -1.0673  1.3209
  114MOL   H20736593   5.739   0.761   7.592 -0.7396  2.4709 -0.2020
  114MOL   H20836594   5.589   0.931   7.479 -1.9476 -2.8740  1.2772
  114MOL   H20936595   5.582   0.938   7.242  0.2810  1.0209  0.4914
  114MOL   C21036596   5.870   0.855   7.006 -1.1153 -0.1444 -0.0045
  114MOL   C21136597   5.882   0.895   6.864  0.3580  0.1491 -0.1951
  114MOL   C21236598   5.784   0.990   6.806  0.1053  1.3430 -0.9158
  114MOL   C21336599   5.674   0.947   6.727 -0.2950  0.3543  0.4936
  114MOL   C21436600   5.577   1.037   6.674 -0.3333 -0.3023  0.4712
  114MOL   C21536601   5.580   1.167   6.720  0.3919 -0.0629  0.5655
  114MOL   C21636602   5.689   1.215   6.797  0.0768 -0.0951  0.2193
  114MOL   C21736603   5.791   1.127   6.833 -0.4951 -0.2329 -0.0264
  114MOL   H21836604   5.946   0.781   7.033  0.9191  2.3993  1.5394
  114MOL   H21936605   5.903   0.939   7.068  0.0801  0.0599 -0.8931
  114MOL   H22036606   5.885   0.805   6.801  0.6096 -0.8143  1.1712
  114MOL   H22136607   5.660   0.842   6.702 -1.3199  0.3537  1.0839
  114MOL   H22236608   5.508   1.010   6.596 -0.6424  0.9424  0.3124
  114MOL   H22336609   5.505   1.235   6.681 -1.3750 -1.9914  0.5047
  114MOL   H22436610   5.680   1.320   6.820  3.0921  0.5901 -1.4795
  114MOL   H22536611   5.873   1.164   6.893  0.5707 -0.8282 -1.0889
  114MOL   C22636612   6.025   0.958   6.850  0.2297 -0.6357 -0.1859
  114MOL   C22736613   6.139   0.858   6.831 -0.2061  0.1194 -0.9150
  114MOL   C22836614   6.118   0.782   6.698  0.1297  0.2942  1.4804
  114MOL   C22936615   6.093   0.844   6.579  0.6063  0.2631 -0.4714
  114MOL   C23036616   6.080   0.778   6.461  0.0264 -0.2518  0.2853
  114MOL   C23136617   6.097   0.638   6.456  0.0083 -0.6816  0.0057
  114MOL   C23236618   6.124   0.570   6.572 -0.5381  0.5973  0.2395
  114MOL   C23336619   6.136   0.641   6.698  0.5229 -0.3065 -1.0244
  114MOL   H23436620   6.052   1.029   6.928  0.0848  0.6062 -1.2476
  114MOL   H23536621   6.030   1.028   6.766  2.5082 -1.3842 -0.6897
  114MOL   H23636622   6.121   0.777   6.902 -0.4123  0.5439 -0.4770
  114MOL   H23736623   6.103   0.951   6.569 -0.1519  0.5170  1.4006
  114MOL   H23836624   6.060   0.839   6.374  0.5109  0.1472  0.4602
  114MOL   H23936625   6.096   0.594   6.357  2.0443 -2.3760  0.7111
  114MOL   H24036626   6.129   0.463   6.580 -0.0240  0.5986 -0.0067
  114MOL   H24136627   6.156   0.588   6.790  2.4038  1.2858 -0.5021
  114MOL   C24236628   6.284   0.902   6.841 -0.6441 -0.4244 -0.4243
  114MOL   C24336629   6.353   0.871   6.969  0.2771 -0.1880 -0.1871
  114MOL   C24436630   6.293   0.937   7.092 -0.3637 -0.9040  0.4413
  114MOL   C24536631   6.184   0.877   7.161  0.2640 -0.0463  0.2003
  114MOL   C24636632   6.124   0.947   7.268 -0.1026 -0.2672  0.1176
  114MOL   C24736633   6.170   1.081   7.298 -0.0354  0.3323  0.2301
  114MOL   C24836634   6.277   1.137   7.229  0.2312 -0.3407  0.3086
  114MOL   C24936635   6.342   1.065   7.131  0.4783  0.4862 -0.3629
  114MOL   H25036636   6.297   1.008   6.821  1.5031 -0.5904 -0.0615
  114MOL   H25136637   6.338   0.863   6.755 -0.5468  1.4722 -1.2523
  114MOL   H25236638   6.450   0.920   6.962  0.0189  0.6058  1.5215
  114MOL   H25336639   6.150   0.777   7.139 -0.6151  0.3721 -0.3542
  114MOL   H25436640   6.042   0.902   7.321 -0.3194  0.7982  0.7004
  114MOL   H25536641   6.135   1.132   7.386  1.7207  1.3064  0.3711
  114MOL   H25636642   6.306   1.237   7.258 -0.1726 -0.1410  0.0264
  114MOL   H25736643   6.427   1.103   7.076  2.2191 -0.0320  1.9142
  114MOL   C25836644   6.387   0.714   6.985 -0.1777  0.6415 -0.3385
  114MOL   C25936645   6.536   0.690   7.014 -1.4661 -0.6284  0.3979
  114MOL   C26036646   6.637   0.733   6.901  0.3966  0.6364 -0.6837
  114MOL   C26136647   6.742   0.825   6.921  0.1646 -0.1411 -0.8783
  114MOL   C26236648   6.842   0.853   6.829 -1.0209 -0.2331 -0.2674
  114MOL   C26336649   6.840   0.789   6.707  0.2850 -0.1315  0.2125
  114MOL   C26436650   6.736   0.700   6.674 -0.7976 -0.6728  0.3877
  114MOL   C26536651   6.636   0.671   6.771 -0.5404  0.4411 -0.1180
  114MOL   H26636652   6.361   0.662   6.894  1.1550  2.0921 -1.5843
  114MOL   H26736653   6.326   0.691   7.073  0.3589 -0.4383 -0.2443
  114MOL   H26836654   6.536   0.582   6.999 -2.0075 -0.7881  1.5374
  114MOL   H26936655   6.748   0.888   7.008  1.0564  0.0500 -1.0757
  114MOL   H27036656   6.918   0.927   6.852 -0.0482 -1.5138  0.7076
  114MOL   H27136657   6.907   0.818   6.627  2.3349  0.7801  2.1819
  114MOL   H27236658   6.738   0.660   6.573 -3.4491  1.1739 -0.4581
  114MOL   H27336659   6.566   0.592   6.745  0.2121  0.0754 -1.0439
  114MOL   C27436660   6.594   0.733   7.158 -0.4037  0.1151 -0.0646
  114MOL   C27536661   6.505   0.705   7.281  0.7100  0.0597  0.3397
  114MOL   C27636662   6.466   0.553   7.300  0.4804 -0.6539  0.0538
  114MOL   C27736663   6.575   0.464   7.315 -0.1156  0.0059  0.5095
  114MOL   C27836664   6.545   0.328   7.304 -0.3979 -0.1929  0.0900
  114MOL   C27936665   6.415   0.278   7.273 -0.1796  0.2521 -0.4426
  114MOL   C28036666   6.309   0.374   7.254  0.6984 -0.2746 -0.3862
  114MOL   C28136667   6.334   0.510   7.280  0.0206  0.0685 -0.7675
  114MOL   H28236668   6.607   0.841   7.149  3.6441 -0.3460 -0.6300
  114MOL   H28336669   6.695   0.699   7.184 -0.4309  1.1246  1.4427
  114MOL   H28436670   6.412   0.761   7.268  1.2708  0.8382 -0.3799
  114MOL   H28536671   6.677   0.499   7.323 -0.5152  0.9154  1.7973
  114MOL   H28636672   6.627   0.261   7.322 -0.0459  0.2138  0.0323
  114MOL   H28736673   6.397   0.172   7.265 -0.2565  0.2187  0.1297
  114MOL   H28836674   6.213   0.339   7.220  1.7026 -3.7205  0.1515
  114MOL   H28936675   6.250   0.575   7.258 -1.2587 -1.4190 -0.3986
  114MOL   C29036676   6.566   0.766   7.416  0.0243  0.3634 -0.3942
  114MOL   C29136677   6.494   0.741   7.553 -0.2902  0.0793  0.2344
  114MOL   C29236678   6.591   0.748   7.672 -0.0143 -0.3501  0.3106
  114MOL   C29336679   6.622   0.626   7.735 -0.3467 -0.3496  0.2543
  114MOL   C29436680   6.699   0.627   7.850 -0.5570 -0.1216 -0.7357
  114MOL   C29536681   6.751   0.751   7.906  0.6993  0.2416 -0.0925
  114MOL   C29636682   6.708   0.866   7.844 -0.4880  0.0002  0.4932
  114MOL   C29736683   6.626   0.870   7.728 -0.2831  0.5776  0.0488
  114MOL   H29836684   6.584   0.873   7.401 -0.3361  0.7384  1.6871
  114MOL   H29936685   6.664   0.719   7.418 -0.4746 -0.7759 -1.9632
  114MOL   H30036686   6.455   0.640   7.563  0.1702 -0.0346  0.9125
  114MOL   H30136687   6.587   0.531   7.699 -0.7029 -0.3341  0.5490
  114MOL   H30236688   6.734   0.543   7.909 -0.0372  2.2682  2.5606
  114MOL   H30336689   6.807   0.752   7.999  1.7563 -0.6302 -0.7123
  114MOL   H30436690   6.734   0.961   7.887  1.8473 -1.1110  1.5847
  114MOL   H30536691   6.598   0.967   7.690  2.2099  0.6956 -1.5692
  114MOL   C30636692   6.373   0.833   7.574  0.2497 -0.4755 -0.2190
  114MOL   C30736693   6.305   0.821   7.711 -0.1459  0.5974 -0.5433
  114MOL   C30836694   6.199   0.926   7.724 -0.0123 -0.2947  0.1379
  114MOL   C30936695   6.088   0.928   7.636  0.0887  0.5830  0.4115
  114MOL   C31036696   5.993   1.028   7.657  0.0443  0.1021 -0.4641
  114MOL   C31136697   6.009   1.122   7.758  0.8213  0.7606  0.8944
  114MOL   C31236698   6.117   1.114   7.841 -0.4869  0.8715  0.4434
  114MOL   C31336699   6.221   1.022   7.825 -0.2082  0.0461 -0.0422
  114MOL   H31436700   6.302   0.813   7.494  1.4678 -0.3214 -1.3564
  114MOL   H31536701   6.401   0.937   7.556 -1.3305  0.1111  0.5589
  114MOL   H31636702   6.375   0.836   7.794  2.1560 -0.3776 -2.2631
  114MOL   H31736703   6.084   0.851   7.560  3.2509 -0.8364  1.5806
  114MOL   H31836704   5.905   1.015   7.594 -1.5293  0.9930  1.4906
  114MOL   H31936705   5.934   1.195   7.785 -1.1463 -1.1463  0.7561
  114MOL   H32036706   6.123   1.187   7.920 -2.0824  1.3606  0.1220
  114MOL   H32136707   6.306   1.013   7.891  0.3341 -0.3186 -0.7797
  114MOL   H32236708   6.271   0.720   7.734  2.1103 -0.1947 -0.5340
  115MOL     C136709   8.027   3.853   2.998 -0.7655  0.1190 -0.3553
  115MOL     C236710   7.934   3.904   3.107  0.9698  0.1143 -0.1846
  115MOL     C336711   7.962   4.046   3.147  0.9341  0.3941 -0.9126
  115MOL     C436712   8.012   4.073   3.276 -0.0056  0.2394  0.5735
  115MOL     C536713   8.028   4.209   3.315  0.9737  0.2958 -0.6016
  115MOL     C636714   7.997   4.311   3.227  0.9122  0.0025  0.3366
  115MOL     C736715   7.956   4.286   3.097  0.4625 -0.2217 -0.5524
  115MOL     C836716   7.942   4.153   3.058  0.5420  0.1247  0.7554
  115MOL     H936717   0.018   3.850   3.025 -1.1292  0.2085  1.1181
  115MOL    H1036718   7.998   3.758   2.953  1.1966 -0.5115 -0.3260
  115MOL    H1136719   7.936   3.832   3.189  0.5942 -0.0348 -0.3046
  115MOL    H1236720   8.031   3.987   3.339 -1.0734 -0.1168  0.4243
  115MOL    H1336721   8.075   4.237   3.408 -0.9488  0.5165  0.3091
  115MOL    H1436722   8.014   4.409   3.269  0.1018  1.0826 -1.7771
  115MOL    H1536723   7.933   4.366   3.030 -0.2799 -0.6385 -0.8011
  115MOL    H1636724   7.912   4.127   2.957 -1.2555 -1.0722  1.5738
  115MOL    H1736725   8.025   3.929   2.920  0.4466  0.4151 -0.1034
  115MOL    C1836726   7.789   3.904   3.058 -0.1335 -0.2471 -0.3612
  115MOL    C1936727   7.713   3.775   3.019  0.0407  0.0819  0.4180
  115MOL    C2036728   7.730   3.666   3.124 -0.4320 -0.1480  0.0923
  115MOL    C2136729   7.682   3.684   3.257  0.6306 -0.2368  0.6067
  115MOL    C2236730   7.704   3.588   3.357 -0.5073 -0.8597  0.0138
  115MOL    C2336731   7.762   3.464   3.318 -0.6091 -0.9098 -0.0869
  115MOL    C2436732   7.808   3.442   3.189  0.3352 -0.0337  0.2232
  115MOL    C2536733   7.796   3.542   3.090  0.5526 -0.2385 -0.2369
  115MOL    H2636734   7.782   3.972   2.972 -2.9362  2.0015  1.5775
  115MOL    H2736735   7.726   3.947   3.135 -0.7143 -1.2001 -0.2986
  115MOL    H2836736   7.760   3.721   2.937 -0.0181  0.3032  0.2378
  115MOL    H2936737   7.637   3.777   3.290 -0.6058 -0.1233 -1.3097
  115MOL    H3036738   7.677   3.618   3.457 -1.6993  2.2419 -1.1667
  115MOL    H3136739   7.776   3.386   3.392  2.2199  0.4584  0.9017
  115MOL    H3236740   7.858   3.348   3.171 -1.0589 -0.3058 -2.6021
  115MOL    H3336741   7.829   3.537   2.987  2.2694 -0.0490  0.2992
  115MOL    C3436742   7.568   3.799   2.994  0.7306 -0.0072  0.0284
  115MOL    C3536743   7.530   3.893   2.872  0.2453 -0.4852  0.1066
  115MOL    C3636744   7.609   3.844   2.749  0.5059 -0.5019  0.0505
  115MOL    C3736745   7.702   3.937   2.692  0.0549  0.6036 -1.0208
  115MOL    C3836746   7.768   3.903   2.575 -0.0264  0.1476 -0.7985
  115MOL    C3936747   7.762   3.770   2.529  0.2492 -0.6407 -0.3939
  115MOL    C4036748   7.672   3.680   2.583  0.8049 -0.2606  0.4571
  115MOL    C4136749   7.590   3.715   2.698 -1.0540 -0.4109  0.2003
  115MOL    H4236750   7.522   3.845   3.083 -0.6016  0.4545 -0.8722
  115MOL    H4336751   7.521   3.701   2.987  0.5790 -0.1461  2.5388
  115MOL    H4436752   7.568   3.992   2.895 -0.1872  0.1576 -1.8756
  115MOL    H4536753   7.696   4.037   2.731 -1.5438  0.7978 -1.6884
  115MOL    H4636754   7.818   3.974   2.511  5.4658  1.8563  4.8597
  115MOL    H4736755   7.804   3.741   2.434  2.1080 -0.6608  0.3957
  115MOL    H4836756   7.670   3.583   2.535 -3.8692 -0.0314 -0.0103
  115MOL    H4936757   7.515   3.646   2.735 -1.3494 -0.8571 -1.2025
  115MOL    C5036758   7.373   3.903   2.852  0.0313 -0.0329 -0.1466
  115MOL    C5136759   7.327   4.029   2.776  0.1824  0.4192 -0.0033
  115MOL    C5236760   7.184   3.998   2.725  0.4817 -0.4141 -0.7950
  115MOL    C5336761   7.088   3.928   2.802  0.4458 -0.4620 -0.4309
  115MOL    C5436762   6.954   3.904   2.755 -0.2666  1.1163 -0.2552
  115MOL    C5536763   6.926   3.937   2.620 -0.3635 -0.0549 -0.2686
  115MOL    C5636764   7.023   4.001   2.536 -0.2326  0.0546 -0.3591
  115MOL    C5736765   7.151   4.030   2.595 -0.0914 -0.3874  0.6356
  115MOL    H5836766   7.332   3.914   2.953 -2.2909 -0.3014 -1.0240
  115MOL    H5936767   7.335   3.811   2.810  2.0171 -1.6693  1.5294
  115MOL    H6036768   7.400   4.046   2.697  0.5530  0.0891  0.2673
  115MOL    H6136769   7.107   3.908   2.906 -2.4306  0.2282  0.2690
  115MOL    H6236770   6.873   3.864   2.815 -1.5955  2.1800 -1.3124
  115MOL    H6336771   6.828   3.910   2.583 -1.0942  0.5756  1.1754
  115MOL    H6436772   7.008   4.026   2.432  1.9197 -1.3034 -1.0314
  115MOL    H6536773   7.223   4.087   2.538 -0.2877 -0.1956  0.5796
  115MOL    C6636774   7.317   4.158   2.863  0.0076  0.4566  0.5162
  115MOL    C6736775   7.444   4.241   2.887  0.6931 -0.6187  0.9696
  115MOL    C6836776   7.530   4.269   2.764  0.1534  0.1299 -0.1456
  115MOL    C6936777   7.670   4.270   2.775 -0.0608 -0.2770  0.4181
  115MOL    C7036778   7.748   4.304   2.665  0.5846 -0.0026  0.0325
  115MOL    C7136779   7.688   4.347   2.543  0.2431  0.4612 -0.1569
  115MOL    C7236780   7.548   4.352   2.535  0.2329  0.9035  0.7945
  115MOL    C7336781   7.468   4.308   2.645 -0.3723 -0.2772 -0.1341
  115MOL    H7436782   7.261   4.138   2.955  0.2743 -0.0239  0.5725
  115MOL    H7536783   7.256   4.224   2.800  2.1504  1.5670 -0.4504
  115MOL    H7636784   7.499   4.173   2.950 -1.6554 -2.2437  1.3253
  115MOL    H7736785   7.726   4.239   2.862  0.0178  0.2055  0.5420
  115MOL    H7836786   7.854   4.289   2.673  0.4932 -0.5829  0.1497
  115MOL    H7936787   7.749   4.384   2.462  0.7964  0.7448  0.3905
  115MOL    H8036788   7.485   4.388   2.454  0.0925  0.9976  0.9456
  115MOL    H8136789   7.361   4.308   2.630 -0.4291  0.4797  0.2683
  115MOL    C8236790   7.425   4.375   2.971 -0.1911 -0.3972 -0.2173
  115MOL    C8336791   7.364   4.365   3.111 -0.0690  0.6541  0.6477
  115MOL    C8436792   7.438   4.264   3.195  0.1567  0.1315 -0.0367
  115MOL    C8536793   7.568   4.283   3.241 -0.6373 -0.4635  0.0991
  115MOL    C8636794   7.636   4.184   3.319 -0.7120 -0.1471  0.1016
  115MOL    C8736795   7.573   4.061   3.345 -0.0267 -0.4919 -0.2293
  115MOL    C8836796   7.440   4.035   3.298  0.1138  1.0290  0.1298
  115MOL    C8936797   7.373   4.141   3.235  0.0756 -0.5009  0.5312
  115MOL    H9036798   7.369   4.444   2.909  1.2021  0.7932 -0.1600
  115MOL    H9136799   7.526   4.411   2.987 -0.7957  1.1108  0.2772
  115MOL    H9236800   7.260   4.334   3.099  0.1138 -0.7341  2.4460
  115MOL    H9336801   7.619   4.375   3.217 -1.4155 -0.6072 -2.2928
  115MOL    H9436802   7.738   4.207   3.344  0.1539  0.4221 -3.6998
  115MOL    H9536803   7.628   3.986   3.400 -1.0017 -2.0203 -1.2979
  115MOL    H9636804   7.388   3.941   3.314 -0.1309  0.8815 -1.5304
  115MOL    H9736805   7.270   4.125   3.207  0.1965  1.9724 -1.4975
  115MOL    C9836806   7.359   4.499   3.195 -0.3450  0.1991 -0.4151
  115MOL    C9936807   7.255   4.606   3.152  0.4237 -0.1848  0.5541
  115MOL   C10036808   7.112   4.571   3.202 -0.6364 -0.2593 -1.3138
  115MOL   C10136809   7.008   4.541   3.106  0.0955  0.2162 -0.8818
  115MOL   C10236810   6.882   4.487   3.152 -1.5359 -0.7721  1.2063
  115MOL   C10336811   6.870   4.471   3.292  0.1450  0.2522 -0.3509
  115MOL   C10436812   6.965   4.521   3.383  0.3357 -0.6935 -0.4496
  115MOL   C10536813   7.090   4.560   3.337 -0.0249  0.1590  0.4377
  115MOL   H10636814   7.459   4.542   3.198 -0.3657  0.1899  0.8988
  115MOL   H10736815   7.338   4.469   3.298 -1.5922  0.9962 -0.4147
  115MOL   H10836816   7.256   4.598   3.043  2.0863  2.6934  0.3018
  115MOL   H10936817   7.023   4.556   3.000 -3.0571 -1.5161 -1.6186
  115MOL   H11036818   6.807   4.458   3.080  0.2952 -2.5942 -0.0355
  115MOL   H11136819   6.783   4.417   3.325  1.2168 -2.5264 -1.9351
  115MOL   H11236820   6.940   4.509   3.487  0.9001  1.3236 -0.0511
  115MOL   H11336821   7.169   4.583   3.407  0.9795  2.5973 -1.4115
  115MOL   C11436822   7.291   4.756   3.183 -0.7566 -0.0289  0.7360
  115MOL   C11536823   7.425   4.801   3.114 -0.3851  0.0579  0.0929
  115MOL   C11636824   7.416   4.826   2.967  0.3741 -0.3414 -0.2990
  115MOL   C11736825   7.478   4.735   2.882 -0.0783  0.9924  0.5181
  115MOL   C11836826   7.447   4.741   2.741  0.0810 -0.4417  0.6772
  115MOL   C11936827   7.362   4.836   2.690  0.5268  0.3508  0.1893
  115MOL   C12036828   7.306   4.933   2.778  0.5812  0.0327  0.1896
  115MOL   C12136829   7.337   4.927   2.917  0.4585  0.1337 -0.0777
  115MOL   H12236830   7.307   4.760   3.291 -0.9342  1.9663  0.7088
  115MOL   H12336831   7.213   4.831   3.170 -0.2969  0.3196 -0.0201
  115MOL   H12436832   7.508   4.735   3.136  0.1950  0.9310  0.5542
  115MOL   H12536833   7.546   4.659   2.919  0.8173 -0.5657 -4.0687
  115MOL   H12636834   7.489   4.664   2.679  1.1887  0.7850 -0.1190
  115MOL   H12736835   7.349   4.824   2.584  1.9064 -1.7303  0.2341
  115MOL   H12836836   7.252   5.012   2.728 -0.2863 -1.7638 -1.8028
  115MOL   H12936837   7.278   5.001   2.970  0.0553  1.0312 -1.7125
  115MOL   C13036838   7.467   4.927   3.192  0.2161 -0.5610 -0.0598
  115MOL   C13136839   7.598   5.002   3.150 -0.1309  0.0376 -0.0986
  115MOL   C13236840   7.586   5.154   3.176  0.0688  0.2220  0.1363
  115MOL   C13336841   7.536   5.206   3.298  0.2913 -0.2058 -0.0999
  115MOL   C13436842   7.548   5.343   3.328  0.2080  1.0530 -0.0233
  115MOL   C13536843   7.599   5.425   3.226 -0.1024 -0.0775 -0.7486
  115MOL   C13636844   7.639   5.374   3.102  0.5487  0.8460  0.0184
  115MOL   C13736845   7.642   5.239   3.084 -1.1258  0.1588 -0.0847
  115MOL   H13836846   7.459   4.912   3.300 -1.0250  1.2267  0.1329
  115MOL   H13936847   7.385   4.998   3.179  2.5408  2.3018  0.3279
  115MOL   H14036848   7.616   4.996   3.042 -0.7242  0.6343 -0.2319
  115MOL   H14136849   7.503   5.148   3.383 -0.3794  0.4215  0.0703
  115MOL   H14236850   7.520   5.394   3.419 -0.1940 -1.2124  1.1802
  115MOL   H14336851   7.606   5.532   3.235  3.9355 -0.4397  1.5111
  115MOL   H14436852   7.678   5.441   3.026  0.8566 -0.3756 -0.9042
  115MOL   H14536853   7.682   5.210   2.988  0.1628  1.4570  0.0393
  115MOL   C14636854   7.730   4.953   3.219 -0.0965  0.1950 -0.7498
  115MOL   C14736855   7.854   4.965   3.132  0.4008  0.9453 -0.0959
  115MOL   C14836856   7.977   4.980   3.215  0.3513  0.2929 -0.3687
  115MOL   C14936857   8.019   5.109   3.263  0.5664 -0.3923 -0.1987
  115MOL   C15036858   0.029   5.127   3.325 -0.6868  0.3789  0.1115
  115MOL   C15136859   0.090   5.006   3.369  0.3569 -0.0974  0.5154
  115MOL   C15236860   0.047   4.875   3.324 -0.7499  0.7751  0.0627
  115MOL   C15336861   8.059   4.868   3.238 -0.0352  0.3629  1.0750
  115MOL   H15436862   7.729   4.847   3.245  3.1332 -0.1087 -1.6962
  115MOL   H15536863   7.752   5.005   3.312  2.0805  1.6322 -2.0398
  115MOL   H15636864   7.855   5.058   3.075 -0.9389 -0.0906 -1.8745
  115MOL   H15736865   7.960   5.191   3.223  0.0519 -0.7093 -0.1046
  115MOL   H15836866   0.070   5.221   3.356 -2.7639  1.0419  0.9762
  115MOL   H15936867   0.178   5.010   3.431  0.4771  0.2009  0.3236
  115MOL   H16036868   0.098   4.787   3.358 -1.8472 -0.2385 -0.8940
  115MOL   H16136869   8.046   4.770   3.195  1.9795  0.2821  0.5919
  115MOL   C16236870   7.865   4.855   3.020  0.3529 -0.0644 -0.4729
  115MOL   C16336871   7.981   4.882   2.917 -0.7384 -0.1570  0.1712
  115MOL   C16436872   8.065   4.753   2.882 -0.0834  0.2749  0.2707
  115MOL   C16536873   0.088   4.753   2.924  0.4703 -0.0650 -0.2880
  115MOL   C16636874   0.170   4.651   2.884 -0.0582 -0.3098  0.8621
  115MOL   C16736875   0.119   4.539   2.816  0.4050  0.4706  0.5917
  115MOL   C16836876   8.090   4.534   2.782 -0.0082 -0.3070  0.0312
  115MOL   C16936877   8.005   4.643   2.816 -0.8378  0.8092 -0.0367
  115MOL   H17036878   7.770   4.850   2.966  0.6595  0.6952 -1.0911
  115MOL   H17136879   7.873   4.762   3.076 -0.3965 -0.1010 -0.4148
  115MOL   H17236880   8.048   4.954   2.964  0.9407 -0.3568 -1.8094
  115MOL   H17336881   0.121   4.838   2.982  0.1775  0.9885 -1.6154
  115MOL   H17436882   0.272   4.651   2.921 -0.1748 -1.1876  1.1867
  115MOL   H17536883   0.182   4.462   2.774  0.8509  1.6115 -0.8660
  115MOL   H17636884   8.050   4.459   2.716 -1.8798  0.8719 -0.1991
  115MOL   H17736885   7.901   4.642   2.787 -0.1247  1.2934 -2.7114
  115MOL   C17836886   7.937   4.949   2.785  0.7468 -0.7968 -0.5019
  115MOL   C17936887   7.910   5.104   2.780  0.8678  0.5708  0.0671
  115MOL   C18036888   8.023   5.190   2.846  0.3745  0.4653  0.0932
  115MOL   C18136889   7.991   5.308   2.915  0.1828  0.2322  0.1128
  115MOL   C18236890   8.100   5.381   2.968  0.6095  0.3340 -0.2255
  115MOL   C18336891   0.116   5.343   2.950  0.1236  0.5347  0.7575
  115MOL   C18436892   0.141   5.228   2.875  0.4518  0.0099 -0.2421
  115MOL   C18536893   0.040   5.153   2.824 -0.5743  0.4711 -0.1765
  115MOL   H18636894   7.843   4.900   2.764 -0.5271  1.2712  0.2394
  115MOL   H18736895   8.013   4.928   2.709  1.1142 -1.7105  0.1015
  115MOL   H18836896   7.826   5.119   2.847 -0.1306  0.4177 -1.1293
  115MOL   H18936897   7.889   5.334   2.938  0.1733  1.5118 -1.2945
  115MOL   H19036898   8.078   5.470   3.025  2.3268 -0.4340  1.6892
  115MOL   H19136899   0.201   5.389   2.998  1.2127 -1.2505  0.6148
  115MOL   H19236900   0.235   5.178   2.854 -0.0432 -1.2171  0.4038
  115MOL   H19336901   0.074   5.062   2.776  1.5878  0.9655  0.3487
  115MOL   C19436902   7.886   5.161   2.636 -0.2801  0.0330  0.0353
  115MOL   C19536903   7.766   5.098   2.562  0.2875 -0.3078 -0.0584
  115MOL   C19636904   7.781   4.964   2.492 -0.2220 -0.3828  0.3125
  115MOL   C19736905   7.699   4.856   2.527  0.6095 -0.4139 -0.3301
  115MOL   C19836906   7.722   4.731   2.460  0.3794  0.3664  0.1381
  115MOL   C19936907   7.824   4.721   2.364  0.2357 -0.0037  0.0439
  115MOL   C20036908   7.901   4.827   2.325  0.0506  0.1835  0.0603
  115MOL   C20136909   7.882   4.953   2.386 -0.1627  0.3181 -0.2227
  115MOL   H20236910   7.978   5.135   2.584 -1.3703 -3.0456 -0.4573
  115MOL   H20336911   7.881   5.269   2.649 -1.2539 -0.0856  0.7072
  115MOL   H20436912   7.737   5.160   2.477  0.8135  0.9536  0.6628
  115MOL   H20536913   7.622   4.858   2.603  2.3631  2.8845  1.4587
  115MOL   H20636914   7.666   4.642   2.484  3.8189 -1.7920  0.5292
  115MOL   H20736915   7.838   4.628   2.311 -3.3435 -0.7698  0.2806
  115MOL   H20836916   7.978   4.813   2.251 -0.6472 -0.0694 -0.6282
  115MOL   H20936917   7.944   5.040   2.368 -0.2523  0.7530  1.4542
  115MOL   C21036918   7.628   5.122   2.629 -0.0912  0.0160 -0.3252
  115MOL   C21136919   7.576   5.273   2.639 -0.0654  0.1716 -0.2353
  115MOL   C21236920   7.570   5.357   2.504 -0.2905 -0.4461 -0.5370
  115MOL   C21336921   7.645   5.477   2.493  0.4185  0.2530  0.2260
  115MOL   C21436922   7.648   5.545   2.365 -0.8099  0.1271 -0.2601
  115MOL   C21536923   7.569   5.500   2.260  0.0570  0.2603 -0.2752
  115MOL   C21636924   7.487   5.386   2.268 -0.2545 -0.1762  0.5629
  115MOL   C21736925   7.496   5.310   2.392 -0.1596  0.0620  0.6345
  115MOL   H21836926   7.621   5.080   2.730  0.7214 -0.7114 -0.5672
  115MOL   H21936927   7.551   5.071   2.572  1.2418 -3.9055  1.1966
  115MOL   H22036928   7.654   5.315   2.703 -0.4012  0.5947 -0.0978
  115MOL   H22136929   7.703   5.504   2.580 -0.2354 -0.4393  0.8823
  115MOL   H22236930   7.708   5.635   2.355  0.5874 -0.7320  0.2943
  115MOL   H22336931   7.563   5.560   2.170  1.4299  0.7986 -0.0195
  115MOL   H22436932   7.421   5.351   2.190  0.9241  0.0037 -0.5206
  115MOL   H22536933   7.437   5.219   2.399 -1.1648  0.7006  0.5253
  115MOL   C22636934   7.450   5.279   2.718 -0.3172 -0.6952  0.2379
  115MOL   C22736935   7.382   5.415   2.730 -0.0619  0.0912 -0.3560
  115MOL   C22836936   7.238   5.392   2.791 -0.2931 -0.5458  0.2883
  115MOL   C22936937   7.121   5.403   2.709  0.2979 -0.2514  0.5611
  115MOL   C23036938   7.000   5.373   2.770  0.6854 -0.0953  0.7784
  115MOL   C23136939   6.986   5.343   2.907  0.0882  0.3209  1.0305
  115MOL   C23236940   7.101   5.333   2.988  0.7732  0.2579  0.4034
  115MOL   C23336941   7.223   5.352   2.926  0.0523 -0.0092  0.3889
  115MOL   H23436942   7.469   5.249   2.822 -1.6147  1.9594  1.2830
  115MOL   H23536943   7.376   5.217   2.667  0.6928 -1.4840 -0.2890
  115MOL   H23636944   7.355   5.447   2.629 -0.0752 -0.1439 -0.4260
  115MOL   H23736945   7.125   5.424   2.603 -0.0794 -0.8997  0.4159
  115MOL   H23836946   6.906   5.377   2.717  0.3803 -3.5656  0.9405
  115MOL   H23936947   6.888   5.333   2.951 -0.0426 -0.5063  0.5571
  115MOL   H24036948   7.096   5.316   3.094  1.5403 -1.5994  0.1558
  115MOL   H24136949   7.311   5.328   2.985 -0.5855  1.7712  2.1476
  115MOL   C24236950   7.471   5.502   2.822 -0.2480 -0.2617 -1.2372
  115MOL   C24336951   7.420   5.646   2.857  0.7915  0.0671 -0.2333
  115MOL   C24436952   7.482   5.693   2.987 -0.5524  0.4398 -0.8238
  115MOL   C24536953   7.391   5.723   3.094  0.0797  0.9609  0.2618
  115MOL   C24636954   7.446   5.787   3.208 -0.3553 -0.3755  0.2304
  115MOL   C24736955   7.585   5.800   3.234  0.2331  0.6090  0.0780
  115MOL   C24836956   7.674   5.771   3.122  0.1175  0.4764  0.2338
  115MOL   C24936957   7.622   5.718   3.000  0.5608 -0.7863  0.3864
  115MOL   H25036958   7.566   5.515   2.771  0.1528 -2.1723 -0.9965
  115MOL   H25136959   7.470   5.448   2.916 -2.4047  0.9655 -0.5098
  115MOL   H25236960   7.314   5.634   2.879  1.0441  0.0852  0.9991
  115MOL   H25336961   7.286   5.702   3.083  0.3239  0.3073 -0.8405
  115MOL   H25436962   7.379   5.823   3.286  3.6098  0.5670  3.3603
  115MOL   H25536963   7.617   5.831   3.332  0.3987 -2.6685  1.1115
  115MOL   H25636964   7.780   5.776   3.145  0.4155  0.9932 -1.1718
  115MOL   H25736965   7.693   5.710   2.919 -0.2975 -0.0186 -0.4631
  115MOL   C25836966   7.420   5.759   2.753 -0.2603  0.0030 -0.2557
  115MOL   C25936967   7.279   5.817   2.708 -0.6361 -0.4059 -0.6758
  115MOL   C26036968   7.182   5.855   2.822  0.2501 -0.1245  0.6718
  115MOL   C26136969   7.212   5.956   2.915 -0.1061  0.4532  0.2867
  115MOL   C26236970   7.122   5.997   3.014 -0.2252  0.5673 -0.1629
  115MOL   C26336971   6.994   5.947   3.014  0.3703  0.1058 -0.4148
  115MOL   C26436972   6.957   5.853   2.915 -0.0887  0.0894  0.3521
  115MOL   C26536973   7.051   5.798   2.823 -0.0676  0.1809 -0.1540
  115MOL   H26636974   7.477   5.716   2.670 -2.9252  1.1190 -2.7384
  115MOL   H26736975   7.472   5.848   2.787 -1.9894  0.4908  1.1305
  115MOL   H26836976   7.227   5.733   2.662 -1.7114 -0.8654  1.3517
  115MOL   H26936977   7.309   6.003   2.927  0.1581 -0.1186  0.4202
  115MOL   H27036978   7.151   6.072   3.086 -0.0899 -0.0282  0.4057
  115MOL   H27136979   6.923   5.982   3.088 -0.3167  0.4067 -1.2028
  115MOL   H27236980   6.857   5.812   2.910  0.2386 -0.9441  1.9238
  115MOL   H27336981   7.023   5.728   2.745 -2.6302  2.7615 -1.6728
  115MOL   C27436982   7.291   5.936   2.607  0.7010 -0.4548 -0.5342
  115MOL   C27536983   7.372   5.915   2.480  0.5618 -0.5534  0.5877
  115MOL   C27636984   7.292   5.829   2.389 -0.0529 -0.3143  0.2092
  115MOL   C27736985   7.201   5.875   2.286 -0.6445 -0.6789  0.9355
  115MOL   C27836986   7.129   5.786   2.205  0.6206  0.3772 -0.6232
  115MOL   C27936987   7.148   5.646   2.221 -0.5127  0.0078 -0.6547
  115MOL   C28036988   7.236   5.606   2.324  0.0978  0.1802  0.0010
  115MOL   C28136989   7.301   5.691   2.404  0.2358 -0.1504  0.4191
  115MOL   H28236990   7.332   6.013   2.672 -0.0132 -0.0680 -0.5468
  115MOL   H28336991   7.189   5.969   2.590  0.4224 -0.6670  0.6760
  115MOL   H28436992   7.462   5.861   2.513  0.0981 -1.2492  0.7325
  115MOL   H28536993   7.169   5.978   2.276 -2.1092 -1.0755  1.4895
  115MOL   H28636994   7.056   5.814   2.131  1.1491 -1.3901 -1.8491
  115MOL   H28736995   7.094   5.581   2.153 -0.2424 -0.9134  0.0134
  115MOL   H28836996   7.262   5.501   2.333  1.8541  0.4412 -1.7451
  115MOL   H28936997   7.359   5.643   2.482 -1.3107 -0.3946  1.4281
  115MOL   C29036998   7.437   6.034   2.405 -0.0767  0.9241 -0.6715
  115MOL   C29136999   7.537   6.121   2.470 -0.1786  0.1667 -0.0407
  115MOL   C29237000   7.632   6.051   2.564 -0.3808  0.0881  0.6775
  115MOL   C29337001   7.623   6.060   2.703 -0.1600 -0.0092  0.1088
  115MOL   C29437002   7.716   5.997   2.786 -0.5955 -0.6509 -0.0769
  115MOL   C29537003   7.812   5.912   2.729  0.1899 -0.3622 -0.1419
  115MOL   C29637004   7.813   5.890   2.589  0.3109  0.3414 -0.4510
  115MOL   C29737005   7.723   5.963   2.509 -0.1757 -0.3740 -0.0916
  115MOL   H29837006   7.361   6.093   2.354 -0.8268  0.2598 -0.3267
  115MOL   H29937007   7.489   5.981   2.325  1.2207  0.6105  0.3587
  115MOL   H30037008   7.466   6.174   2.533 -1.1704 -0.4115 -0.6503
  115MOL   H30137009   7.555   6.126   2.754  0.7710 -0.4243  1.9395
  115MOL   H30237010   7.726   6.024   2.890 -2.2306 -1.0751  0.2017
  115MOL   H30337011   7.898   5.869   2.778  0.2606  0.1005  0.1471
  115MOL   H30437012   7.878   5.817   2.544 -1.1398 -0.3931 -1.3999
  115MOL   H30537013   7.738   5.965   2.402 -1.3738  0.2261 -0.2501
  115MOL   C30637014   7.600   6.228   2.382 -0.2641  0.3339 -0.1203
  115MOL   C30737015   7.665   6.337   2.464 -0.3322  0.3652 -0.5063
  115MOL   C30837016   7.676   6.457   2.378 -0.0333  0.1608  0.4600
  115MOL   C30937017   7.625   6.579   2.426 -0.3401 -0.5995  0.3868
  115MOL   C31037018   7.629   6.694   2.344  0.2106 -0.6669 -0.4359
  115MOL   C31137019   7.691   6.686   2.217 -0.2778  0.3205  0.6696
  115MOL   C31237020   7.739   6.556   2.168 -0.0675 -0.0356 -0.4734
  115MOL   C31337021   7.731   6.449   2.253  0.2658  0.2341 -1.1598
  115MOL   H31437022   7.522   6.273   2.322 -2.6635 -2.8280  0.4613
  115MOL   H31537023   7.675   6.185   2.315  0.8337  0.9415  0.6915
  115MOL   H31637024   7.753   6.300   2.516  0.2896 -0.4654 -2.1221
  115MOL   H31737025   7.563   6.581   2.514 -0.6233  1.0280  0.1687
  115MOL   H31837026   7.586   6.788   2.377  0.1146 -0.5288 -0.9516
  115MOL   H31937027   7.699   6.770   2.148 -0.0209  0.9413  1.4474
  115MOL   H32037028   7.793   6.541   2.076 -3.1032 -0.5459 -2.2522
  115MOL   H32137029   7.775   6.355   2.221  0.9548 -0.3050  1.3010
  115MOL   H32237030   7.595   6.372   2.540 -0.9971 -1.4751 -0.2384
  116MOL     C137031   3.832   0.529   2.486  0.0584 -0.0874 -0.1683
  116MOL     C237032   3.978   0.518   2.422  0.4853 -0.1343 -0.0690
  116MOL     C337033   3.985   0.431   2.300  1.1670  0.2343 -0.5137
  116MOL     C437034   3.936   0.478   2.173 -0.9490 -0.4614  0.5166
  116MOL     C537035   3.956   0.410   2.052 -0.2635 -0.6243  0.5680
  116MOL     C637036   4.017   0.280   2.051 -0.4661 -0.6141 -0.3364
  116MOL     C737037   4.057   0.229   2.178 -0.8513 -0.8270 -1.0146
  116MOL     C837038   4.044   0.303   2.301  0.7957 -1.0817 -0.0899
  116MOL     H937039   3.777   0.600   2.425 -0.7232  0.2752  0.9386
  116MOL    H1037040   3.773   0.437   2.493 -0.9933  0.2787 -3.5067
  116MOL    H1137041   4.023   0.447   2.493  1.6325  0.3982 -0.2423
  116MOL    H1237042   3.892   0.576   2.162 -0.3571 -0.2623 -0.1376
  116MOL    H1337043   3.931   0.456   1.958  1.0984 -2.7958 -0.9104
  116MOL    H1437044   4.033   0.225   1.959  2.7263  0.5344 -0.5370
  116MOL    H1537045   4.097   0.129   2.173  2.5772  0.5070 -2.4767
  116MOL    H1637046   4.073   0.259   2.395 -2.3171  0.5904  1.7077
  116MOL    H1737047   3.846   0.573   2.585  1.3589 -0.4887 -0.1677
  116MOL    C1837048   4.053   0.659   2.404  0.3762  0.1894 -0.5391
  116MOL    C1937049   4.200   0.651   2.366 -0.1510 -0.1272  0.1981
  116MOL    C2037050   4.239   0.729   2.240 -0.6054  0.8166  0.8030
  116MOL    C2137051   4.282   0.868   2.241 -0.2092  0.1311  0.2612
  116MOL    C2237052   4.312   0.937   2.118 -0.4608 -0.4633  0.6632
  116MOL    C2337053   4.290   0.874   1.994 -0.7121 -0.0560  0.0435
  116MOL    C2437054   4.245   0.738   1.994 -0.0113 -0.4983  0.4575
  116MOL    C2537055   4.220   0.669   2.112 -0.0535  0.4432 -0.5877
  116MOL    H2637056   4.030   0.726   2.488  0.7220  0.9986 -1.0821
  116MOL    H2737057   4.005   0.715   2.324 -1.3480  0.3060  0.5365
  116MOL    H2837058   4.229   0.549   2.340 -2.1070 -0.5190 -0.5871
  116MOL    H2937059   4.310   0.902   2.339 -1.0711 -1.0604  0.9363
  116MOL    H3037060   4.351   1.037   2.112  0.3797 -0.9293 -2.8141
  116MOL    H3137061   4.309   0.927   1.903 -2.6247  2.6409  1.1475
  116MOL    H3237062   4.246   0.680   1.903  3.5895  0.4431 -0.1898
  116MOL    H3337063   4.192   0.565   2.118  0.7963  0.2341 -0.2186
  116MOL    C3437064   4.293   0.683   2.487 -0.0331 -0.2826  0.0165
  116MOL    C3537065   4.292   0.568   2.592 -0.1730 -0.5324 -0.0201
  116MOL    C3637066   4.362   0.451   2.526  0.2980  0.4849 -0.1198
  116MOL    C3737067   4.491   0.458   2.468 -0.0744  0.2046 -0.6971
  116MOL    C3837068   4.561   0.348   2.424  0.1955  0.8353  0.5835
  116MOL    C3937069   4.501   0.217   2.433  0.3977 -0.3170 -0.8037
  116MOL    C4037070   4.377   0.205   2.496  0.1375 -0.2040 -0.1627
  116MOL    C4137071   4.309   0.319   2.545 -0.0030 -0.0910 -0.1292
  116MOL    H4237072   4.251   0.776   2.526 -1.6245 -0.5897 -0.9165
  116MOL    H4337073   4.394   0.710   2.457 -0.3005  0.4546 -0.2456
  116MOL    H4437074   4.186   0.546   2.603 -0.5252  0.7308 -0.7579
  116MOL    H4537075   4.538   0.551   2.439  1.8564  0.0130  1.6503
  116MOL    H4637076   4.657   0.352   2.374 -1.1369  0.1468 -2.1821
  116MOL    H4737077   4.556   0.134   2.390  2.0424  0.3158  0.0572
  116MOL    H4837078   4.332   0.107   2.500  0.1684 -0.2358 -0.5350
  116MOL    H4937079   4.209   0.317   2.588  0.5466  0.6466  1.2133
  116MOL    C5037080   4.355   0.603   2.731  0.2218  0.3503  0.5713
  116MOL    C5137081   4.274   0.725   2.806  0.2665  0.2798 -0.3150
  116MOL    C5237082   4.130   0.692   2.838  0.0175  0.1489  0.5899
  116MOL    C5337083   4.020   0.770   2.783 -0.1925 -0.2759 -0.4641
  116MOL    C5437084   3.890   0.733   2.819  0.7554  0.1288  0.1427
  116MOL    C5537085   3.865   0.627   2.906  0.6658 -0.3472  0.8306
  116MOL    C5637086   3.972   0.560   2.968 -0.4916  0.1850  0.0649
  116MOL    C5737087   4.105   0.583   2.922  0.3278 -0.5566 -0.4854
  116MOL    H5837088   4.458   0.638   2.729  1.1102 -2.1865  0.1263
  116MOL    H5937089   4.355   0.513   2.793  0.9202  0.0724  0.1808
  116MOL    H6037090   4.271   0.815   2.746 -0.1498  0.7780  0.4419
  116MOL    H6137091   4.042   0.855   2.720 -0.1653  0.0292 -0.0456
  116MOL    H6237092   3.808   0.788   2.774 -0.5410 -0.1869  2.0615
  116MOL    H6337093   3.763   0.607   2.936  0.8958 -0.7598  1.3394
  116MOL    H6437094   3.954   0.482   3.040 -3.0636  1.1718  0.5456
  116MOL    H6537095   4.185   0.531   2.972  0.2634 -0.3820 -0.2007
  116MOL    C6637096   4.340   0.762   2.941 -0.1716  0.5664  0.2877
  116MOL    C6737097   4.479   0.831   2.929 -0.0973 -0.2659 -0.1976
  116MOL    C6837098   4.474   0.941   2.827 -0.4630 -0.5253  0.1831
  116MOL    C6937099   4.385   1.044   2.847 -0.0843  0.1006  0.8480
  116MOL    C7037100   4.365   1.148   2.753 -0.4652 -0.4154  0.4510
  116MOL    C7137101   4.441   1.146   2.635  0.3586  0.6464  0.0549
  116MOL    C7237102   4.531   1.034   2.607  0.7262  0.7805  0.1007
  116MOL    C7337103   4.545   0.930   2.706 -0.2046  0.0512 -0.8274
  116MOL    H7437104   4.352   0.670   2.997 -0.3734 -0.0090 -0.5916
  116MOL    H7537105   4.275   0.830   2.996  0.8432  1.1996  0.7101
  116MOL    H7637106   4.549   0.761   2.882 -1.2326 -1.0319 -0.7665
  116MOL    H7737107   4.313   1.054   2.927 -2.1733 -0.2060 -0.9446
  116MOL    H7837108   4.307   1.235   2.778  1.1180  0.4288  1.2468
  116MOL    H7937109   4.443   1.220   2.557  0.7360  1.0075  0.4074
  116MOL    H8037110   4.589   1.024   2.516 -1.2778  0.0854 -1.1380
  116MOL    H8137111   4.603   0.841   2.686 -0.4963 -0.1736 -0.6788
  116MOL    C8237112   4.540   0.875   3.065 -0.0007  0.1743  0.2308
  116MOL    C8337113   4.653   0.778   3.120  0.5106 -0.6423  0.8246
  116MOL    C8437114   4.600   0.637   3.138 -0.2130 -0.8493 -0.2540
  116MOL    C8537115   4.538   0.604   3.262  0.4500  0.6080  0.2697
  116MOL    C8637116   4.480   0.481   3.284 -0.0116  0.0321  1.2745
  116MOL    C8737117   4.468   0.388   3.173 -0.1572 -0.3975 -0.2704
  116MOL    C8837118   4.530   0.414   3.053 -0.1266 -0.0218 -0.2563
  116MOL    C8937119   4.594   0.543   3.034 -0.1902 -0.1360  0.0443
  116MOL    H9037120   4.468   0.876   3.147  0.9833  0.1916  1.0963
  116MOL    H9137121   4.583   0.975   3.067 -2.0197  1.0647  0.1256
  116MOL    H9237122   4.664   0.813   3.222 -0.3560  1.1324  0.3338
  116MOL    H9337123   4.551   0.679   3.339  2.1341  2.2621 -1.5667
  116MOL    H9437124   4.436   0.454   3.379 -2.5752 -1.2437 -0.2085
  116MOL    H9537125   4.410   0.298   3.184 -2.5742  1.1613  0.0929
  116MOL    H9637126   4.523   0.333   2.981  0.3079 -1.5856  1.4319
  116MOL    H9737127   4.623   0.566   2.933 -0.0977  0.3846  0.1844
  116MOL    C9837128   4.784   0.785   3.045 -0.1882 -0.2760 -0.2096
  116MOL    C9937129   4.888   0.882   3.107 -0.3841  0.2706  0.6287
  116MOL   C10037130   4.940   0.833   3.243  0.4884 -0.5120 -0.0080
  116MOL   C10137131   4.998   0.707   3.249 -0.7091  0.4371 -0.9237
  116MOL   C10237132   5.048   0.666   3.375  0.2185 -0.1048 -0.3395
  116MOL   C10337133   5.052   0.760   3.482  1.3498 -0.3015 -0.1229
  116MOL   C10437134   4.997   0.890   3.472 -0.3394  0.3218  0.3943
  116MOL   C10537135   4.936   0.927   3.352 -0.3200  0.8144  0.0411
  116MOL   H10637136   4.769   0.827   2.946  1.4045  1.5408  0.2694
  116MOL   H10737137   4.825   0.686   3.025 -1.5153 -1.1414  1.2553
  116MOL   H10837138   4.841   0.978   3.132  1.0452  1.4343 -0.9800
  116MOL   H10937139   5.017   0.640   3.166  2.1210  1.3695 -1.0850
  116MOL   H11037140   5.091   0.569   3.398  0.5222 -0.2368 -1.4432
  116MOL   H11137141   5.100   0.744   3.577 -0.7923  0.9476  1.2153
  116MOL   H11237142   5.003   0.961   3.553 -1.4219  0.0011  0.7634
  116MOL   H11337143   4.900   1.027   3.333 -1.0900  0.4157 -0.5963
  116MOL   C11437144   4.993   0.922   3.003  0.9156  0.1789  1.2250
  116MOL   C11537145   4.949   1.014   2.890  0.3087 -0.6688  0.4318
  116MOL   C11637146   4.916   1.152   2.933  0.2759 -0.2092  0.0775
  116MOL   C11737147   4.784   1.198   2.933 -0.5882  0.2376  0.4397
  116MOL   C11837148   4.753   1.328   2.982 -0.3621 -0.9443 -0.4788
  116MOL   C11937149   4.858   1.408   3.035 -0.1592 -0.1177 -0.7422
  116MOL   C12037150   4.991   1.370   3.025 -0.6858  0.0976 -0.1676
  116MOL   C12137151   5.013   1.239   2.979 -0.4784 -0.1434  0.4305
  116MOL   H12237152   5.054   0.841   2.964 -0.4159 -0.4129  0.3559
  116MOL   H12337153   5.065   0.987   3.054  2.3975 -0.4269 -0.0688
  116MOL   H12437154   4.858   0.982   2.839  0.5943  2.1737 -1.9775
  116MOL   H12537155   4.698   1.141   2.902 -0.6382  1.1208 -1.1125
  116MOL   H12637156   4.656   1.376   2.978  0.4720  0.8378  0.0229
  116MOL   H12737157   4.843   1.512   3.063  2.6651  0.6299 -1.8177
  116MOL   H12837158   5.073   1.439   3.039 -1.5335  1.0966 -0.0127
  116MOL   H12937159   5.118   1.220   2.963 -0.5768 -1.0149  0.8183
  116MOL   C13037160   5.054   1.007   2.770  0.9540  0.5539  0.1027
  116MOL   C13137161   5.011   1.061   2.635 -0.0911 -0.6994  0.2249
  116MOL   C13237162   5.022   1.212   2.631 -0.4589  0.3439  0.0739
  116MOL   C13337163   4.908   1.287   2.607 -0.9501  0.1637  0.6338
  116MOL   C13437164   4.909   1.427   2.597  0.2819 -0.4983  0.3236
  116MOL   C13537165   5.029   1.491   2.605 -0.2519  0.2637 -0.2853
  116MOL   C13637166   5.146   1.424   2.640 -0.0138 -0.5077 -0.1186
  116MOL   C13737167   5.139   1.282   2.649  0.0793  0.0335  0.2945
  116MOL   H13837168   5.072   0.901   2.751 -2.1924 -0.0787  0.4597
  116MOL   H13937169   5.154   1.043   2.794  0.5060  2.2565 -0.5106
  116MOL   H14037170   4.906   1.036   2.623 -0.3638 -0.1106  1.3839
  116MOL   H14137171   4.810   1.244   2.602  0.2069 -2.3069 -2.8742
  116MOL   H14237172   4.820   1.481   2.569 -0.1985 -0.5159  1.7837
  116MOL   H14337173   5.044   1.594   2.574  1.8482 -0.4427 -1.7498
  116MOL   H14437174   5.240   1.478   2.641  0.0085 -0.5499  0.1916
  116MOL   H14537175   5.228   1.222   2.664  1.7536  1.4803 -3.0999
  116MOL   C14637176   5.094   0.996   2.525 -0.3696  0.6407  0.2491
  116MOL   C14737177   5.059   1.028   2.382  0.5775 -0.8572  0.4660
  116MOL   C14837178   5.169   1.016   2.275 -0.3341  0.3249 -0.6390
  116MOL   C14937179   5.205   1.122   2.190  0.4752 -0.0122 -0.1101
  116MOL   C15037180   5.300   1.100   2.091 -0.5390  0.3867  0.1115
  116MOL   C15137181   5.358   0.969   2.065 -0.1524 -0.3271  0.0890
  116MOL   C15237182   5.328   0.866   2.152 -0.5264 -0.7570  0.5008
  116MOL   C15337183   5.233   0.889   2.254  0.0570 -0.4280  0.3347
  116MOL   H15437184   5.100   0.888   2.528 -0.9756  0.5741 -0.8482
  116MOL   H15537185   5.197   1.030   2.538 -0.8314  1.8898  0.7592
  116MOL   H15637186   5.037   1.135   2.379  2.0140 -0.5897 -1.3631
  116MOL   H15737187   5.158   1.219   2.195 -0.6966 -0.4864 -1.7388
  116MOL   H15837188   5.317   1.192   2.037 -0.7545 -0.0662 -0.7332
  116MOL   H15937189   5.420   0.954   1.977 -0.4277 -0.6788 -0.0496
  116MOL   H16037190   5.376   0.771   2.134  0.5844  0.0142 -0.6612
  116MOL   H16137191   5.212   0.807   2.321 -1.8812 -2.6524 -2.8429
  116MOL   C16237192   4.930   0.951   2.343 -1.2068  0.4206 -0.6668
  116MOL   C16337193   4.857   1.015   2.229 -0.0635  0.4853  0.6309
  116MOL   C16437194   4.789   0.905   2.156 -0.0564 -0.3927  0.1241
  116MOL   C16537195   4.668   0.852   2.206  0.8433 -0.0997  0.2000
  116MOL   C16637196   4.596   0.761   2.124 -0.5020 -0.1154 -0.1187
  116MOL   C16737197   4.645   0.721   1.996  0.0495 -0.2439  0.5542
  116MOL   C16837198   4.758   0.782   1.941  0.2517 -0.6297  0.1301
  116MOL   C16937199   4.831   0.871   2.026 -0.0595 -0.1250 -0.4981
  116MOL   H17037200   4.874   0.936   2.435 -3.0107 -1.0550 -1.9605
  116MOL   H17137201   4.967   0.853   2.314  0.4365  1.1274 -1.0713
  116MOL   H17237202   4.934   1.044   2.158  2.0823  0.1903  2.7714
  116MOL   H17337203   4.629   0.879   2.303 -0.4882 -0.6664 -0.1661
  116MOL   H17437204   4.504   0.712   2.151 -0.4506  0.8052  1.8383
  116MOL   H17537205   4.588   0.652   1.935  1.0383  1.4643 -2.4623
  116MOL   H17637206   4.797   0.767   1.842  2.8844 -0.5460  1.1001
  116MOL   H17737207   4.924   0.912   1.988  0.0547  1.0710  1.0165
  116MOL   C17837208   4.763   1.139   2.260 -0.1017  0.4263 -0.0015
  116MOL   C17937209   4.738   1.233   2.135  0.1089  0.0287 -0.3386
  116MOL   C18037210   4.863   1.320   2.109 -0.8712  0.1084 -0.5418
  116MOL   C18137211   4.967   1.288   2.016 -0.2947  0.1054 -0.0246
  116MOL   C18237212   5.079   1.377   2.005 -0.1601  0.3141  0.1679
  116MOL   C18337213   5.094   1.479   2.103  0.2202 -0.0910  0.1173
  116MOL   C18437214   4.994   1.505   2.199  0.5698  0.2142 -0.2802
  116MOL   C18537215   4.880   1.429   2.201  0.4713 -0.2190 -0.0884
  116MOL   H18637216   4.809   1.193   2.343  0.4202 -1.5327  1.0214
  116MOL   H18737217   4.670   1.104   2.304  0.2129 -0.4192  0.0038
  116MOL   H18837218   4.665   1.303   2.175  1.9604  0.5817  2.1137
  116MOL   H18937219   4.954   1.197   1.960 -2.0583  0.4610 -0.2375
  116MOL   H19037220   5.158   1.353   1.935  0.2946 -0.2362  0.8676
  116MOL   H19137221   5.177   1.548   2.106  0.2233 -0.0749 -0.2773
  116MOL   H19237222   5.013   1.585   2.269  1.4756 -0.5918  0.3926
  116MOL   H19337223   4.795   1.447   2.265 -0.1900 -3.2238 -0.0375
  116MOL   C19437224   4.662   1.164   2.016 -0.5821  0.2582  0.7167
  116MOL   C19537225   4.624   1.258   1.894  0.4220 -0.0277  0.1467
  116MOL   C19637226   4.668   1.196   1.763  0.6168  0.5080  0.1066
  116MOL   C19737227   4.630   1.061   1.722  0.2634  0.3945  0.6356
  116MOL   C19837228   4.672   1.007   1.598 -0.0848  0.2716 -1.0105
  116MOL   C19937229   4.767   1.077   1.521  0.2292  0.4699  0.1245
  116MOL   C20037230   4.806   1.201   1.566  0.8517 -0.7477 -0.2484
  116MOL   C20137231   4.762   1.267   1.683 -0.5011  0.6870 -0.3426
  116MOL   H20237232   4.596   1.082   2.046  2.7540 -2.9828 -0.4023
  116MOL   H20337233   4.746   1.106   1.978  2.0778  3.1300  2.0420
  116MOL   H20437234   4.677   1.353   1.903  0.4930  0.1575 -1.9830
  116MOL   H20537235   4.556   1.009   1.781 -0.8619  0.9344 -0.2644
  116MOL   H20637236   4.651   0.908   1.559  0.8655 -0.5370  0.4561
  116MOL   H20737237   4.795   1.044   1.422  1.4772  3.5663 -0.6167
  116MOL   H20837238   4.882   1.252   1.508 -0.1984  0.4762 -0.5722
  116MOL   H20937239   4.794   1.366   1.712  1.8278 -0.5146  1.4536
  116MOL   C21037240   4.469   1.286   1.903  0.0464 -0.0595  0.2485
  116MOL   C21137241   4.415   1.370   2.021  0.0651 -0.2975 -0.0312
  116MOL   C21237242   4.492   1.504   2.047  0.2507  0.0165 -0.7034
  116MOL   C21337243   4.515   1.592   1.943  0.5543 -0.0567 -0.0917
  116MOL   C21437244   4.576   1.714   1.977  0.5791 -0.4822  0.5702
  116MOL   C21537245   4.622   1.744   2.105  0.4412  0.0664  0.3901
  116MOL   C21637246   4.603   1.654   2.205  0.2536  0.7919 -0.1146
  116MOL   C21737247   4.534   1.532   2.178  0.7641 -0.1928  0.4037
  116MOL   H21837248   4.417   1.191   1.896  0.9589 -0.4332 -1.6389
  116MOL   H21937249   4.440   1.338   1.811 -1.1272 -0.5023  0.3604
  116MOL   H22037250   4.438   1.313   2.112  0.3680  0.8161  0.6002
  116MOL   H22137251   4.487   1.577   1.840  0.2305 -0.8988  0.1106
  116MOL   H22237252   4.555   1.786   1.899 -0.1740 -0.2536  0.9787
  116MOL   H22337253   4.649   1.848   2.113 -1.1497  0.6724 -1.6637
  116MOL   H22437254   4.619   1.683   2.308  1.0442 -0.9384  0.2668
  116MOL   H22537255   4.520   1.467   2.263 -1.9432 -1.3249 -0.8501
  116MOL   C22637256   4.264   1.402   2.005  0.9298  0.0009 -0.0405
  116MOL   C22737257   4.200   1.464   2.133  0.5988  0.5180 -0.1996
  116MOL   C22837258   4.081   1.547   2.095  0.0719 -0.2015 -0.9074
  116MOL   C22937259   3.960   1.480   2.065  0.1054 -0.5785  0.4704
  116MOL   C23037260   3.847   1.551   2.023 -0.2131  0.2070 -0.1573
  116MOL   C23137261   3.858   1.692   2.014  0.0622  0.0917  0.0451
  116MOL   C23237262   3.976   1.759   2.054 -0.7913 -0.1029  0.4013
  116MOL   C23337263   4.090   1.687   2.084 -0.2784  0.2955 -0.2682
  116MOL   H23437264   4.209   1.318   1.963 -1.9644  2.0779 -0.5623
  116MOL   H23537265   4.247   1.481   1.932 -1.2691  0.4435  0.9204
  116MOL   H23637266   4.266   1.537   2.181 -2.2344  2.3365  1.0446
  116MOL   H23737267   3.962   1.372   2.066  1.6847 -0.5681 -0.1997
  116MOL   H23837268   3.751   1.505   2.003 -1.6227  3.2091 -0.4770
  116MOL   H23937269   3.767   1.745   1.991  1.8111  2.3416 -1.8314
  116MOL   H24037270   3.979   1.866   2.067 -0.5970 -0.2216  1.3379
  116MOL   H24137271   4.178   1.746   2.104 -1.5064  1.6547  1.2203
  116MOL   C24237272   4.166   1.355   2.238 -0.1942  0.2503 -0.3930
  116MOL   C24337273   4.070   1.390   2.353 -0.1160 -0.4072 -0.2866
  116MOL   C24437274   4.000   1.270   2.415 -0.5842  0.0657  0.2270
  116MOL   C24537275   3.855   1.271   2.426  0.1336 -0.2210  0.1683
  116MOL   C24637276   3.797   1.158   2.485 -0.0294  0.4689  0.8329
  116MOL   C24737277   3.873   1.049   2.529 -0.0656  0.2492 -1.0898
  116MOL   C24837278   4.013   1.055   2.518 -0.0744  0.5978  0.1688
  116MOL   C24937279   4.078   1.161   2.455 -0.2284 -0.4469 -0.4958
  116MOL   H25037280   4.253   1.301   2.274 -1.3061 -0.9808  0.5169
  116MOL   H25137281   4.115   1.280   2.177  1.1822 -0.9674 -0.0788
  116MOL   H25237282   3.993   1.454   2.311  2.2394  0.7764 -2.9029
  116MOL   H25337283   3.808   1.359   2.386 -1.1133 -0.1459  1.7524
  116MOL   H25437284   3.689   1.154   2.494  0.1061 -1.6728  1.8843
  116MOL   H25537285   3.822   0.968   2.577 -0.3827  0.7893 -0.5037
  116MOL   H25637286   4.066   0.973   2.565 -2.7656 -0.9733  0.5485
  116MOL   H25737287   4.185   1.158   2.442 -0.0674 -2.3109  1.1174
  116MOL   C25837288   4.146   1.468   2.461  0.1559 -0.0241 -0.3236
  116MOL   C25937289   4.067   1.559   2.551 -0.7589 -0.0489  0.3188
  116MOL   C26037290   4.167   1.623   2.653 -0.7967 -0.6591 -0.2575
  116MOL   C26137291   4.255   1.723   2.616 -0.3362 -0.3996 -0.2061
  116MOL   C26237292   4.346   1.774   2.708 -0.2814 -0.1697  0.1389
  116MOL   C26337293   4.351   1.731   2.843  0.2086 -0.5212 -0.1991
  116MOL   C26437294   4.255   1.636   2.884 -0.6161 -0.5790  0.0143
  116MOL   C26537295   4.178   1.572   2.784  0.0466  0.5849  0.0094
  116MOL   H26637296   4.213   1.536   2.408  0.8463 -0.1704  0.3449
  116MOL   H26737297   4.213   1.400   2.514  0.5064 -0.6260 -1.5171
  116MOL   H26837298   4.006   1.492   2.612 -1.0453  0.4347  0.5624
  116MOL   H26937299   4.268   1.759   2.515  1.5385  2.3776  0.9646
  116MOL   H27037300   4.426   1.838   2.675 -1.8807  3.0714  2.3471
  116MOL   H27137301   4.413   1.776   2.919 -1.3746  1.5118 -0.0393
  116MOL   H27237302   4.253   1.600   2.986 -0.6281 -0.8790 -0.0890
  116MOL   H27337303   4.118   1.488   2.816 -1.6830  0.1182 -4.1042
  116MOL   C27437304   3.982   1.657   2.484  0.3405  0.0975 -0.0975
  116MOL   C27537305   3.876   1.715   2.579 -0.2813 -0.0704 -0.7462
  116MOL   C27637306   3.825   1.848   2.521  0.1266 -0.0777 -0.1986
  116MOL   C27737307   3.856   1.967   2.584 -0.4294 -0.0546 -0.0511
  116MOL   C27837308   3.827   2.093   2.521  0.2942  0.6132  0.2971
  116MOL   C27937309   3.767   2.102   2.395  0.2150 -0.3468  0.2789
  116MOL   C28037310   3.731   1.979   2.333 -0.9816  0.6096  0.1295
  116MOL   C28137311   3.764   1.855   2.394  0.5816  0.2144  0.3496
  116MOL   H28237312   3.941   1.637   2.385  0.0469  2.1466 -0.4194
  116MOL   H28337313   4.048   1.741   2.458  0.8930 -0.1674  0.4472
  116MOL   H28437314   3.923   1.756   2.668 -2.7759  0.3942  0.3925
  116MOL   H28537315   3.907   1.954   2.678  2.4078  1.5038 -1.3193
  116MOL   H28637316   3.851   2.187   2.570 -2.4920  1.2559  0.5443
  116MOL   H28737317   3.752   2.197   2.345  1.2947 -0.9890 -1.3058
  116MOL   H28837318   3.674   1.983   2.242 -2.1386  2.6841  0.9238
  116MOL   H28937319   3.739   1.760   2.351 -0.7733  0.3082  0.9133
  116MOL   C29037320   3.760   1.620   2.609 -0.3544  0.4445 -0.5912
  116MOL   C29137321   3.763   1.572   2.756 -0.3668  0.0574 -0.2152
  116MOL   C29237322   3.756   1.682   2.855  0.2209  0.1290 -0.2270
  116MOL   C29337323   3.856   1.693   2.951 -0.3190 -0.4477 -0.1432
  116MOL   C29437324   3.848   1.783   3.055 -0.4512  0.7080 -0.2548
  116MOL   C29537325   3.738   1.876   3.055 -0.1813  0.7558 -0.4171
  116MOL   C29637326   3.637   1.874   2.952 -0.1537 -1.2381  0.3261
  116MOL   C29737327   3.642   1.769   2.856  0.1803  0.6499  0.1845
  116MOL   H29837328   3.756   1.533   2.543  0.7587 -0.1709  0.1336
  116MOL   H29937329   3.662   1.663   2.586 -1.2753 -0.2770  1.7852
  116MOL   H30037330   3.852   1.512   2.775 -0.4675 -0.6061 -1.7162
  116MOL   H30137331   3.941   1.626   2.948  0.7055  0.9003 -1.5923
  116MOL   H30237332   3.930   1.790   3.125  0.4489  0.8857 -1.2990
  116MOL   H30337333   3.737   1.949   3.135 -0.1011  0.1238  0.1656
  116MOL   H30437334   3.562   1.951   2.957  0.0380 -0.9453 -1.0730
  116MOL   H30537335   3.563   1.763   2.783  0.5368 -1.3605 -0.0611
  116MOL   C30637336   3.646   1.465   2.774 -0.1645 -0.5253 -0.0454
  116MOL   C30737337   3.661   1.332   2.706  0.8304 -0.5555  0.0045
  116MOL   C30837338   3.561   1.229   2.758  0.3279 -0.1290  0.4410
  116MOL   C30937339   3.601   1.109   2.816  1.2701  0.2454  0.4552
  116MOL   C31037340   3.499   1.031   2.871  0.4256 -0.6709 -0.3916
  116MOL   C31137341   3.365   1.070   2.875 -0.4368  0.3358  0.3026
  116MOL   C31237342   3.323   1.182   2.801 -0.0962  0.0816  0.0050
  116MOL   C31337343   3.427   1.261   2.746 -0.4651  0.4378  0.3917
  116MOL   H31437344   3.550   1.511   2.752 -0.6866 -0.6642  1.8545
  116MOL   H31537345   3.649   1.438   2.880  0.5658 -0.3024 -0.0079
  116MOL   H31637346   3.760   1.288   2.721  0.4856 -1.2133  0.3839
  116MOL   H31737347   3.703   1.075   2.816  1.9050  1.9984 -1.7072
  116MOL   H31837348   3.545   0.942   2.912 -1.3480 -1.5975 -0.3629
  116MOL   H31937349   3.293   1.009   2.927 -0.6953 -1.3107 -1.9428
  116MOL   H32037350   3.216   1.196   2.800 -0.0330  0.6142  0.5398
  116MOL   H32137351   3.398   1.352   2.695  1.0648 -0.0258 -1.3423
  116MOL   H32237352   3.638   1.336   2.599  1.4579 -1.3399 -0.1634
  117MOL     C137353   0.319   1.112   5.661  0.2207  0.0627 -0.1907
  117MOL     C237354   0.217   1.033   5.751  0.6514 -0.5984  0.1734
  117MOL     C337355   0.266   1.044   5.896  0.2855  0.1090 -0.3004
  117MOL     C437356   0.267   1.166   5.973  0.2229  0.2220 -0.2593
  117MOL     C537357   0.329   1.164   6.102 -0.6144 -0.6453 -0.4188
  117MOL     C637358   0.377   1.049   6.159  0.0631 -0.8908  0.8900
  117MOL     C737359   0.366   0.926   6.084 -0.5245 -0.8093  0.6279
  117MOL     C837360   0.312   0.927   5.955  0.2155  0.2123  0.1680
  117MOL     H937361   0.334   1.211   5.704  0.3191  0.4878 -1.1791
  117MOL    H1037362   0.416   1.061   5.663 -0.5658 -1.4554 -0.0908
  117MOL    H1137363   0.215   0.928   5.722  2.1249 -0.1261 -1.7193
  117MOL    H1237364   0.239   1.262   5.932  2.1437  0.8551 -0.0942
  117MOL    H1337365   0.336   1.256   6.159  1.5806 -0.1588 -1.4030
  117MOL    H1437366   0.417   1.056   6.259 -0.0753  0.1659  0.8705
  117MOL    H1537367   0.410   0.838   6.130  0.7240 -0.9095 -0.7390
  117MOL    H1637368   0.324   0.833   5.904 -1.9778  1.3223 -2.4697
  117MOL    H1737369   0.293   1.126   5.556 -0.4752 -2.0307 -0.3191
  117MOL    C1837370   0.077   1.090   5.731 -0.0415  0.3058  0.2310
  117MOL    C1937371   0.016   1.083   5.589 -0.4965 -1.1602  0.1029
  117MOL    C2037372   0.038   0.946   5.522  0.9204  0.7694  0.0600
  117MOL    C2137373   8.062   0.836   5.544 -0.1094  0.2718  0.3195
  117MOL    C2237374   8.082   0.710   5.474  0.3254  0.0475 -0.9275
  117MOL    C2337375   0.075   0.696   5.389  0.4789  1.0175 -0.1438
  117MOL    C2437376   0.163   0.800   5.366  0.1788  0.2473  0.1669
  117MOL    C2537377   0.149   0.923   5.434  0.1987 -0.0411  0.0419
  117MOL    H2637378   0.062   1.190   5.771 -1.5101  0.3463 -0.3642
  117MOL    H2737379   0.013   1.029   5.796  3.1433 -1.2866  1.9748
  117MOL    H2837380   0.067   1.159   5.530  0.3634 -1.2639  0.7045
  117MOL    H2937381   7.980   0.834   5.615  0.1432  1.5635  0.6503
  117MOL    H3037382   8.020   0.623   5.484 -1.1259  1.0796 -0.8269
  117MOL    H3137383   0.090   0.601   5.339  1.9629  1.2127 -0.0951
  117MOL    H3237384   0.249   0.795   5.301 -0.7638 -2.0242 -0.9710
  117MOL    H3337385   0.222   1.002   5.426  0.4141 -0.1302  1.0312
  117MOL    C3437386   7.974   1.122   5.593 -0.0553 -0.1697  0.1084
  117MOL    C3537387   7.931   1.267   5.625  0.2656 -0.1702  0.2295
  117MOL    C3637388   8.019   1.380   5.586  0.2279 -0.6634  0.0922
  117MOL    C3737389   8.011   1.419   5.452 -0.1278  0.0403  0.3260
  117MOL    C3837390   8.094   1.527   5.406  0.5061 -1.0160  0.2237
  117MOL    C3937391   0.064   1.597   5.486 -0.1123  0.2320  0.7495
  117MOL    C4037392   0.069   1.566   5.624  0.3805  0.2853  0.5078
  117MOL    C4137393   8.106   1.455   5.667  0.2361  0.9689 -0.0507
  117MOL    H4237394   7.924   1.056   5.663 -0.5608  0.7590  0.6278
  117MOL    H4337395   7.924   1.098   5.499 -2.2869 -0.0182  1.2134
  117MOL    H4437396   7.935   1.268   5.734 -2.0305  0.4945  0.3267
  117MOL    H4537397   7.938   1.375   5.386 -2.1870  0.0527  2.5243
  117MOL    H4637398   8.098   1.555   5.301 -3.1908 -0.4885  0.1757
  117MOL    H4737399   0.129   1.680   5.460 -1.3260  1.0334  0.1915
  117MOL    H4837400   0.129   1.616   5.699  2.2097  0.2247 -0.8851
  117MOL    H4937401   0.004   1.427   5.771  2.1285 -2.0958 -1.0416
  117MOL    C5037402   7.780   1.293   5.589 -0.5148 -0.4303  0.3040
  117MOL    C5137403   7.670   1.223   5.673  0.1223  0.6883 -0.0980
  117MOL    C5237404   7.662   1.248   5.823 -0.7478 -0.5793 -0.4603
  117MOL    C5337405   7.706   1.367   5.880  0.6973 -0.0586  0.5081
  117MOL    C5437406   7.700   1.391   6.020 -0.0430  0.8202 -0.0446
  117MOL    C5537407   7.660   1.284   6.108  0.2007 -0.1689  0.4176
  117MOL    C5637408   7.614   1.163   6.049 -0.3355 -0.5136  0.1220
  117MOL    C5737409   7.612   1.146   5.908 -0.4621 -0.6765 -0.5800
  117MOL    H5837410   7.763   1.273   5.483  1.2327 -1.2005  0.1473
  117MOL    H5937411   7.770   1.401   5.598 -2.0549 -0.4576 -0.8605
  117MOL    H6037412   7.704   1.122   5.652  1.1666  1.3377 -1.6725
  117MOL    H6137413   7.735   1.443   5.808  1.1872 -0.6204  0.1036
  117MOL    H6237414   7.718   1.486   6.069  0.5999  0.1366  1.0414
  117MOL    H6337415   7.677   1.303   6.213 -0.4190 -1.4114  0.7479
  117MOL    H6437416   7.582   1.083   6.113  2.5714 -2.2678 -0.5474
  117MOL    H6537417   7.573   1.055   5.865  0.7687 -0.2641 -2.6585
  117MOL    C6637418   7.527   1.254   5.617  0.0172 -0.1946  0.2957
  117MOL    C6737419   7.495   1.184   5.482 -0.0486  0.4473  0.8042
  117MOL    C6837420   7.537   1.039   5.483 -0.1654  0.6309 -0.1144
  117MOL    C6937421   7.642   1.002   5.398  0.3104  0.1670  0.5883
  117MOL    C7037422   7.699   0.874   5.411  0.3731  0.0382  0.1101
  117MOL    C7137423   7.648   0.789   5.513 -0.8636 -0.2941 -0.1851
  117MOL    C7237424   7.546   0.822   5.600  0.2102 -0.2510  0.1650
  117MOL    C7337425   7.487   0.951   5.581 -1.3622  0.2890  0.3748
  117MOL    H7437426   7.529   1.362   5.608  2.6634 -0.3041 -0.8441
  117MOL    H7537427   7.452   1.221   5.688  0.9298 -1.4763  0.6890
  117MOL    H7637428   7.557   1.236   5.409  0.6207 -1.4579 -0.0051
  117MOL    H7737429   7.688   1.060   5.319 -0.9091  1.6073  0.9034
  117MOL    H7837430   7.774   0.838   5.342 -0.8382  0.1855 -1.3121
  117MOL    H7937431   7.693   0.692   5.531 -2.1733 -0.5877  1.6641
  117MOL    H8037432   7.522   0.754   5.681 -0.6528 -0.8023 -0.5367
  117MOL    H8137433   7.398   0.972   5.640 -0.6431 -0.1251  1.6398
  117MOL    C8237434   7.344   1.193   5.442 -0.4942 -0.0849 -0.2781
  117MOL    C8337435   7.293   1.330   5.390 -0.0816  0.1406 -1.2386
  117MOL    C8437436   7.387   1.392   5.282  0.6777 -0.6458 -0.0509
  117MOL    C8537437   7.383   1.337   5.153  0.6217 -0.1572  0.2598
  117MOL    C8637438   7.465   1.387   5.054  0.0391 -0.3998  0.2402
  117MOL    C8737439   7.545   1.502   5.079 -0.7493  0.1062 -0.7105
  117MOL    C8837440   7.539   1.561   5.206 -0.1694 -0.1859 -0.1356
  117MOL    C8937441   7.470   1.500   5.308  0.3197 -0.2416 -0.6398
  117MOL    H9037442   7.279   1.165   5.525 -0.1771 -0.8621 -0.2846
  117MOL    H9137443   7.320   1.118   5.366  0.4709 -1.0867  0.3834
  117MOL    H9237444   7.316   1.391   5.477 -0.9357 -0.0966 -0.8431
  117MOL    H9337445   7.321   1.250   5.138 -1.6390  1.1824  1.6652
  117MOL    H9437446   7.470   1.333   4.961  1.5853 -3.1906  1.8848
  117MOL    H9537447   7.618   1.540   5.009  0.0685  0.1051  0.1395
  117MOL    H9637448   7.598   1.649   5.225  1.1330 -1.4356  1.8537
  117MOL    H9737449   7.463   1.547   5.405  0.3362 -1.5625  0.0244
  117MOL    C9837450   7.138   1.337   5.358  0.0066  0.4046 -0.5195
  117MOL    C9937451   7.106   1.472   5.294 -0.1066 -0.4835 -0.5770
  117MOL   C10037452   6.971   1.466   5.225 -0.1726 -1.1773  0.7774
  117MOL   C10137453   6.850   1.423   5.281  0.2058  0.3432  0.3186
  117MOL   C10237454   6.726   1.428   5.220 -0.3073  0.2919  0.1787
  117MOL   C10337455   6.724   1.471   5.084 -0.3389 -0.2447  0.4450
  117MOL   C10437456   6.844   1.510   5.020  0.7747 -0.7020  0.3789
  117MOL   C10537457   6.968   1.507   5.091 -0.2352  0.0653 -0.0336
  117MOL   H10637458   7.079   1.321   5.448  2.1515 -1.1041  0.6661
  117MOL   H10737459   7.114   1.263   5.283 -0.6630 -0.7351  0.7968
  117MOL   H10837460   7.178   1.500   5.218 -0.2716  1.2624 -0.1231
  117MOL   H10937461   6.846   1.384   5.382  1.1941 -2.1472 -0.5581
  117MOL   H11037462   6.632   1.390   5.258  0.3704 -0.8125  0.7542
  117MOL   H11137463   6.628   1.471   5.033  0.7098 -0.1246 -1.5636
  117MOL   H11237464   6.843   1.555   4.922 -0.4076  1.2570  1.2810
  117MOL   H11337465   7.054   1.542   5.036  0.7611 -0.4279  1.1738
  117MOL   C11437466   7.084   1.586   5.404 -0.4355 -0.1276 -0.2486
  117MOL   C11537467   7.144   1.730   5.368  1.5497  0.1163  0.5432
  117MOL   C11637468   7.067   1.789   5.257 -0.0584 -0.1958 -0.1063
  117MOL   C11737469   6.927   1.800   5.262 -0.2918 -0.3769  0.0645
  117MOL   C11837470   6.864   1.871   5.160  0.6549  0.4276 -0.4218
  117MOL   C11937471   6.930   1.917   5.045 -0.1612  0.1963  0.2158
  117MOL   C12037472   7.071   1.916   5.047 -0.0138  0.2557  0.0458
  117MOL   C12137473   7.138   1.846   5.149 -0.1220  0.2277  0.0065
  117MOL   H12237474   7.128   1.549   5.496 -1.3088 -2.3464 -0.6852
  117MOL   H12337475   6.979   1.604   5.425 -0.5178 -0.7388 -0.1123
  117MOL   H12437476   7.243   1.710   5.326  0.1294  1.4474 -3.7110
  117MOL   H12537477   6.868   1.756   5.342  0.5858 -0.6686  0.5538
  117MOL   H12637478   6.756   1.876   5.162  0.3823 -2.8605 -2.8770
  117MOL   H12737479   6.875   1.957   4.961  0.2236  0.0071 -0.1313
  117MOL   H12837480   7.126   1.971   4.973  0.5680 -0.3870  0.0082
  117MOL   H12937481   7.245   1.829   5.149 -0.4078 -1.8251 -1.0784
  117MOL   C13037482   7.155   1.826   5.483  0.7260 -0.1364 -0.4373
  117MOL   C13137483   7.288   1.812   5.557 -0.3590  0.4664 -0.7795
  117MOL   C13237484   7.407   1.877   5.487  0.6608  0.5227  0.2637
  117MOL   C13337485   7.533   1.807   5.479 -0.0558 -0.5769  0.1502
  117MOL   C13437486   7.649   1.870   5.429  0.3082  0.2363  0.1493
  117MOL   C13537487   7.639   2.003   5.384  0.8067 -0.3623  0.3090
  117MOL   C13637488   7.516   2.074   5.385 -0.3042 -0.1266  0.5210
  117MOL   C13737489   7.399   2.011   5.435  0.2150  0.0095 -0.6072
  117MOL   H13837490   7.067   1.808   5.545 -0.1705 -0.0999 -1.6759
  117MOL   H13937491   7.144   1.928   5.445 -3.5014 -0.2013  0.3232
  117MOL   H14037492   7.315   1.706   5.562  0.5514  0.7615  0.7569
  117MOL   H14137493   7.540   1.707   5.520  1.4145 -0.5444  0.0031
  117MOL   H14237494   7.743   1.818   5.420  0.1831  0.3523 -2.2666
  117MOL   H14337495   7.727   2.057   5.352 -0.4188  1.3297 -0.3094
  117MOL   H14437496   7.509   2.175   5.347  1.5372  0.7135  2.3156
  117MOL   H14537497   7.314   2.078   5.444 -0.6082 -1.2633  1.6152
  117MOL   C14637498   7.280   1.865   5.693 -0.1489  0.1724 -0.6633
  117MOL   C14737499   7.191   1.791   5.796  0.6978  0.4093 -0.9639
  117MOL   C14837500   7.216   1.635   5.798  0.6157  0.0823  0.6428
  117MOL   C14937501   7.113   1.551   5.749 -0.4486  0.1268 -0.3706
  117MOL   C15037502   7.131   1.413   5.761  0.5222  0.0392 -0.0762
  117MOL   C15137503   7.232   1.353   5.834  0.3980 -0.1985  0.1936
  117MOL   C15237504   7.334   1.440   5.889 -0.0576  0.6957  0.0370
  117MOL   C15337505   7.328   1.582   5.863 -0.0355  0.1762 -0.7500
  117MOL   H15437506   7.259   1.972   5.688  0.8266  0.5089  1.7215
  117MOL   H15537507   7.380   1.876   5.735 -0.1571 -0.8139 -0.3863
  117MOL   H15637508   7.085   1.799   5.773  1.2136  0.8424 -3.3667
  117MOL   H15737509   7.033   1.593   5.690  0.8411  1.3069 -1.3413
  117MOL   H15837510   7.066   1.352   5.699  0.9415  0.3760 -0.8570
  117MOL   H15937511   7.238   1.245   5.840  3.8027 -0.1528 -1.4250
  117MOL   H16037512   7.417   1.412   5.952 -0.1021 -0.5125 -0.4179
  117MOL   H16137513   7.392   1.655   5.910 -1.4681  1.1386 -0.2669
  117MOL   C16237514   7.213   1.852   5.938 -0.3929 -0.0558  0.9151
  117MOL   C16337515   7.154   1.998   5.961  0.6539 -0.3800  0.1727
  117MOL   C16437516   6.999   2.014   5.950 -0.3067 -0.0896 -1.8411
  117MOL   C16537517   6.933   2.094   5.847 -0.3431 -0.2709 -0.3269
  117MOL   C16637518   6.792   2.106   5.850 -0.0972  0.5301  0.3477
  117MOL   C16737519   6.714   2.025   5.938  0.4498  0.7349  0.1846
  117MOL   C16837520   6.775   1.948   6.035  0.5532  0.1614 -0.7226
  117MOL   C16937521   6.918   1.947   6.043  0.1688  0.1365  0.2184
  117MOL   H17037522   7.321   1.861   5.947 -0.4411  0.6096  0.8555
  117MOL   H17137523   7.182   1.783   6.016 -2.6645 -0.7033 -0.5187
  117MOL   H17237524   7.184   2.055   5.873  0.0530 -1.8312 -0.9916
  117MOL   H17337525   6.998   2.139   5.774 -1.0398  1.8432  0.3210
  117MOL   H17437526   6.744   2.161   5.770 -0.4222  0.9785  0.8510
  117MOL   H17537527   6.606   2.031   5.937  0.4719  1.3953  1.2430
  117MOL   H17637528   6.706   1.903   6.106 -0.2391  0.4357 -1.3095
  117MOL   H17737529   6.979   1.885   6.108  2.0318  1.6530 -0.0307
  117MOL   C17837530   7.203   2.075   6.086  0.1041  0.2089  0.0151
  117MOL   C17937531   7.352   2.111   6.080 -0.7311  1.0090 -0.2514
  117MOL   C18037532   7.411   2.158   5.945 -0.8379 -0.2762 -0.1754
  117MOL   C18137533   7.369   2.272   5.885  0.0002 -0.1037 -0.1762
  117MOL   C18237534   7.438   2.322   5.767 -0.3534  0.5557 -0.5846
  117MOL   C18337535   7.537   2.238   5.708 -0.2318  0.1139 -0.0865
  117MOL   C18437536   7.566   2.116   5.756  0.3739  0.9838 -0.0642
  117MOL   C18537537   7.508   2.074   5.881 -0.1342 -0.9264 -0.2578
  117MOL   H18637538   7.173   2.019   6.174 -1.0647  0.5670 -0.1450
  117MOL   H18737539   7.154   2.173   6.085  0.9781  0.6989  2.2876
  117MOL   H18837540   7.398   2.016   6.105 -2.2312  0.5955  1.0322
  117MOL   H18937541   7.291   2.329   5.933 -0.7223  1.1110 -2.6965
  117MOL   H19037542   7.417   2.413   5.712 -1.2929  0.4050 -0.4761
  117MOL   H19137543   7.583   2.272   5.616  1.2563  1.7093  1.2318
  117MOL   H19237544   7.634   2.054   5.699 -0.4457 -1.4022  1.4654
  117MOL   H19337545   7.539   1.981   5.926  1.4709 -0.7392 -0.9519
  117MOL   C19437546   7.387   2.198   6.201  0.3577 -0.1745  0.1521
  117MOL   C19537547   7.539   2.236   6.210  0.6676  0.5053  0.2828
  117MOL   C19637548   7.557   2.377   6.280  0.2719  0.4059 -0.1482
  117MOL   C19737549   7.606   2.492   6.216 -0.1163  0.4290 -0.1656
  117MOL   C19837550   7.626   2.608   6.288  0.0134 -0.3769  0.2374
  117MOL   C19937551   7.594   2.616   6.426 -0.7129  0.0624  0.0103
  117MOL   C20037552   7.536   2.504   6.491 -0.1108  0.4394  0.0121
  117MOL   C20137553   7.523   2.383   6.418  0.4589  0.5769 -0.1490
  117MOL   H20237554   7.338   2.162   6.291 -0.4495  1.9822  0.6213
  117MOL   H20337555   7.325   2.288   6.197 -2.2433 -1.7189  2.9698
  117MOL   H20437556   7.570   2.262   6.109  0.2615  0.8811  0.2524
  117MOL   H20537557   7.636   2.496   6.112 -1.5873 -1.3246 -0.6884
  117MOL   H20637558   7.663   2.697   6.240  0.6907 -2.1248 -2.5766
  117MOL   H20737559   7.610   2.708   6.482 -1.1531 -0.6092  1.2544
  117MOL   H20837560   7.495   2.492   6.590 -0.8272 -2.3256 -0.5791
  117MOL   H20937561   7.475   2.294   6.456 -0.0448  0.2159 -1.6063
  117MOL   C21037562   7.625   2.115   6.257  0.0584 -0.4494 -0.1530
  117MOL   C21137563   7.759   2.091   6.169  0.0056  0.1118  0.5776
  117MOL   C21237564   7.838   2.217   6.127 -0.2617  0.5163 -0.3828
  117MOL   C21337565   7.837   2.261   5.994 -0.1909 -0.4819  0.2428
  117MOL   C21437566   7.902   2.376   5.946  1.0705  0.9435 -0.4167
  117MOL   C21537567   7.978   2.447   6.040  0.3957 -0.0920 -0.1641
  117MOL   C21637568   7.983   2.411   6.177  0.0658 -0.4273 -0.6897
  117MOL   C21737569   7.912   2.295   6.217 -0.4753 -0.4684 -0.6026
  117MOL   H21837570   7.570   2.021   6.259  0.7651 -0.8391  1.7767
  117MOL   H21937571   7.646   2.128   6.363 -1.2545 -2.5058  0.3994
  117MOL   H22037572   7.723   2.052   6.074 -0.8247  0.0180  0.9293
  117MOL   H22137573   7.776   2.202   5.928 -2.1863  1.7474  0.0594
  117MOL   H22237574   7.893   2.399   5.841  0.0663  1.3699 -0.2442
  117MOL   H22337575   8.034   2.527   5.995  0.4992  1.0978  2.0207
  117MOL   H22437576   8.042   2.465   6.249 -0.0226  1.1427 -1.7822
  117MOL   H22537577   7.896   2.268   6.320  0.3825 -0.4952 -0.4722
  117MOL   C22637578   7.856   1.986   6.222 -0.2154  0.3660  0.7958
  117MOL   C22737579   7.812   1.843   6.180  0.1034  0.1137  0.9233
  117MOL   C22837580   7.832   1.802   6.032 -0.2440 -0.3556  0.7485
  117MOL   C22937581   7.722   1.755   5.963  0.0356 -1.8785  0.0893
  117MOL   C23037582   7.728   1.719   5.829 -0.3019 -0.0424 -0.3117
  117MOL   C23137583   7.851   1.729   5.761 -0.6277 -0.4198 -0.8815
  117MOL   C23237584   7.961   1.783   5.829  0.4429 -0.1347 -0.8786
  117MOL   C23337585   7.955   1.822   5.965  0.1444  0.5335 -0.5543
  117MOL   H23437586   7.858   2.009   6.328  1.2208  3.4587  0.1601
  117MOL   H23537587   7.958   2.000   6.187  0.0245  0.4995  1.5390
  117MOL   H23637588   7.703   1.835   6.186 -0.0239 -1.1358 -2.0659
  117MOL   H23737589   7.624   1.760   6.009 -0.9356 -2.2306 -1.8566
  117MOL   H23837590   7.644   1.686   5.769  0.9527 -2.7670 -0.6495
  117MOL   H23937591   7.846   1.705   5.656 -0.6316  0.3013 -1.0468
  117MOL   H24037592   8.052   1.784   5.770  1.1167 -1.0805  0.1130
  117MOL   H24137593   8.031   1.875   6.022 -0.6727  0.3387  0.7363
  117MOL   C24237594   7.873   1.729   6.270 -0.2284 -0.2736 -0.1263
  117MOL   C24337595   7.815   1.730   6.416  0.5552 -0.6050  0.9722
  117MOL   C24437596   7.664   1.716   6.409 -0.5793  0.6852  0.4512
  117MOL   C24537597   7.579   1.827   6.456  0.0586  0.0576 -0.0192
  117MOL   C24637598   7.442   1.817   6.440 -0.1711 -0.4338 -0.3636
  117MOL   C24737599   7.386   1.713   6.375 -0.2301 -0.6626  0.3060
  117MOL   C24837600   7.466   1.606   6.321 -1.1915 -0.1485  0.4256
  117MOL   C24937601   7.601   1.610   6.339 -0.1817  0.4836  0.2701
  117MOL   H25037602   7.981   1.737   6.277 -0.1103 -2.0309  0.2051
  117MOL   H25137603   7.846   1.636   6.220 -3.9363  0.6775 -0.0555
  117MOL   H25237604   7.841   1.822   6.468  1.7167 -0.6688  0.5226
  117MOL   H25337605   7.617   1.912   6.512 -0.2695  0.5770 -0.5775
  117MOL   H25437606   7.380   1.894   6.484  0.5896 -0.6130  1.0281
  117MOL   H25537607   7.278   1.722   6.366 -0.4161 -1.2140  1.8190
  117MOL   H25637608   7.424   1.527   6.260  0.4432  1.1828 -2.5464
  117MOL   H25737609   7.662   1.531   6.298 -0.3785 -0.6506  2.1418
  117MOL   C25837610   7.869   1.614   6.500  0.0631  0.1635  0.1730
  117MOL   C25937611   8.014   1.608   6.542 -0.0048 -0.2929 -0.3976
  117MOL   C26037612   8.056   1.727   6.619  0.7933  0.1784  0.5159
  117MOL   C26137613   0.000   1.845   6.557  0.5480 -0.3607 -0.3090
  117MOL   C26237614   0.021   1.963   6.626 -0.1019 -0.2717  0.1502
  117MOL   C26337615   8.104   1.965   6.766  0.3700 -0.3614 -0.2937
  117MOL   C26437616   8.060   1.847   6.831 -0.2688 -0.3865 -0.2098
  117MOL   C26537617   8.034   1.731   6.755 -0.7666 -0.6309 -0.7447
  117MOL   H26637618   7.828   1.520   6.463  0.3018  0.8218 -1.8286
  117MOL   H26737619   7.809   1.634   6.589 -0.7516  2.0072 -0.7681
  117MOL   H26837620   8.073   1.605   6.450 -0.3524  1.7816 -0.6996
  117MOL   H26937621   0.017   1.843   6.450  0.2471  3.0427 -0.4641
  117MOL   H27037622   0.066   2.040   6.565  1.1466 -1.3075 -0.2778
  117MOL   H27137623   0.025   2.044   6.830  0.5206 -1.8064  1.4198
  117MOL   H27237624   8.036   1.846   6.936 -0.3006 -2.9678 -0.2276
  117MOL   H27337625   8.000   1.644   6.809  0.3463 -0.5598  0.1102
  117MOL   C27437626   8.054   1.469   6.607 -0.0508  0.2294  0.0729
  117MOL   C27537627   0.082   1.461   6.669  0.0515  0.3950  0.8031
  117MOL   C27637628   0.108   1.323   6.732  0.2239  0.0758 -1.1166
  117MOL   C27737629   0.169   1.316   6.857 -0.4782 -0.2085  0.2841
  117MOL   C27837630   0.201   1.187   6.909  0.0766  0.5957  0.4279
  117MOL   C27937631   0.181   1.068   6.839 -0.3208  0.2730  0.4445
  117MOL   C28037632   0.114   1.077   6.721 -0.1684  0.2840  0.1056
  117MOL   C28137633   0.068   1.202   6.672 -0.3993 -0.0483  0.0392
  117MOL   H28237634   8.034   1.389   6.536  0.4738  1.3887 -1.3939
  117MOL   H28337635   7.976   1.453   6.682 -0.2233 -0.9263 -0.3445
  117MOL   H28437636   0.082   1.523   6.759  0.8111  0.1097  0.9983
  117MOL   H28537637   0.205   1.401   6.914 -0.4199  0.2510 -0.4318
  117MOL   H28637638   0.268   1.180   6.994  0.3257 -3.6570 -0.0141
  117MOL   H28737639   0.210   0.974   6.884  1.1423  0.3230 -0.3752
  117MOL   H28837640   0.086   0.986   6.669 -0.7022  0.7995 -0.5024
  117MOL   H28937641   0.019   1.204   6.576 -1.3987 -0.5063  0.5256
  117MOL   C29037642   0.196   1.509   6.584  0.0304 -0.4429  0.3978
  117MOL   C29137643   0.247   1.419   6.471 -0.0697  0.5355  0.5718
  117MOL   C29237644   0.158   1.425   6.352  0.2249 -0.0513  0.0709
  117MOL   C29337645   0.076   1.314   6.319 -0.7713  0.1767  0.2060
  117MOL   C29437646   8.110   1.321   6.202  0.0336  0.2105  0.0187
  117MOL   C29537647   8.106   1.438   6.121 -0.4450  0.9103  0.7928
  117MOL   C29637648   0.075   1.548   6.156 -0.1645 -0.4576 -0.6333
  117MOL   C29737649   0.158   1.542   6.272 -1.0662  0.2531  0.3749
  117MOL   H29837650   0.277   1.522   6.656  0.5974  0.2141 -0.3423
  117MOL   H29937651   0.178   1.605   6.536  0.5353 -0.5174  0.0503
  117MOL   H30037652   0.267   1.318   6.505 -1.3096  0.6385  1.6548
  117MOL   H30137653   0.083   1.218   6.367 -2.7983 -1.3390 -2.3940
  117MOL   H30237654   8.058   1.231   6.173 -2.1041  1.3515  0.1475
  117MOL   H30337655   8.041   1.447   6.035 -2.2919  2.9749  2.3367
  117MOL   H30437656   0.068   1.635   6.092 -1.5213  2.4666  3.2332
  117MOL   H30537657   0.216   1.631   6.286 -1.9815  1.7305 -4.2756
  117MOL   C30637658   0.387   1.474   6.428  0.1317 -0.0573  0.0137
  117MOL   C30737659   0.507   1.402   6.476  0.4711  0.1568  0.5279
  117MOL   C30837660   0.638   1.483   6.464  0.1132 -0.4364  0.9693
  117MOL   C30937661   0.669   1.586   6.554 -0.0303  0.0305 -0.2193
  117MOL   C31037662   0.788   1.664   6.529  0.3626 -0.4072  0.4686
  117MOL   C31137663   0.879   1.626   6.425  0.3067 -0.9151 -0.5273
  117MOL   C31237664   0.843   1.526   6.337 -0.4661  0.7955  0.1759
  117MOL   C31337665   0.722   1.450   6.359  0.7278 -0.5125  0.9407
  117MOL   H31437666   0.397   1.579   6.455  1.2281  0.4979 -2.4222
  117MOL   H31537667   0.406   1.469   6.321 -2.4216 -1.6047 -0.4149
  117MOL   H31637668   0.516   1.303   6.431 -0.9426  0.4440 -0.4174
  117MOL   H31737669   0.605   1.611   6.638  1.0262  1.9861  0.0389
  117MOL   H31837670   0.814   1.745   6.596  2.6874 -1.1681  0.5206
  117MOL   H31937671   0.973   1.677   6.410 -0.9632  1.8483  0.4030
  117MOL   H32037672   0.908   1.485   6.262 -1.3158 -3.7829  1.7666
  117MOL   H32137673   0.702   1.374   6.285 -2.4633  1.0362  0.0815
  117MOL   H32237674   0.489   1.384   6.582 -2.5924  1.7033  0.3461
  118MOL     C137675   3.513   0.276   0.592 -1.1418  0.3695  0.0148
  118MOL     C237676   3.555   0.139   0.537  0.0788  0.2012 -0.4314
  118MOL     C337677   3.489   0.015   0.605  0.2109  0.2984  1.3221
  118MOL     C437678   3.562   8.039   0.679  0.2485 -0.7523  0.2752
  118MOL     C537679   3.497   7.940   0.757  1.6695 -0.2199  0.6356
  118MOL     C637680   3.360   7.923   0.743 -0.0120  0.2715  0.2494
  118MOL     C737681   3.287   7.993   0.647 -0.9562  0.3745  0.2643
  118MOL     C837682   3.352   8.104   0.590 -0.3221  0.5442  0.0583
  118MOL     H937683   3.557   0.364   0.544 -1.2891  1.5837  2.0267
  118MOL    H1037684   3.406   0.292   0.601 -1.3397 -1.5452  1.4618
  118MOL    H1137685   3.664   0.136   0.540  0.1377  2.3552  0.8319
  118MOL    H1237686   3.669   8.056   0.680  0.1128  0.2887 -1.3650
  118MOL    H1337687   3.550   7.873   0.823  0.0064 -1.6389  0.5650
  118MOL    H1437688   3.321   7.839   0.798 -2.1085  0.6152 -0.6406
  118MOL    H1537689   3.185   7.958   0.638 -0.1613 -2.0921  0.2497
  118MOL    H1637690   3.304   0.060   0.525  0.3377  1.1931  0.2833
  118MOL    H1737691   3.552   0.271   0.694  0.5881 -0.5314 -0.6736
  118MOL    C1837692   3.525   0.131   0.385  0.0806 -0.5409  0.0228
  118MOL    C1937693   3.645   0.183   0.299  0.4988  0.0269 -0.0143
  118MOL    C2037694   3.785   0.109   0.306 -0.2393 -0.8027  0.4469
  118MOL    C2137695   3.900   0.165   0.243 -0.3689  1.1380 -0.0861
  118MOL    C2237696   4.019   0.096   0.258  0.3453  0.4367 -0.0827
  118MOL    C2337697   4.028   8.082   0.316 -0.1365 -0.2366 -0.8826
  118MOL    C2437698   3.918   8.034   0.386 -0.2529 -0.1453  0.7433
  118MOL    C2537699   3.799   8.104   0.377  0.9303  0.3018  0.4757
  118MOL    H2637700   3.436   0.192   0.369  0.3628 -0.4029 -1.0783
  118MOL    H2737701   3.505   0.029   0.354  1.3739 -0.2098 -2.0393
  118MOL    H2837702   3.671   0.280   0.340 -1.7265  0.0283  1.4485
  118MOL    H2937703   3.906   0.258   0.189  2.2712  0.4735 -1.0301
  118MOL    H3037704   4.108   0.133   0.207  2.3678 -2.5065  1.1542
  118MOL    H3137705   4.123   8.032   0.301 -1.1112 -1.5178 -2.8707
  118MOL    H3237706   3.931   7.941   0.440 -0.6657 -0.6084  0.0548
  118MOL    H3337707   3.722   8.060   0.438  0.4446 -0.5778 -0.7459
  118MOL    C3437708   3.595   0.206   0.149 -0.5391 -0.0940  0.3311
  118MOL    C3537709   3.533   0.346   0.129 -0.5084  0.1126 -0.1165
  118MOL    C3637710   3.612   0.461   0.190  0.4742 -0.7305 -0.6173
  118MOL    C3737711   3.729   0.504   0.122  0.0706 -0.2005 -0.4592
  118MOL    C3837712   3.793   0.618   0.170  0.0982  0.0672 -0.4790
  118MOL    C3937713   3.752   0.671   0.296  1.0616  0.0606  0.5579
  118MOL    C4037714   3.646   0.622   0.369  0.0593  0.1187  0.2080
  118MOL    C4137715   3.564   0.523   0.307  0.0272 -0.1891  1.0849
  118MOL    H4237716   3.515   0.139   0.120 -1.9934  1.5640  0.4405
  118MOL    H4337717   3.680   0.192   0.082  0.0742 -0.3889  1.1674
  118MOL    H4437718   3.433   0.354   0.172 -0.1707  3.3148  0.1650
  118MOL    H4537719   3.775   0.455   0.037 -3.2013 -0.8936 -1.8774
  118MOL    H4637720   3.886   0.646   0.125  0.3176 -0.1103 -0.1357
  118MOL    H4737721   3.807   0.757   0.330  0.6179  0.5552  0.0122
  118MOL    H4837722   3.605   0.666   0.459 -1.7682  2.2821 -1.6063
  118MOL    H4937723   3.474   0.499   0.362 -0.4378  0.0132  0.4238
  118MOL    C5037724   3.501   0.363   8.098 -0.0812  0.0545 -0.0044
  118MOL    C5137725   3.437   0.502   8.061 -0.2310 -0.2284  0.4633
  118MOL    C5237726   3.508   0.559   7.941  0.2292 -0.4472  0.3975
  118MOL    C5337727   3.515   0.484   7.822  0.6686 -0.1388  0.5104
  118MOL    C5437728   3.596   0.520   7.712 -0.4303 -0.3465  0.2489
  118MOL    C5537729   3.660   0.642   7.714 -0.1037 -0.2464 -0.6849
  118MOL    C5637730   3.632   0.733   7.817 -0.4603 -0.1708 -0.6627
  118MOL    C5737731   3.565   0.690   7.937 -0.3282  0.0944  0.5777
  118MOL    H5837732   3.431   0.286   8.066 -0.6722  1.4567 -2.2320
  118MOL    H5937733   3.593   0.358   8.040 -1.1789 -1.9958 -1.6551
  118MOL    H6037734   3.450   0.577   0.024  1.2743 -0.1723  0.1744
  118MOL    H6137735   3.474   0.384   7.821  0.1813  0.0536  0.8528
  118MOL    H6237736   3.606   0.456   7.625  0.0057  0.3387 -0.2182
  118MOL    H6337737   3.713   0.671   7.625  0.1597 -3.0787 -1.4968
  118MOL    H6437738   3.683   0.829   7.812  1.6529 -1.3158 -2.0769
  118MOL    H6537739   3.568   0.753   8.024 -0.1585  2.4947 -1.1345
  118MOL    C6637740   3.287   0.484   8.034  0.9826 -0.0037  0.5757
  118MOL    C6737741   3.188   0.555   0.025  1.0139  0.6604  0.3686
  118MOL    C6837742   3.048   0.567   8.081  0.7623 -0.3723  0.0555
  118MOL    C6937743   3.005   0.687   8.020 -0.0655 -0.6221 -0.7973
  118MOL    C7037744   2.876   0.697   7.961 -0.1578  0.5788 -0.2158
  118MOL    C7137745   2.800   0.577   7.943 -0.8473  0.6790  0.5175
  118MOL    C7237746   2.842   0.458   8.001  0.2866  0.1514 -0.6003
  118MOL    C7337747   2.968   0.454   8.067  0.1052  0.0590 -0.3061
  118MOL    H7437748   3.250   0.383   8.018 -0.4216  0.8440 -1.8216
  118MOL    H7537749   3.277   0.537   7.939  0.3644 -1.0951  0.0178
  118MOL    H7637750   3.226   0.657   0.036  1.2516  0.4706  1.2876
  118MOL    H7737751   3.068   0.774   8.014  0.5921 -1.0054  0.2847
  118MOL    H7837752   2.842   0.790   7.919  0.7217  1.6103  1.3174
  118MOL    H7937753   2.708   0.577   7.887 -0.6194 -3.0044  0.0842
  118MOL    H8037754   2.790   0.365   7.984 -1.9749  1.1516  0.7683
  118MOL    H8137755   3.002   0.361   8.111  2.1197  0.3802 -1.1413
  118MOL    C8237756   3.192   0.486   0.160 -0.1376  0.0443 -0.0179
  118MOL    C8337757   3.100   0.538   0.271 -0.6013  0.4339 -0.2236
  118MOL    C8437758   3.063   0.423   0.359  0.1604  0.6410  0.8481
  118MOL    C8537759   3.153   0.352   0.438  0.2922 -0.2759 -0.3461
  118MOL    C8637760   3.116   0.260   0.538 -0.4031  0.5429 -0.1712
  118MOL    C8737761   2.975   0.227   0.552 -0.1301 -1.2903 -0.0131
  118MOL    C8837762   2.888   0.297   0.466 -0.0673  1.2402 -0.1468
  118MOL    C8937763   2.926   0.401   0.384  0.0160  0.8251  0.5080
  118MOL    H9037764   3.293   0.494   0.201 -0.3393  0.6982  0.3701
  118MOL    H9137765   3.189   0.380   0.136  0.3528 -0.1229  0.6435
  118MOL    H9237766   3.003   0.577   0.239 -1.0974  0.0935  0.8091
  118MOL    H9337767   3.257   0.378   0.426  0.0498  2.1390  2.2731
  118MOL    H9437768   3.194   0.213   0.596 -1.2285 -0.8800 -0.1765
  118MOL    H9537769   2.934   0.157   0.624  0.8045 -0.8244  0.9898
  118MOL    H9637770   2.782   0.286   0.485  0.2521  0.0637  1.0627
  118MOL    H9737771   2.852   0.466   0.341  1.4352  1.1296 -1.5892
  118MOL    C9837772   3.181   0.648   0.348  0.2057 -0.0184  0.6474
  118MOL    C9937773   3.104   0.706   0.470 -0.1419  0.0594  0.2853
  118MOL   C10037774   3.157   0.675   0.607 -0.1252 -0.5550  0.1620
  118MOL   C10137775   3.077   0.605   0.702  0.0182  0.5048  0.0088
  118MOL   C10237776   3.131   0.566   0.829 -0.4894  0.2274  0.0385
  118MOL   C10337777   3.252   0.612   0.865  0.1227 -0.8288 -0.9095
  118MOL   C10437778   3.333   0.681   0.766 -0.4065  0.4823 -0.3773
  118MOL   C10537779   3.290   0.711   0.638  0.6115  0.0130  0.1897
  118MOL   H10637780   3.201   0.732   0.281 -0.0765 -0.9702 -0.6505
  118MOL   H10737781   3.278   0.614   0.384 -0.0257 -2.0121 -0.5040
  118MOL   H10837782   3.006   0.656   0.474  0.2440 -0.6824  0.5937
  118MOL   H10937783   2.979   0.571   0.674  0.8867 -2.2133  0.1051
  118MOL   H11037784   3.077   0.495   0.891 -1.5084  1.0769  0.1314
  118MOL   H11137785   3.295   0.586   0.960 -2.7975  1.7185  1.2296
  118MOL   H11237786   3.436   0.711   0.779 -0.3142  0.6778 -1.5325
  118MOL   H11337787   3.360   0.755   0.569  2.2951 -1.5074  0.8984
  118MOL   C11437788   3.078   0.861   0.456  0.5309  0.1889 -0.8083
  118MOL   C11537789   2.991   0.910   0.331 -0.4364  0.5187 -0.0903
  118MOL   C11637790   2.851   0.856   0.343 -0.5281  0.0845  0.6370
  118MOL   C11737791   2.795   0.760   0.253 -0.0084  0.6031 -0.5867
  118MOL   C11837792   2.666   0.701   0.274 -0.3821 -0.3603 -0.9939
  118MOL   C11937793   2.596   0.725   0.398  0.2896  0.3596  0.3689
  118MOL   C12037794   2.654   0.817   0.488  0.1904 -0.4295  0.1787
  118MOL   C12137795   2.776   0.881   0.462  0.6483 -0.3892  0.2721
  118MOL   H12237796   3.175   0.908   0.473  0.4148  0.3289 -0.5303
  118MOL   H12337797   3.012   0.880   0.540  1.9228 -0.8560  0.5476
  118MOL   H12437798   3.032   0.871   0.238 -0.4898 -0.9822  0.5118
  118MOL   H12537799   2.844   0.731   0.161  0.1249 -2.2769  0.3449
  118MOL   H12637800   2.649   0.623   0.201 -1.2367 -0.2792 -0.8860
  118MOL   H12737801   2.507   0.667   0.418  0.8441 -1.4235 -2.1024
  118MOL   H12837802   2.592   0.838   0.574  2.2293 -0.7572  1.7726
  118MOL   H12937803   2.799   0.958   0.534  0.0180  1.7545 -1.7375
  118MOL   C13037804   2.983   1.065   0.324 -0.2857  0.4483  0.1055
  118MOL   C13137805   3.126   1.136   0.327 -0.0268 -0.0075 -0.8742
  118MOL   C13237806   3.222   1.082   0.223 -0.1783  0.8019 -0.6385
  118MOL   C13337807   3.352   1.047   0.268 -0.5737  0.3880 -0.0006
  118MOL   C13437808   3.446   0.993   0.173  0.3926 -0.2312  0.2599
  118MOL   C13537809   3.404   0.969   0.042 -0.2782 -0.0335 -0.4135
  118MOL   C13637810   3.269   0.991   0.002  0.0700  0.3808 -0.4671
  118MOL   C13737811   3.180   1.055   0.090 -0.2994 -0.4257 -0.2234
  118MOL   H13837812   2.917   1.084   0.409 -1.1246 -0.6541 -0.2923
  118MOL   H13937813   2.932   1.086   0.230  0.6746 -1.7859 -0.9588
  118MOL   H14037814   3.161   1.112   0.427 -0.3074 -0.5290 -0.8998
  118MOL   H14137815   3.372   1.065   0.373 -0.1258  3.0921 -0.5040
  118MOL   H14237816   3.548   0.975   0.204  0.1532  0.5974  1.5239
  118MOL   H14337817   3.483   0.934   8.092 -0.2408  2.3637 -1.7134
  118MOL   H14437818   3.239   0.967   8.016 -0.1908  0.5053 -0.4199
  118MOL   H14537819   3.077   1.069   0.059 -0.4124  1.9498  1.0302
  118MOL   C14637820   3.119   1.287   0.331 -0.2454  0.8043 -0.1251
  118MOL   C14737821   3.252   1.361   0.336  0.0134 -0.5826  0.5568
  118MOL   C14837822   3.251   1.502   0.285 -0.1185 -0.3229  0.1629
  118MOL   C14937823   3.162   1.603   0.334 -0.1573 -0.4335  0.1097
  118MOL   C15037824   3.178   1.733   0.299 -0.2768  0.2041  0.0376
  118MOL   C15137825   3.288   1.772   0.222  0.3142  0.0139 -1.0158
  118MOL   C15237826   3.372   1.681   0.166  0.8359 -0.2204 -0.2405
  118MOL   C15337827   3.351   1.543   0.192  0.1315  0.0020  0.1093
  118MOL   H15437828   3.059   1.303   0.420 -0.2655 -0.3615  0.0761
  118MOL   H15537829   3.066   1.319   0.241  1.0833 -1.2359 -1.7062
  118MOL   H15637830   3.320   1.313   0.266  0.7658  1.2662 -0.0016
  118MOL   H15737831   3.076   1.576   0.392  0.7696 -2.3313  0.6381
  118MOL   H15837832   3.122   1.810   0.351 -1.7175 -0.0585 -1.0979
  118MOL   H15937833   3.297   1.875   0.192 -1.5121  0.1495 -1.1471
  118MOL   H16037834   3.454   1.704   0.100  1.1326  0.6434  0.4124
  118MOL   H16137835   3.412   1.468   0.144 -1.1358  0.1499 -1.7676
  118MOL   C16237836   3.320   1.351   0.473 -0.1267  0.4192 -0.0982
  118MOL   C16337837   3.462   1.411   0.484 -0.4388 -0.2893  0.1894
  118MOL   C16437838   3.492   1.450   0.627 -0.7805  0.0705 -0.0998
  118MOL   C16537839   3.506   1.349   0.721  0.2533 -0.2884 -1.4333
  118MOL   C16637840   3.513   1.379   0.857  1.3952  0.0618 -1.0124
  118MOL   C16737841   3.504   1.512   0.905 -0.1214  0.0293  0.1360
  118MOL   C16837842   3.500   1.618   0.807 -1.0405 -0.1148  0.1662
  118MOL   C16937843   3.492   1.584   0.671 -0.2286  0.0552 -0.1450
  118MOL   H17037844   3.319   1.249   0.512 -0.4341  0.1202 -0.8948
  118MOL   H17137845   3.258   1.410   0.541 -0.8478 -1.9323  1.3556
  118MOL   H17237846   3.456   1.505   0.429  1.2376  0.0669  0.5917
  118MOL   H17337847   3.509   1.246   0.687 -0.6962 -1.1921  1.1091
  118MOL   H17437848   3.521   1.292   0.920  0.2337 -0.4518 -1.5413
  118MOL   H17537849   3.506   1.537   1.010 -1.7339 -2.5061  0.8289
  118MOL   H17637850   3.497   1.723   0.830 -0.0528  0.5657 -2.5828
  118MOL   H17737851   3.472   1.657   0.594 -1.6730  0.2647  0.4155
  118MOL   C17837852   3.574   1.331   0.413 -0.3277 -0.7686 -0.8289
  118MOL   C17937853   3.715   1.396   0.398 -0.1783 -0.2171  0.5373
  118MOL   C18037854   3.806   1.293   0.335  0.6242  0.5159 -1.1827
  118MOL   C18137855   3.908   1.233   0.416  0.0922  0.1764  0.0884
  118MOL   C18237856   3.982   1.132   0.356  0.8117  0.3828  0.4392
  118MOL   C18337857   3.948   1.079   0.226 -0.6608  0.2622  0.5916
  118MOL   C18437858   3.848   1.133   0.152  0.1033 -0.3221  0.1251
  118MOL   C18537859   3.775   1.240   0.207  0.1683 -0.0338 -0.6026
  118MOL   H18637860   3.546   1.293   0.315 -0.5080  2.1332 -1.9362
  118MOL   H18737861   3.595   1.238   0.468  0.6305  1.1711  2.2391
  118MOL   H18837862   3.751   1.411   0.500  1.1297  3.2294 -0.3579
  118MOL   H18937863   3.932   1.267   0.516 -1.5314  2.7296 -0.3156
  118MOL   H19037864   4.058   1.087   0.418  1.1670  1.3919  0.7468
  118MOL   H19137865   3.999   0.989   0.196 -2.5374 -0.3327 -0.8944
  118MOL   H19237866   3.833   1.088   0.056  3.4185 -1.2941 -0.0053
  118MOL   H19337867   3.698   1.292   0.153  0.6348 -0.4094 -1.6519
  118MOL   C19437868   3.723   1.537   0.329  0.0164 -0.4324  0.4536
  118MOL   C19537869   3.800   1.639   0.413  0.3501  0.4784  0.2077
  118MOL   C19637870   3.933   1.591   0.463 -0.2923  0.3585 -0.0240
  118MOL   C19737871   3.953   1.584   0.603 -0.0002  0.0782  0.1167
  118MOL   C19837872   4.076   1.543   0.660  0.0428  0.1738  0.4440
  118MOL   C19937873   4.179   1.499   0.569 -0.3772  0.3354  0.0616
  118MOL   C20037874   4.165   1.514   0.427  0.1549  0.1190  0.2398
  118MOL   C20137875   4.043   1.564   0.375 -0.8614  0.7984  0.0905
  118MOL   H20237876   3.622   1.575   0.317  0.3813 -0.1955 -2.1561
  118MOL   H20337877   3.763   1.528   0.228  0.3079 -0.4911  0.5707
  118MOL   H20437878   3.726   1.672   0.485  0.3774 -0.0168  0.4628
  118MOL   H20537879   3.875   1.616   0.670  0.5385 -0.3548  0.9648
  118MOL   H20637880   4.083   1.535   0.768 -1.1479  2.1446  0.6911
  118MOL   H20737881   4.270   1.461   0.614 -0.1688 -0.2053 -0.8164
  118MOL   H20837882   4.248   1.486   0.364  0.4216 -2.5569  1.6740
  118MOL   H20937883   4.024   1.573   0.269 -1.0745  1.3994  0.1763
  118MOL   C21037884   3.827   1.769   0.317  0.6275  1.1475 -0.2762
  118MOL   C21137885   3.708   1.864   0.294 -0.3295 -0.0388 -0.7731
  118MOL   C21237886   3.654   1.914   0.436  1.2123  0.1802  0.7471
  118MOL   C21337887   3.520   1.936   0.447  0.3277  0.6167 -0.3975
  118MOL   C21437888   3.457   1.991   0.555  0.1389 -0.1408 -0.1703
  118MOL   C21537889   3.538   2.033   0.665  0.4221 -0.3154 -0.4910
  118MOL   C21637890   3.673   2.011   0.659 -0.4210  0.5280  0.9274
  118MOL   C21737891   3.724   1.953   0.548 -0.2428 -0.3072  0.6740
  118MOL   H21837892   3.873   1.738   0.223  0.2595  0.9793 -0.4002
  118MOL   H21937893   3.904   1.835   0.357  0.6619  0.7424  0.3334
  118MOL   H22037894   3.623   1.809   0.255  0.1098 -0.3235 -1.3311
  118MOL   H22137895   3.460   1.908   0.361 -0.7193 -0.1032  0.5515
  118MOL   H22237896   3.351   2.012   0.547  0.0816 -0.9886 -1.6221
  118MOL   H22337897   3.482   2.060   0.753 -0.4094 -1.7863 -0.5498
  118MOL   H22437898   3.739   2.031   0.741  0.5184  2.1451 -0.2014
  118MOL   H22537899   3.830   1.933   0.542 -0.1152  0.5282  0.0549
  118MOL   C22637900   3.750   1.985   0.204  0.7534 -0.2614 -0.5548
  118MOL   C22737901   3.667   2.111   0.207 -0.1407 -0.2153  0.1785
  118MOL   C22837902   3.744   2.232   0.159 -0.4985 -0.1860 -0.4789
  118MOL   C22937903   3.797   2.324   0.254 -0.0767 -0.1310  0.5212
  118MOL   C23037904   3.854   2.442   0.207 -0.0092  0.4125  0.3590
  118MOL   C23137905   3.851   2.471   0.068  0.3067 -0.7291 -0.1610
  118MOL   C23237906   3.798   2.377   8.091  0.0616 -0.1453  0.1192
  118MOL   C23337907   3.748   2.254   0.021 -0.2438  0.7624  0.0022
  118MOL   H23437908   3.766   1.946   0.103  0.9626  1.8117 -1.3345
  118MOL   H23537909   3.849   2.010   0.240  0.4463 -1.7391  1.4045
  118MOL   H23637910   3.667   2.142   0.312  0.2926  1.6568 -0.3546
  118MOL   H23737911   3.796   2.299   0.359 -0.5861 -0.4199  0.4467
  118MOL   H23837912   3.885   2.507   0.288 -1.0010 -0.5388  1.5107
  118MOL   H23937913   3.887   2.568   0.036 -0.9904 -0.7029 -1.5826
  118MOL   H24037914   3.797   2.395   7.985  2.3281 -0.7583 -0.0217
  118MOL   H24137915   3.702   2.184   8.067 -1.3953  0.3071  1.2046
  118MOL   C24237916   3.522   2.093   0.143  0.5896  1.2679 -0.6492
  118MOL   C24337917   3.426   2.216   0.144  0.4565 -0.1566  0.5388
  118MOL   C24437918   3.338   2.228   0.016 -0.4442 -0.3379 -0.4631
  118MOL   C24537919   3.267   2.115   8.087  0.0551 -1.0757 -0.3414
  118MOL   C24637920   3.197   2.120   7.966 -0.0815  0.0970 -0.2089
  118MOL   C24737921   3.199   2.234   7.888  0.2420  0.9905  0.3308
  118MOL   C24837922   3.262   2.353   7.932  0.4960  0.2947  1.0316
  118MOL   C24937923   3.335   2.350   8.053 -0.1065 -0.1327 -0.5021
  118MOL   H25037924   3.477   2.008   0.193  0.4362  1.5880 -0.2399
  118MOL   H25137925   3.539   2.058   0.041  3.7551 -1.9005  0.8761
  118MOL   H25237926   3.494   2.301   0.151 -0.5205  0.7877 -1.0375
  118MOL   H25337927   3.269   2.036   0.046  3.1309  1.2627  2.2117
  118MOL   H25437928   3.142   2.032   7.936 -2.3800  0.7261  1.9993
  118MOL   H25537929   3.144   2.245   7.796 -2.2723 -0.2429  1.6340
  118MOL   H25637930   3.248   2.443   7.874  1.0397 -0.3510 -0.1173
  118MOL   H25737931   3.387   2.440   8.082  1.9823 -1.2472 -0.6685
  118MOL   C25837932   3.336   2.215   0.272  0.0330  0.5746  0.1037
  118MOL   C25937933   3.289   2.359   0.321  0.4465 -0.3276  0.9619
  118MOL   C26037934   3.151   2.351   0.392  0.4431 -0.0402  0.8698
  118MOL   C26137935   3.049   2.441   0.357  0.3543 -0.2126  0.2809
  118MOL   C26237936   2.918   2.429   0.409 -0.1656  1.0593 -0.2541
  118MOL   C26337937   2.895   2.338   0.511 -0.1243  0.0540  0.0293
  118MOL   C26437938   3.003   2.257   0.559 -0.2691  0.3395 -0.1180
  118MOL   C26537939   3.128   2.262   0.498  0.4384 -0.2879 -0.0852
  118MOL   H26637940   3.384   2.176   0.362 -0.1593  2.1800  0.9300
  118MOL   H26737941   3.252   2.145   0.263  0.2494  0.2557  0.5763
  118MOL   H26837942   3.272   2.428   0.238 -2.8959  0.7075  2.3865
  118MOL   H26937943   3.058   2.519   0.283 -1.5950 -0.2863 -0.0768
  118MOL   H27037944   2.833   2.491   0.385 -2.6216 -1.2122  2.2664
  118MOL   H27137945   2.792   2.334   0.542 -0.3038  2.5722 -0.1262
  118MOL   H27237946   2.983   2.186   0.639  1.2347  0.0501  0.0126
  118MOL   H27337947   3.209   2.198   0.532  0.6922 -0.2972 -0.6884
  118MOL   C27437948   3.402   2.424   0.420  0.9892 -0.5249  0.4953
  118MOL   C27537949   3.416   2.582   0.414  0.1367  0.2035 -0.5958
  118MOL   C27637950   3.296   2.665   0.456  0.3886 -0.3814 -0.1476
  118MOL   C27737951   3.220   2.746   0.371  0.1736 -0.4919  0.6719
  118MOL   C27837952   3.116   2.821   0.413  0.1071  0.4643 -0.2009
  118MOL   C27937953   3.070   2.813   0.550  0.0292 -0.6363  0.2256
  118MOL   C28037954   3.142   2.730   0.636  0.2071  0.7472  0.5692
  118MOL   C28137955   3.257   2.669   0.592 -0.3418  0.3880 -0.2422
  118MOL   H28237956   3.500   2.392   0.385  0.5871 -0.1317 -1.0259
  118MOL   H28337957   3.386   2.377   0.518  0.9009  0.5452  1.0071
  118MOL   H28437958   3.422   2.601   0.307  1.3681  1.1666 -0.3701
  118MOL   H28537959   3.244   2.748   0.265  0.8992  1.7566  0.8546
  118MOL   H28637960   3.071   2.887   0.340 -1.5392  0.3955  0.7202
  118MOL   H28737961   2.993   2.884   0.576  0.3375 -0.2681  0.1482
  118MOL   H28837962   3.119   2.734   0.741 -0.9300  1.7047  0.3014
  118MOL   H28937963   3.312   2.617   0.669 -1.7551 -1.7744 -0.6467
  118MOL   C29037964   3.549   2.634   0.468  1.1863  0.5563  0.0190
  118MOL   C29137965   3.567   2.790   0.452  0.5145 -0.3828  0.2369
  118MOL   C29237966   3.708   2.827   0.504 -0.8121 -0.6081  0.4278
  118MOL   C29337967   3.734   2.959   0.519 -1.3790  0.3863 -0.1890
  118MOL   C29437968   3.855   3.008   0.568  0.3001 -0.0701 -0.2695
  118MOL   C29537969   3.964   2.921   0.594 -0.0251  1.0030 -0.4713
  118MOL   C29637970   3.936   2.784   0.581  0.2107  0.3045 -0.6255
  118MOL   C29737971   3.811   2.738   0.544  0.5099  0.2256  1.2627
  118MOL   H29837972   3.621   2.576   0.410 -0.9120 -0.9197 -1.1552
  118MOL   H29937973   3.564   2.606   0.572 -0.7025  0.3266  0.2493
  118MOL   H30037974   3.480   2.836   0.500  0.5904 -0.6810  0.6650
  118MOL   H30137975   3.663   3.031   0.480  1.7143  2.1213 -2.9099
  118MOL   H30237976   3.868   3.112   0.594  2.1223 -0.8131  1.9916
  118MOL   H30337977   4.062   2.957   0.621  0.8269 -1.3519 -0.3458
  118MOL   H30437978   4.026   2.727   0.599 -0.5885  0.1011  3.2296
  118MOL   H30537979   3.806   2.630   0.538 -2.3019  0.4428 -2.4405
  118MOL   C30637980   3.552   2.838   0.309  0.3040  0.2037  1.0040
  118MOL   C30737981   3.671   2.797   0.214  0.4811 -0.4076  0.5081
  118MOL   C30837982   3.634   2.824   0.073 -0.2643 -0.3720 -0.4990
  118MOL   C30937983   3.642   2.958   0.035 -0.8628 -0.3205  0.4295
  118MOL   C31037984   3.612   2.996   8.016 -0.0056  0.0764 -0.3720
  118MOL   C31137985   3.577   2.899   7.919 -0.2235 -0.8065  0.4881
  118MOL   C31237986   3.586   2.759   7.954 -0.3981  0.1789  0.5248
  118MOL   C31337987   3.607   2.722   8.088  0.0460 -0.7554  0.3344
  118MOL   H31437988   3.534   2.945   0.298  0.0886 -0.0621 -1.4647
  118MOL   H31537989   3.463   2.793   0.266  1.3129 -0.3696 -0.5238
  118MOL   H31637990   3.682   2.689   0.225 -0.1291 -0.3157  2.2231
  118MOL   H31737991   3.664   3.038   0.104  0.1909 -0.1681 -0.0713
  118MOL   H31837992   3.604   3.103   8.002  0.7478  0.1715 -0.0907
  118MOL   H31937993   3.548   2.922   7.818 -0.1120 -3.0693 -0.0864
  118MOL   H32037994   3.579   2.684   7.876  1.9720 -0.0608  0.4922
  118MOL   H32137995   3.607   2.616   8.111 -0.7153 -0.6169  0.9918
  118MOL   H32237996   3.761   2.850   0.245  1.2207 -3.2399  3.5321
  119MOL     C137997   3.717   3.589   1.986  0.7389 -0.0434  0.5835
  119MOL     C237998   3.580   3.626   2.049  0.1440 -0.2224 -0.1457
  119MOL     C337999   3.577   3.782   2.077 -0.5153  0.3698 -0.1546
  119MOL     C438000   3.480   3.828   2.162  0.4903 -0.6849  0.5860
  119MOL     C538001   3.465   3.971   2.184 -0.1452 -0.0557  0.5112
  119MOL     C638002   3.556   4.055   2.113  0.1542  0.4770  0.2022
  119MOL     C738003   3.657   4.005   2.030  0.3737 -0.1526 -0.2379
  119MOL     C838004   3.670   3.871   2.018  0.3236 -1.0619  0.2952
  119MOL     H938005   3.714   3.482   1.965 -0.9935 -0.0033  0.5633
  119MOL    H1038006   3.746   3.640   1.894  1.1965 -0.8119  0.3001
  119MOL    H1138007   3.578   3.583   2.149  1.9516  2.1102  0.9327
  119MOL    H1238008   3.413   3.761   2.213 -0.1637 -0.0655  0.5410
  119MOL    H1338009   3.389   4.007   2.252  0.4276  1.2600  0.4607
  119MOL    H1438010   3.532   4.160   2.125 -2.8139 -0.0217 -0.7913
  119MOL    H1538011   3.721   4.074   1.976  1.3851  0.2440  1.4235
  119MOL    H1638012   3.735   3.830   1.942  0.6804 -1.8237  0.9977
  119MOL    H1738013   3.798   3.613   2.055  0.4346  1.8340  0.2997
  119MOL    C1838014   3.462   3.580   1.959  0.1619  0.3914  1.2178
  119MOL    C1938015   3.347   3.507   2.035 -0.2553 -0.4467 -0.1614
  119MOL    C2038016   3.210   3.524   1.970  0.3996  0.0146  0.4242
  119MOL    C2138017   3.104   3.570   2.051 -0.7862 -0.8336  0.1492
  119MOL    C2238018   2.973   3.578   2.004 -0.0318 -0.1619 -0.3553
  119MOL    C2338019   2.947   3.538   1.872 -0.0781  0.0767  0.7523
  119MOL    C2438020   3.054   3.491   1.792  0.9295 -0.1156 -0.0038
  119MOL    C2538021   3.185   3.479   1.839 -1.2445 -0.9229 -0.4617
  119MOL    H2638022   3.502   3.539   1.866  0.4291 -0.5300  1.7389
  119MOL    H2738023   3.431   3.669   1.904  0.1397  0.9801  2.1767
  119MOL    H2838024   3.345   3.548   2.136 -0.2403 -1.1005  0.1100
  119MOL    H2938025   3.136   3.603   2.149  1.9338 -3.1800  0.1094
  119MOL    H3038026   2.896   3.616   2.070 -0.2746 -2.2044  0.5643
  119MOL    H3138027   2.850   3.530   1.825  0.5913  0.8709 -0.8087
  119MOL    H3238028   3.020   3.465   1.693 -0.2363  0.0470  0.3451
  119MOL    H3338029   3.259   3.443   1.770 -2.7446 -0.8053 -2.1618
  119MOL    C3438030   3.372   3.355   2.062  0.1521  0.6337 -0.9910
  119MOL    C3538031   3.274   3.282   2.152 -1.0263 -0.4100  0.0947
  119MOL    C3638032   3.273   3.138   2.109  0.3685  0.3970  0.5859
  119MOL    C3738033   3.392   3.063   2.098 -0.5215 -0.4446 -0.3143
  119MOL    C3838034   3.382   2.925   2.068 -1.1556 -0.0955  0.2132
  119MOL    C3938035   3.255   2.870   2.043 -0.6885  0.4207 -0.6820
  119MOL    C4038036   3.135   2.942   2.056 -0.0729  0.1916 -0.3832
  119MOL    C4138037   3.147   3.082   2.075 -0.5515  0.0354 -0.4384
  119MOL    H4238038   3.471   3.330   2.099  1.1107  1.5486 -2.8712
  119MOL    H4338039   3.360   3.315   1.961  0.4227 -1.3954 -0.2523
  119MOL    H4438040   3.174   3.316   2.123 -2.2263 -2.6547  1.4076
  119MOL    H4538041   3.488   3.109   2.117 -0.7444 -0.0958  0.0022
  119MOL    H4638042   3.470   2.864   2.062 -1.4513 -0.6304  1.2694
  119MOL    H4738043   3.250   2.763   2.029 -1.0513  0.4110 -0.4794
  119MOL    H4838044   3.039   2.892   2.056  0.0536 -0.0601  0.7023
  119MOL    H4938045   3.054   3.138   2.079 -0.5689  0.0320 -0.7899
  119MOL    C5038046   3.297   3.299   2.307  0.7163 -0.2309 -0.1422
  119MOL    C5138047   3.187   3.259   2.404 -0.4801 -0.3653 -0.1162
  119MOL    C5238048   3.243   3.237   2.548  0.4223 -0.2905 -0.3592
  119MOL    C5338049   3.240   3.339   2.644 -0.1051 -0.1407 -0.4037
  119MOL    C5438050   3.266   3.311   2.784 -0.0369 -0.1191  0.7736
  119MOL    C5538051   3.306   3.180   2.817 -0.0583 -0.9752 -0.0024
  119MOL    C5638052   3.326   3.081   2.715 -0.0310 -0.6304 -0.5358
  119MOL    C5738053   3.285   3.106   2.584 -0.1273  0.1442 -0.1429
  119MOL    H5838054   3.304   3.407   2.320 -0.9200  0.1158 -1.9063
  119MOL    H5938055   3.390   3.253   2.340  0.7269 -0.7420 -0.8736
  119MOL    H6038056   3.164   3.157   2.374  0.6147 -0.7085  0.2032
  119MOL    H6138057   3.197   3.436   2.622  1.1122  0.8763  1.5762
  119MOL    H6238058   3.270   3.389   2.860  1.6042  1.8635 -1.2677
  119MOL    H6338059   3.325   3.146   2.917  0.6321  0.0422  0.2179
  119MOL    H6438060   3.376   2.989   2.742 -0.0118 -1.1740 -2.3820
  119MOL    H6538061   3.283   3.023   2.513  0.2991  0.6453 -0.7456
  119MOL    C6638062   3.060   3.348   2.388  0.2351 -0.2521  0.2223
  119MOL    C6738063   2.954   3.322   2.501  0.5593  0.3968  0.4648
  119MOL    C6838064   2.917   3.445   2.575  0.2523  0.1749 -0.2801
  119MOL    C6938065   2.940   3.450   2.720  0.1425  0.6731  0.3451
  119MOL    C7038066   2.920   3.571   2.784 -0.0555  0.1290  0.1946
  119MOL    C7138067   2.871   3.687   2.721  0.0002 -0.0417  0.0937
  119MOL    C7238068   2.842   3.679   2.581  0.4314  0.2814 -0.1222
  119MOL    C7338069   2.871   3.565   2.509 -0.1706  0.1334 -0.6758
  119MOL    H7438070   3.019   3.340   2.287 -0.6276  0.1453  0.5254
  119MOL    H7538071   3.084   3.453   2.407  1.1050 -0.4003 -0.0517
  119MOL    H7638072   2.995   3.251   2.572 -0.4033  1.0340  1.6691
  119MOL    H7738073   2.974   3.360   2.768 -1.0569 -0.2151 -0.4422
  119MOL    H7838074   2.930   3.562   2.891  1.8245 -1.5168 -0.0877
  119MOL    H7938075   2.863   3.772   2.787  1.5748 -0.6662  1.1154
  119MOL    H8038076   2.812   3.768   2.528 -0.0933 -1.2457 -2.4865
  119MOL    H8138077   2.855   3.557   2.402 -2.0586 -1.9512 -0.2638
  119MOL    C8238078   2.825   3.250   2.448  0.8234  0.7725  0.1076
  119MOL    C8338079   2.833   3.105   2.402  0.5272  0.1298  0.0790
  119MOL    C8438080   2.887   3.019   2.514 -0.5697 -0.3903  0.1068
  119MOL    C8538081   2.831   3.013   2.650  0.6119  0.4638 -0.4501
  119MOL    C8638082   2.899   2.937   2.752  0.2684  0.2394 -0.5892
  119MOL    C8738083   3.005   2.855   2.715  0.1945  0.0585  0.2697
  119MOL    C8838084   3.062   2.860   2.585 -0.2083  0.4439 -0.5681
  119MOL    C8938085   3.002   2.943   2.487  0.3698  0.2911  0.5141
  119MOL    H9038086   2.788   3.309   2.364 -1.9656  0.2935  0.9607
  119MOL    H9138087   2.750   3.260   2.526  2.3760 -0.4359  1.7787
  119MOL    H9238088   2.907   3.093   2.323  3.0526  1.0767  2.2230
  119MOL    H9338089   2.746   3.074   2.678 -0.3737 -1.3094  0.4906
  119MOL    H9438090   2.868   2.942   2.855  0.9608  0.1032 -0.3725
  119MOL    H9538091   3.044   2.801   2.801 -2.3066 -1.1365  0.7060
  119MOL    H9638092   3.145   2.798   2.555 -1.4579 -0.8439 -1.3938
  119MOL    H9738093   3.043   2.944   2.387 -1.9184 -1.3328 -0.4852
  119MOL    C9838094   2.700   3.044   2.358  0.2639  0.1438 -0.0419
  119MOL    C9938095   2.618   3.099   2.238 -0.6217  0.2458  0.8682
  119MOL   C10038096   2.689   3.090   2.103 -0.3810  0.4669 -0.7533
  119MOL   C10138097   2.673   2.971   2.030  0.0342  0.0856  0.1888
  119MOL   C10238098   2.736   2.961   1.901 -0.3423 -0.6553  0.2778
  119MOL   C10338099   2.811   3.069   1.850 -0.1058 -0.1589  0.5682
  119MOL   C10438100   2.819   3.187   1.919  0.4846 -0.9844 -0.1137
  119MOL   C10538101   2.759   3.199   2.045  0.0447  0.8990 -0.5071
  119MOL   H10638102   2.632   3.048   2.443 -2.5232 -0.5472 -2.1747
  119MOL   H10738103   2.708   2.937   2.343 -2.0822 -0.2857  1.5449
  119MOL   H10838104   2.606   3.207   2.246  0.7800  0.4513  0.4870
  119MOL   H10938105   2.616   2.892   2.076 -2.4833  1.2742 -0.8075
  119MOL   H11038106   2.736   2.872   1.839  1.0785 -1.3298  1.2340
  119MOL   H11138107   2.854   3.070   1.751 -1.3059 -4.4031 -0.1207
  119MOL   H11238108   2.853   3.277   1.871 -0.6837 -0.3851  0.1716
  119MOL   H11338109   2.767   3.297   2.090 -0.1955  0.1736  1.1628
  119MOL   C11438110   2.466   3.059   2.229  0.5913  0.1773 -0.3822
  119MOL   C11538111   2.374   3.109   2.346 -0.1207 -0.5233 -0.5359
  119MOL   C11638112   2.429   3.207   2.455  0.1843  0.3743 -0.1439
  119MOL   C11738113   2.458   3.342   2.425 -0.3144  0.0155  0.6707
  119MOL   C11838114   2.515   3.419   2.528  0.2551 -0.2482 -0.5862
  119MOL   C11938115   2.540   3.376   2.655 -0.9877  0.7890 -0.1185
  119MOL   C12038116   2.511   3.244   2.687  0.3323  0.4305 -0.3990
  119MOL   C12138117   2.459   3.164   2.587  0.0752 -0.2075  0.5138
  119MOL   H12238118   2.451   2.951   2.217 -0.4441  0.3319 -0.4901
  119MOL   H12338119   2.432   3.100   2.133  2.5170  0.6958 -0.8593
  119MOL   H12438120   2.357   3.015   2.398 -0.7289 -0.4781 -0.6504
  119MOL   H12538121   2.427   3.391   2.334  1.3647  1.5482  0.8972
  119MOL   H12638122   2.544   3.522   2.510  1.1150 -0.4560 -0.4200
  119MOL   H12738123   2.581   3.455   2.718 -0.4899 -0.0117  0.5750
  119MOL   H12838124   2.528   3.207   2.787  0.2295  0.5880 -0.3236
  119MOL   H12938125   2.433   3.064   2.620 -1.0779 -0.0508  0.0938
  119MOL   C13038126   2.241   3.165   2.297 -0.1102  0.8859  0.4713
  119MOL   C13138127   2.118   3.150   2.392 -0.2542 -0.5976 -0.0080
  119MOL   C13238128   2.123   3.235   2.511 -0.3162  0.2761  0.0621
  119MOL   C13338129   2.089   3.185   2.638  0.0429 -0.0980  0.1991
  119MOL   C13438130   2.098   3.267   2.754  0.3967  0.2579 -0.6026
  119MOL   C13538131   2.129   3.406   2.745  0.0388  0.2826 -0.3418
  119MOL   C13638132   2.144   3.461   2.613 -0.2952  0.0740 -0.5477
  119MOL   C13738133   2.142   3.376   2.496 -0.0115  0.0528  0.0363
  119MOL   H13838134   2.216   3.107   2.209 -1.7734 -0.1730  1.6234
  119MOL   H13938135   2.261   3.269   2.269 -1.2597  0.9189 -0.2947
  119MOL   H14038136   2.112   3.048   2.433  2.3592 -0.6878  0.2511
  119MOL   H14138137   2.065   3.080   2.645 -1.3371  0.3082  1.8868
  119MOL   H14238138   2.080   3.222   2.851  1.2348  0.5028 -0.3353
  119MOL   H14338139   2.160   3.465   2.830 -2.3109  1.4332 -0.2683
  119MOL   H14438140   2.166   3.565   2.597  1.2690 -0.1061  0.2869
  119MOL   H14538141   2.175   3.421   2.403 -1.4605  1.5837  0.2583
  119MOL   C14638142   1.992   3.188   2.311 -0.5039  1.1231 -0.2770
  119MOL   C14738143   1.927   3.077   2.227 -0.3333 -0.3301 -0.1190
  119MOL   C14838144   1.949   2.935   2.284  0.3271 -0.0303 -0.4650
  119MOL   C14938145   1.860   2.881   2.377 -0.3603  0.1730  0.4236
  119MOL   C15038146   1.880   2.743   2.419  0.6191  0.1810  0.0588
  119MOL   C15138147   1.987   2.669   2.367  0.3789 -0.6923 -0.8080
  119MOL   C15238148   2.084   2.730   2.280  0.3480 -0.1844  0.5274
  119MOL   C15338149   2.060   2.862   2.243 -0.3138  0.0326  0.0020
  119MOL   H15438150   1.996   3.286   2.264 -0.8094  2.1294  1.7148
  119MOL   H15538151   1.927   3.206   2.396 -1.0650 -0.6749 -0.3047
  119MOL   H15638152   1.977   3.078   2.130  0.3163  0.3466  0.2182
  119MOL   H15738153   1.768   2.929   2.406 -0.4537  1.6985 -2.2795
  119MOL   H15838154   1.808   2.686   2.476  1.8428  0.1970  1.6345
  119MOL   H15938155   1.998   2.565   2.395  2.5152 -1.3393 -3.7896
  119MOL   H16038156   2.166   2.672   2.240 -0.6426 -0.5612 -1.0001
  119MOL   H16138157   2.129   2.906   2.172  0.9806  0.1308  1.2779
  119MOL   C16238158   1.776   3.117   2.222 -0.0944 -0.1194 -0.0036
  119MOL   C16338159   1.759   3.233   2.116  0.2887  0.4715 -0.4190
  119MOL   C16438160   1.772   3.188   1.974 -0.2142 -0.2496  0.5260
  119MOL   C16538161   1.753   3.055   1.934  0.2455  0.4291  0.0435
  119MOL   C16638162   1.761   3.025   1.793 -0.4709 -0.8923 -0.3511
  119MOL   C16738163   1.776   3.127   1.700  0.4032 -0.0514 -0.7615
  119MOL   C16838164   1.800   3.259   1.744 -0.7077  0.7594  0.7671
  119MOL   C16938165   1.797   3.290   1.881  0.8451  0.1020  0.1606
  119MOL   H17038166   1.742   3.149   2.321  0.4176 -1.1446  0.5135
  119MOL   H17138167   1.712   3.034   2.192  1.4958 -0.9036 -1.2795
  119MOL   H17238168   1.843   3.303   2.121  0.3808  0.3901 -0.8145
  119MOL   H17338169   1.739   2.971   2.000 -0.6842  0.3832 -0.1900
  119MOL   H17438170   1.759   2.921   1.765 -1.5909 -0.5075 -1.7768
  119MOL   H17538171   1.788   3.098   1.597  3.8170 -1.8372  0.0738
  119MOL   H17638172   1.824   3.337   1.673  0.2967  0.4330  0.7465
  119MOL   H17738173   1.826   3.387   1.919  0.4581  0.1140  0.4283
  119MOL   C17838174   1.628   3.302   2.138 -0.2453  0.2771  0.0571
  119MOL   C17938175   1.624   3.395   2.263 -0.6434  0.2726 -0.4446
  119MOL   C18038176   1.740   3.494   2.259 -0.2880  1.1728 -1.1702
  119MOL   C18138177   1.760   3.577   2.143  0.3825 -1.0463  0.7560
  119MOL   C18238178   1.863   3.672   2.141  0.9531 -0.3358  0.1920
  119MOL   C18338179   1.937   3.691   2.254  0.4067 -0.6289 -1.3366
  119MOL   C18438180   1.908   3.623   2.374 -0.1550  0.5337 -0.9705
  119MOL   C18538181   1.825   3.512   2.370 -0.1640 -0.7193  0.5106
  119MOL   H18638182   1.548   3.228   2.141  1.0838 -1.3157 -1.9763
  119MOL   H18738183   1.593   3.364   2.056 -1.2436  2.2826  1.9567
  119MOL   H18838184   1.633   3.342   2.358  0.6478  1.8414  0.3358
  119MOL   H18938185   1.701   3.558   2.055 -1.1132  0.8362  1.3210
  119MOL   H19038186   1.893   3.724   2.051  2.1896 -2.3271 -0.5834
  119MOL   H19138187   2.009   3.771   2.257  0.1522 -0.2937 -3.7063
  119MOL   H19238188   1.969   3.647   2.460  1.3724 -3.1677 -0.9422
  119MOL   H19338189   1.829   3.441   2.451  3.4102 -1.5093 -0.2831
  119MOL   C19438190   1.487   3.479   2.276 -0.4397  0.5462  0.0789
  119MOL   C19538191   1.362   3.396   2.280  0.5102  0.1892  0.2965
  119MOL   C19638192   1.369   3.274   2.378  0.6380  0.5673  0.1075
  119MOL   C19738193   1.384   3.138   2.334 -0.5996  0.1702  0.8768
  119MOL   C19838194   1.388   3.030   2.428  0.0668  0.3146 -0.5740
  119MOL   C19938195   1.389   3.054   2.567  0.1648  0.2622  0.5838
  119MOL   C20038196   1.370   3.184   2.613  0.3460 -0.2122 -0.3066
  119MOL   C20138197   1.368   3.294   2.520  0.3046 -0.5736  0.1519
  119MOL   H20238198   1.481   3.552   2.195  0.6088  1.8334  1.1332
  119MOL   H20338199   1.490   3.538   2.368 -0.2594 -0.1803  0.5364
  119MOL   H20438200   1.348   3.364   2.177  0.8422  1.5189 -0.1670
  119MOL   H20538201   1.404   3.107   2.232  2.9883 -1.0398  1.8382
  119MOL   H20638202   1.403   2.928   2.396  1.9621  0.5764 -0.5990
  119MOL   H20738203   1.394   2.971   2.635  1.0236 -1.3039 -1.3391
  119MOL   H20838204   1.366   3.206   2.719  1.4242  0.7562 -0.4507
  119MOL   H20938205   1.345   3.397   2.546 -0.7744 -1.0201  1.0113
  119MOL   C21038206   1.236   3.489   2.311 -0.2894 -0.2145 -0.3556
  119MOL   C21138207   1.096   3.430   2.331 -0.2655  0.0374 -0.1772
  119MOL   C21238208   1.015   3.537   2.406 -0.8898 -0.0982  1.1433
  119MOL   C21338209   0.986   3.521   2.546 -0.0749  0.1567  0.8821
  119MOL   C21438210   0.909   3.616   2.611  0.5392 -0.1565  0.6029
  119MOL   C21538211   0.859   3.735   2.543 -0.0770  0.3192 -0.2550
  119MOL   C21638212   0.890   3.746   2.409 -0.1283 -0.6510  0.5509
  119MOL   C21738213   0.968   3.653   2.339 -0.4449  1.2190  0.1510
  119MOL   H21838214   1.236   3.577   2.247  0.0179 -0.1432 -0.2576
  119MOL   H21938215   1.252   3.539   2.407  1.9058  0.8710 -1.2634
  119MOL   H22038216   1.100   3.343   2.396 -0.7479 -0.4277 -0.7680
  119MOL   H22138217   1.019   3.427   2.588  3.3030  0.8941  0.0193
  119MOL   H22238218   0.891   3.610   2.717  3.2925  2.9102  1.3148
  119MOL   H22338219   0.794   3.803   2.596 -0.4266 -1.5897  1.8477
  119MOL   H22438220   0.843   3.830   2.360  0.2123 -1.0993 -0.5433
  119MOL   H22538221   0.984   3.671   2.234 -1.0958  0.3718 -0.1022
  119MOL   C22638222   1.037   3.385   2.195 -0.2872 -0.3191  0.0537
  119MOL   C22738223   1.045   3.236   2.154 -0.4186 -0.3432  0.0415
  119MOL   C22838224   1.002   3.145   2.267  0.2295  0.0470 -0.3084
  119MOL   C22938225   1.085   3.037   2.301  0.5647  0.5962 -0.1657
  119MOL   C23038226   1.044   2.943   2.397 -0.2520  0.0485 -0.3093
  119MOL   C23138227   0.930   2.966   2.473 -0.7327  0.4490 -0.4809
  119MOL   C23238228   0.842   3.069   2.426 -0.5843 -0.2201 -0.1415
  119MOL   C23338229   0.877   3.153   2.321  0.3629 -0.5417  0.1035
  119MOL   H23438230   1.085   3.445   2.118  1.6819  0.1900  1.6463
  119MOL   H23538231   0.931   3.411   2.193  0.4563  2.7169 -2.2601
  119MOL   H23638232   1.151   3.217   2.135 -0.3836 -2.0240  1.8418
  119MOL   H23738233   1.167   2.997   2.243 -0.7509 -2.8234  0.2258
  119MOL   H23838234   1.103   2.857   2.426  0.5859  0.4018 -0.9456
  119MOL   H23938235   0.897   2.896   2.548  3.0487 -0.8264  0.1401
  119MOL   H24038236   0.762   3.090   2.496  0.2941  0.1415  0.7751
  119MOL   H24138237   0.809   3.234   2.302  0.8804  0.5342  2.6419
  119MOL   C24238238   0.963   3.211   2.029  0.3205  0.0188 -0.4312
  119MOL   C24338239   1.020   3.261   1.893 -0.2416  0.0908  0.1711
  119MOL   C24438240   1.139   3.183   1.844  0.0157 -1.2170 -0.9096
  119MOL   C24538241   1.140   3.056   1.785 -0.1851  0.7684 -0.4905
  119MOL   C24638242   1.261   2.994   1.743  0.8911 -0.2288  0.6208
  119MOL   C24738243   1.384   3.049   1.779  0.0446 -0.2712 -0.0960
  119MOL   C24838244   1.386   3.169   1.849  0.0879 -0.6382  0.6858
  119MOL   C24938245   1.266   3.239   1.864 -0.1040  0.5252 -0.2589
  119MOL   H25038246   0.863   3.254   2.029  0.9163  1.4245 -1.1228
  119MOL   H25138247   0.954   3.103   2.029 -0.9707  0.0667  2.6372
  119MOL   H25238248   1.059   3.361   1.914  0.1375 -0.4108  1.9256
  119MOL   H25338249   1.044   3.009   1.771  0.6986 -0.7699 -1.5363
  119MOL   H25438250   1.271   2.910   1.676  1.5922  1.2612 -1.2098
  119MOL   H25538251   1.471   2.996   1.743  1.1864 -1.8648  4.6613
  119MOL   H25638252   1.476   3.215   1.888 -0.3245  0.0009  0.8911
  119MOL   H25738253   1.269   3.334   1.916 -0.0422 -0.5929  1.8300
  119MOL   C25838254   0.907   3.267   1.787  0.3106  0.3677  0.1396
  119MOL   C25938255   0.843   3.404   1.770  0.4423 -0.0859  0.0113
  119MOL   C26038256   0.937   3.514   1.725  0.0355  0.3498 -0.6369
  119MOL   C26138257   0.980   3.614   1.816  0.0042  0.6093  0.0138
  119MOL   C26238258   1.058   3.724   1.777 -0.4072 -0.4704  0.5315
  119MOL   C26338259   1.096   3.731   1.641 -0.2590 -0.0136 -0.4484
  119MOL   C26438260   1.068   3.630   1.552 -0.0499  0.1691  0.5429
  119MOL   C26538261   0.982   3.522   1.588  0.5003 -0.5302 -0.0689
  119MOL   H26638262   0.841   3.185   1.815  1.0748  0.0382  1.0160
  119MOL   H26738263   0.943   3.250   1.686 -1.7596  0.7983 -0.6976
  119MOL   H26838264   0.811   3.432   1.871 -2.5222 -0.8890 -0.6614
  119MOL   H26938265   0.958   3.596   1.920 -0.1001 -0.4001 -0.1764
  119MOL   H27038266   1.078   3.811   1.837 -0.0733 -1.2749  1.5965
  119MOL   H27138267   1.150   3.817   1.605 -2.1244  1.9894  1.3510
  119MOL   H27238268   1.102   3.622   1.450 -2.5101 -0.5591 -0.2531
  119MOL   H27338269   0.949   3.444   1.522 -1.5377 -1.9695  2.5362
  119MOL   C27438270   0.705   3.396   1.694  0.0916 -0.0940 -0.1244
  119MOL   C27538271   0.570   3.378   1.771  0.4045 -0.4034  0.1333
  119MOL   C27638272   0.451   3.424   1.682  0.3359  0.2541 -0.3913
  119MOL   C27738273   0.419   3.358   1.561  0.2808  0.1914 -0.9012
  119MOL   C27838274   0.292   3.382   1.496 -1.3370  0.1121  0.4239
  119MOL   C27938275   0.210   3.481   1.544  0.1638 -0.0207  0.0523
  119MOL   C28038276   0.252   3.554   1.661  0.8263  0.4793  0.0781
  119MOL   C28138277   0.368   3.529   1.730  0.1122 -0.1650  0.2257
  119MOL   H28238278   0.715   3.322   1.615 -2.0595 -0.6855  0.1125
  119MOL   H28338279   0.692   3.487   1.636 -2.6941  0.1326  0.7633
  119MOL   H28438280   0.573   3.459   1.843  1.6042  1.5038 -1.9972
  119MOL   H28538281   0.491   3.285   1.528 -0.7984 -1.7122  0.8532
  119MOL   H28638282   0.260   3.317   1.416 -0.8479  1.4524 -0.8881
  119MOL   H28738283   0.117   3.506   1.495  0.7966  1.5249 -0.4104
  119MOL   H28838284   0.183   3.630   1.694 -1.7348 -1.8391  0.1836
  119MOL   H28938285   0.393   3.578   1.822 -1.2263 -0.8064  0.9405
  119MOL   C29038286   0.549   3.229   1.823  0.2187  0.5864  0.5640
  119MOL   C29138287   0.419   3.211   1.910 -0.0692  0.9787  0.4567
  119MOL   C29238288   0.354   3.073   1.889 -0.1758 -0.4019 -0.5129
  119MOL   C29338289   0.432   2.957   1.895  0.4247 -0.2692 -0.2702
  119MOL   C29438290   0.372   2.839   1.846  0.1438 -0.0027  0.3396
  119MOL   C29538291   0.239   2.833   1.802 -0.0803 -0.3284 -0.6693
  119MOL   C29638292   0.150   2.948   1.818 -0.2399  0.1021  0.3533
  119MOL   C29738293   0.215   3.068   1.858  0.2721  0.2808 -0.6013
  119MOL   H29838294   0.632   3.186   1.879  0.6666  1.5046  0.6140
  119MOL   H29938295   0.539   3.171   1.731 -0.5686  2.8274 -0.8032
  119MOL   H30038296   0.343   3.283   1.880 -0.4755  0.2450 -0.2843
  119MOL   H30138297   0.536   2.968   1.924 -0.1491  0.6133  1.4971
  119MOL   H30238298   0.424   2.745   1.839 -3.7778 -2.2736  0.5639
  119MOL   H30338299   0.194   2.738   1.777 -2.5650  1.1140 -1.9145
  119MOL   H30438300   0.050   2.937   1.780  0.8132 -2.2398 -1.9222
  119MOL   H30538301   0.147   3.152   1.853 -1.6262 -1.3120 -2.5194
  119MOL   C30638302   0.437   3.242   2.057  0.5927 -0.3818 -0.1992
  119MOL   C30738303   0.312   3.208   2.143 -0.3633  0.1594  0.2818
  119MOL   C30838304   0.325   3.240   2.288  0.4175  0.2169  0.4102
  119MOL   C30938305   0.243   3.333   2.354  0.1835 -0.2121 -0.3781
  119MOL   C31038306   0.257   3.362   2.490 -0.1285 -0.1059  0.4469
  119MOL   C31138307   0.356   3.292   2.557 -0.1172  0.4390 -0.0819
  119MOL   C31238308   0.428   3.186   2.496  0.1366 -0.2644 -0.4732
  119MOL   C31338309   0.417   3.167   2.359  0.0039 -0.0575 -0.2115
  119MOL   H31438310   0.461   3.347   2.069 -3.0773  0.4486  0.3602
  119MOL   H31538311   0.525   3.193   2.102  0.4409  0.1794  0.7285
  119MOL   H31638312   0.280   3.104   2.136 -0.9761  0.4077 -0.7701
  119MOL   H31738313   0.169   3.385   2.294  0.5451  0.7890  0.0383
  119MOL   H31838314   0.204   3.439   2.544  1.7987  0.8556  1.0076
  119MOL   H31938315   0.371   3.309   2.663  1.5265 -0.0523 -0.2162
  119MOL   H32038316   0.500   3.128   2.550 -0.0907 -1.7375 -1.7187
  119MOL   H32138317   0.483   3.095   2.313 -0.1035 -1.0083  1.0800
  119MOL   H32238318   0.226   3.266   2.106 -0.0738  0.2079 -0.3148
  120MOL     C138319   0.871   3.520   7.372 -0.4264 -0.1752  0.1906
  120MOL     C238320   0.894   3.474   7.520  1.2420  0.4098  0.4443
  120MOL     C338321   0.809   3.551   7.616 -0.2155 -0.2473  0.4434
  120MOL     C438322   0.680   3.591   7.586  0.5230  0.5308 -0.5784
  120MOL     C538323   0.603   3.672   7.672 -0.0525 -0.2265  0.1163
  120MOL     C638324   0.656   3.697   7.803  0.7450  0.7356  0.5729
  120MOL     C738325   0.786   3.661   7.833 -1.1920 -0.0171  0.1752
  120MOL     C838326   0.864   3.587   7.741  0.5567 -0.5043  0.5905
  120MOL     H938327   0.769   3.500   7.339 -0.2892  0.4000 -0.5980
  120MOL    H1038328   0.889   3.627   7.357 -2.7365  0.3555  0.8841
  120MOL    H1138329   0.992   3.516   7.545  1.2590  0.1210  0.8627
  120MOL    H1238330   0.628   3.567   7.495  0.7551  0.1716 -0.6162
  120MOL    H1338331   0.515   3.717   7.629 -0.7664 -2.1635 -0.5177
  120MOL    H1438332   0.611   3.751   7.885 -1.0590  1.4023 -0.8327
  120MOL    H1538333   0.835   3.679   7.927  1.1673 -1.2688 -0.7515
  120MOL    H1638334   0.968   3.568   7.760  1.0686  2.0283  0.3648
  120MOL    H1738335   0.926   3.466   7.296 -3.0580  0.2015 -2.0773
  120MOL    C1838336   0.900   3.323   7.542 -0.4511 -0.2572 -0.1400
  120MOL    C1938337   0.774   3.251   7.612 -0.2239  0.6045 -0.1170
  120MOL    C2038338   0.643   3.257   7.531  0.8125  0.5138 -0.2168
  120MOL    C2138339   0.525   3.307   7.595  0.0967 -0.3389  0.4666
  120MOL    C2238340   0.402   3.308   7.522 -0.2911 -0.3223 -0.0512
  120MOL    C2338341   0.399   3.277   7.390  0.2473  0.2998  0.2616
  120MOL    C2438342   0.520   3.237   7.326  0.0459 -0.1104 -0.4318
  120MOL    C2538343   0.642   3.227   7.395 -0.4602 -0.0665 -0.3950
  120MOL    H2638344   0.992   3.314   7.601 -0.3603 -0.5469 -0.3256
  120MOL    H2738345   0.935   3.272   7.453 -0.0156  1.2007 -0.8172
  120MOL    H2838346   0.762   3.302   7.707  0.0178 -2.0074  1.3518
  120MOL    H2938347   0.520   3.318   7.702  2.0379  0.6374  0.4773
  120MOL    H3038348   0.306   3.330   7.567 -0.5049 -1.6135  0.1290
  120MOL    H3138349   0.304   3.292   7.340  0.8829  1.8885 -0.4980
  120MOL    H3238350   0.519   3.211   7.221 -1.6935  0.7115 -0.6385
  120MOL    H3338351   0.734   3.203   7.343 -0.5295 -0.1482 -0.4791
  120MOL    C3438352   0.814   3.108   7.658 -0.8021  0.5408 -0.0933
  120MOL    C3538353   0.918   3.090   7.777 -0.0078  0.2303 -0.4654
  120MOL    C3638354   0.934   3.199   7.880  0.5472 -0.1798  0.6441
  120MOL    C3738355   1.051   3.274   7.900 -0.0116  0.4550  0.1477
  120MOL    C3838356   1.057   3.389   7.988  0.8814 -0.0677  0.5503
  120MOL    C3938357   0.946   3.420   8.065  0.1282  0.3310 -0.0649
  120MOL    C4038358   0.833   3.340   8.048 -0.4234 -0.4957 -0.2687
  120MOL    C4138359   0.825   3.239   7.956  0.2124 -0.2765 -0.0390
  120MOL    H4238360   0.845   3.043   7.577 -0.7610 -0.5935  0.8164
  120MOL    H4338361   0.721   3.063   7.692 -0.1109 -1.0030 -0.2007
  120MOL    H4438362   1.015   3.089   7.728  0.0051  2.1209 -0.5331
  120MOL    H4538363   1.138   3.256   7.839 -1.2840  0.6701 -1.7647
  120MOL    H4638364   1.150   3.444   7.998  0.2127  1.1320  0.2653
  120MOL    H4738365   0.946   3.505   0.016 -1.0459  1.2083 -1.1750
  120MOL    H4838366   0.749   3.370   8.110  1.3174  0.1382  1.8176
  120MOL    H4938367   0.731   3.186   7.947  0.6688 -1.2815  0.9332
  120MOL    C5038368   0.888   2.954   7.849  0.3191  0.0526  0.0647
  120MOL    C5138369   0.985   2.901   7.957 -0.1697 -0.3421  0.0068
  120MOL    C5238370   0.914   2.798   8.046  0.0254  0.3499 -0.7635
  120MOL    C5338371   0.902   2.834   0.067  0.5092 -0.4830  0.3761
  120MOL    C5438372   0.820   2.759   0.154  0.6136  0.0057  0.4846
  120MOL    C5538373   0.767   2.638   0.106 -0.2979  0.6605  0.5282
  120MOL    C5638374   0.802   2.592   8.092 -1.2867 -0.4072 -0.6935
  120MOL    C5738375   0.863   2.676   8.003  0.2291  0.5059  0.4219
  120MOL    H5838376   0.872   2.871   7.780  1.1377 -0.3080  0.3070
  120MOL    H5938377   0.791   2.964   7.898 -0.2382 -0.1262 -0.9836
  120MOL    H6038378   1.006   2.984   8.023  0.4160  1.5357 -2.4543
  120MOL    H6138379   0.945   2.924   0.109 -2.1137  0.3322  1.4475
  120MOL    H6238380   0.814   2.797   0.255  1.4467 -0.9114  0.8808
  120MOL    H6338381   0.699   2.575   0.161  0.2737 -1.4526 -1.1114
  120MOL    H6438382   0.770   2.492   8.066 -0.0573 -1.1900  0.7127
  120MOL    H6538383   0.861   2.644   7.900 -1.7063 -0.6189  0.7969
  120MOL    C6638384   1.105   2.846   7.877  0.2510  0.4521 -0.1318
  120MOL    C6738385   1.248   2.849   7.953 -0.1190  0.6353 -0.0378
  120MOL    C6838386   1.240   2.819   8.106 -0.2697  0.1754  0.3648
  120MOL    C6938387   1.262   2.919   0.086 -0.3550  0.3627 -0.4003
  120MOL    C7038388   1.255   2.887   0.221 -0.3418  0.4388 -0.3177
  120MOL    C7138389   1.253   2.753   0.268  0.3033  0.3938 -0.0678
  120MOL    C7238390   1.245   2.649   0.171 -0.3628 -0.0409  0.7866
  120MOL    C7338391   1.240   2.685   0.036 -0.3863  0.6093 -0.4640
  120MOL    H7438392   1.119   2.901   7.784 -0.5506  0.6266 -0.1492
  120MOL    H7538393   1.079   2.744   7.850  1.1919  0.1569  0.0550
  120MOL    H7638394   1.282   2.953   7.950 -1.1351  0.9444 -1.1994
  120MOL    H7738395   1.272   3.023   0.059  2.0492 -0.0162 -1.0874
  120MOL    H7838396   1.273   2.965   0.293 -0.9417  0.9723 -0.7426
  120MOL    H7938397   1.246   2.741   0.375  0.0489  0.5718 -0.0647
  120MOL    H8038398   1.241   2.546   0.204 -2.6763 -1.0221 -2.3264
  120MOL    H8138399   1.222   2.610   8.076 -2.7468 -0.9615  1.6138
  120MOL    C8238400   1.351   2.763   7.881  0.0699 -0.5674  0.6332
  120MOL    C8338401   1.493   2.799   7.920  0.5247 -0.2445  0.0427
  120MOL    C8438402   1.572   2.668   7.963  0.3825  0.0702  0.2860
  120MOL    C8538403   1.664   2.600   7.876 -0.4538  0.0909  0.2224
  120MOL    C8638404   1.759   2.513   7.933 -0.3643  0.0633 -0.0995
  120MOL    C8738405   1.764   2.504   8.068  1.1788  0.1774  0.4675
  120MOL    C8838406   1.664   2.566   0.036  0.5213  0.1765 -0.1526
  120MOL    C8938407   1.567   2.648   8.102  0.6288  1.0644  0.2641
  120MOL    H9038408   1.339   2.779   7.774  0.0100  0.7819  0.8388
  120MOL    H9138409   1.329   2.658   7.900  1.6003 -1.1068 -0.4890
  120MOL    H9238410   1.486   2.870   8.002 -2.1018  0.8307 -1.0621
  120MOL    H9338411   1.679   2.616   7.770  2.1204  1.4229  0.7523
  120MOL    H9438412   1.826   2.460   7.867  1.5795  0.6373  1.3609
  120MOL    H9538413   1.838   2.441   0.001 -1.3781 -2.7868  0.6791
  120MOL    H9638414   1.665   2.544   0.142 -1.9695  0.3564 -0.0608
  120MOL    H9738415   1.490   2.694   0.048  1.0713  1.5429  0.4629
  120MOL    C9838416   1.573   2.880   7.820 -0.1963 -0.7648  0.6315
  120MOL    C9938417   1.522   3.025   7.789 -0.5225 -0.3900  0.0530
  120MOL   C10038418   1.527   3.115   7.920 -0.3798  1.1780  1.1198
  120MOL   C10138419   1.648   3.131   7.992 -0.1802  0.3289 -0.3309
  120MOL   C10238420   1.653   3.218   8.104  0.1913  0.3957 -0.2310
  120MOL   C10338421   1.532   3.288   0.024 -0.7250 -1.2742  0.1874
  120MOL   C10438422   1.420   3.272   8.060 -0.2347  0.6376 -0.2275
  120MOL   C10538423   1.413   3.189   7.950 -0.4587 -0.2145 -0.3954
  120MOL   H10638424   1.579   2.815   7.732  0.4532 -1.0297  0.8700
  120MOL   H10738425   1.675   2.883   7.857  0.3913  1.0967 -1.0266
  120MOL   H10838426   1.418   3.030   7.756 -0.1481  0.3194 -1.0626
  120MOL   H10938427   1.735   3.079   7.954  0.7496  2.4604 -1.2109
  120MOL   H11038428   1.744   3.229   0.046 -0.2806 -1.4255  0.9086
  120MOL   H11138429   1.526   3.362   0.102 -2.9983 -1.5972  0.3606
  120MOL   H11238430   1.329   3.329   8.073 -2.3560 -3.0849  2.1599
  120MOL   H11338431   1.315   3.179   7.905  0.2632 -1.4751 -1.7567
  120MOL   C11438432   1.598   3.086   7.672 -0.4344 -0.1886 -0.4866
  120MOL   C11538433   1.570   3.031   7.534 -0.3005  0.6603 -0.0094
  120MOL   C11638434   1.427   3.064   7.483 -0.3967  0.1437 -0.4890
  120MOL   C11738435   1.350   2.956   7.427 -0.3275  0.3347 -0.2844
  120MOL   C11838436   1.220   2.973   7.398 -0.0206  0.0981  0.2175
  120MOL   C11938437   1.161   3.107   7.399 -0.1315  0.6448  0.3480
  120MOL   C12038438   1.237   3.218   7.442 -0.2268 -0.3803  0.5999
  120MOL   C12138439   1.371   3.195   7.488 -0.2603 -0.2447 -0.0639
  120MOL   H12238440   1.703   3.089   7.698 -0.7022  2.1508  0.4835
  120MOL   H12338441   1.572   3.192   7.659 -0.8553 -0.4392 -1.7822
  120MOL   H12438442   1.574   2.923   7.542  0.3336  0.7813  1.6943
  120MOL   H12538443   1.396   2.859   7.440  0.6642  0.8803  0.3317
  120MOL   H12638444   1.159   2.891   7.362 -1.9909  2.2229 -1.4318
  120MOL   H12738445   1.059   3.109   7.362  0.4676  1.3446 -1.3245
  120MOL   H12838446   1.195   3.315   7.461 -1.4522 -1.0437  1.3797
  120MOL   H12938447   1.432   3.274   7.529  0.3324 -1.3600  1.2302
  120MOL   C13038448   1.671   3.083   7.436  0.7839 -0.4975 -0.2687
  120MOL   C13138449   1.816   3.031   7.454  0.1437 -0.5308 -0.2360
  120MOL   C13238450   1.819   2.879   7.489 -0.0320  0.1387  0.1420
  120MOL   C13338451   1.864   2.829   7.615  0.1217  1.0190 -0.5408
  120MOL   C13438452   1.865   2.692   7.643  0.2889  0.8197 -0.2551
  120MOL   C13538453   1.812   2.600   7.551  0.1004  0.2891 -0.4100
  120MOL   C13638454   1.768   2.656   7.423 -0.6780 -0.1271  0.0944
  120MOL   C13738455   1.770   2.788   7.393 -0.5623 -0.1482 -0.4474
  120MOL   H13838456   1.680   3.190   7.448  1.7279 -0.7116  0.9628
  120MOL   H13938457   1.637   3.055   7.336  0.6635 -3.1587  0.4555
  120MOL   H14038458   1.864   3.081   7.539 -1.4242 -0.9290  0.9211
  120MOL   H14138459   1.899   2.898   7.690  2.8620 -0.6627 -0.1962
  120MOL   H14238460   1.919   2.658   7.730  2.9173  1.7627 -1.4791
  120MOL   H14338461   1.831   2.494   7.556 -2.1135 -0.0357  1.8323
  120MOL   H14438462   1.726   2.584   7.354 -0.9607 -2.8908  3.0404
  120MOL   H14538463   1.742   2.838   7.301  1.3699  1.6497 -0.0804
  120MOL   C14638464   1.907   3.063   7.332 -0.0741  0.2680 -0.3481
  120MOL   C14738465   1.903   3.209   7.271  0.4394 -0.1603  0.3525
  120MOL   C14838466   1.966   3.316   7.355 -0.4157  0.1343 -0.0070
  120MOL   C14938467   1.922   3.448   7.343  0.7860 -0.4805  0.5841
  120MOL   C15038468   1.997   3.549   7.397  0.2563 -0.7773 -0.2650
  120MOL   C15138469   2.112   3.528   7.469  0.1312 -0.5909 -0.3855
  120MOL   C15238470   2.159   3.402   7.492  0.1731 -0.9614  0.3635
  120MOL   C15338471   2.090   3.299   7.423  0.1508  0.0873  0.7912
  120MOL   H15438472   1.885   2.989   7.255  0.7545 -1.0364  0.6358
  120MOL   H15538473   2.010   3.034   7.354  0.1159  0.1492 -1.3965
  120MOL   H15638474   1.798   3.240   7.271  0.6257  0.5133 -1.3236
  120MOL   H15738475   1.843   3.481   7.278 -1.0614 -3.4206  1.2421
  120MOL   H15838476   1.957   3.649   7.389  0.9747 -0.5232 -0.7801
  120MOL   H15938477   2.172   3.605   7.517 -0.1520 -0.6194  0.0161
  120MOL   H16038478   2.251   3.382   7.545  0.1807  0.0215  0.7306
  120MOL   H16138479   2.122   3.196   7.427  0.7584  0.1456 -1.6763
  120MOL   C16238480   1.953   3.217   7.126  0.4143 -0.0818 -0.1822
  120MOL   C16338481   1.875   3.147   7.014  0.1635  0.0696  0.7457
  120MOL   C16438482   1.726   3.130   7.038  0.3462 -0.4840  0.3164
  120MOL   C16538483   1.652   3.246   7.065  0.4933 -0.5785 -0.6299
  120MOL   C16638484   1.515   3.244   7.099 -0.1671  0.2323 -0.5786
  120MOL   C16738485   1.452   3.122   7.110  0.2621 -0.1300 -0.4973
  120MOL   C16838486   1.528   2.998   7.085 -0.1398 -0.4688 -1.0647
  120MOL   C16938487   1.665   3.006   7.048 -0.2962 -0.5082  0.1107
  120MOL   H17038488   2.054   3.179   7.108  0.6944  0.3135  0.5209
  120MOL   H17138489   1.947   3.321   7.094 -0.2380 -0.0476  0.0498
  120MOL   H17238490   1.910   3.043   7.020 -1.1045 -0.4517 -0.5801
  120MOL   H17338491   1.712   3.336   7.072  0.4312 -0.6434  1.0853
  120MOL   H17438492   1.466   3.339   7.118 -0.9198 -0.3885  0.6894
  120MOL   H17538493   1.346   3.131   7.130  0.4481 -1.5087  1.2793
  120MOL   H17638494   1.477   2.904   7.097 -0.5272 -0.2873 -1.2721
  120MOL   H17738495   1.717   2.915   7.022  0.1895  0.4703 -2.5018
  120MOL   C17838496   1.907   3.205   6.875  0.2140 -0.1055 -0.4596
  120MOL   C17938497   1.869   3.125   6.750  0.0291  0.0612  0.1903
  120MOL   C18038498   1.871   3.217   6.626  0.4556 -0.0299  0.3502
  120MOL   C18138499   1.755   3.298   6.608 -0.4092  0.6785 -0.6409
  120MOL   C18238500   1.750   3.371   6.489 -0.2278 -0.1161  0.0239
  120MOL   C18338501   1.865   3.387   6.406 -0.1769  0.2315 -0.4390
  120MOL   C18438502   1.979   3.306   6.429 -0.3313 -0.1258 -0.1581
  120MOL   C18538503   1.983   3.224   6.540 -0.3973  0.5890 -0.8342
  120MOL   H18638504   2.013   3.227   6.865 -0.1462  2.0171  0.2143
  120MOL   H18738505   1.849   3.297   6.869 -2.2973 -1.6198 -0.5839
  120MOL   H18838506   1.762   3.105   6.756  0.5261 -2.9853 -0.3090
  120MOL   H18938507   1.669   3.297   6.673 -0.6091 -1.0299 -0.9086
  120MOL   H19038508   1.657   3.423   6.471 -1.3813 -2.0508  0.2377
  120MOL   H19138509   1.865   3.440   6.312  1.1189 -0.8936 -1.0873
  120MOL   H19238510   2.064   3.311   6.364 -0.3563  1.4113 -0.0805
  120MOL   H19338511   2.065   3.158   6.562 -1.0156 -0.1712 -0.7947
  120MOL   C19438512   1.949   2.992   6.733  0.3550 -0.4566 -0.1714
  120MOL   C19538513   1.920   2.907   6.608  0.5024  0.4572  0.1398
  120MOL   C19638514   2.041   2.829   6.572 -0.0874  0.1457  0.1444
  120MOL   C19738515   2.074   2.716   6.639  0.3185  0.0962 -0.2567
  120MOL   C19838516   2.185   2.642   6.595 -0.7070  0.1403 -0.2416
  120MOL   C19938517   2.255   2.668   6.474  0.4908  0.1190  0.1633
  120MOL   C20038518   2.225   2.787   6.410  0.0881  0.2026  0.9543
  120MOL   C20138519   2.121   2.867   6.458 -0.5351  0.1882  0.2656
  120MOL   H20238520   1.940   2.932   6.823  1.7174  0.4398  0.5802
  120MOL   H20338521   2.054   3.018   6.718  0.0190 -0.0502 -1.9518
  120MOL   H20438522   1.896   2.972   6.524 -0.1224 -0.3496 -0.3091
  120MOL   H20538523   2.012   2.687   6.722 -1.3672 -1.6579 -2.0875
  120MOL   H20638524   2.205   2.553   6.653 -0.6084  0.0790 -0.3710
  120MOL   H20738525   2.331   2.602   6.437  1.1080  1.3633 -0.8097
  120MOL   H20838526   2.261   2.817   6.313 -2.5486 -1.3990 -0.5665
  120MOL   H20938527   2.085   2.951   6.399 -1.5249 -1.4846 -1.5907
  120MOL   C21038528   1.788   2.821   6.623 -0.4723  0.0903  0.2351
  120MOL   C21138529   1.735   2.758   6.494 -0.2097 -0.8514  0.4457
  120MOL   C21238530   1.789   2.612   6.479 -0.0482 -0.5145  0.7551
  120MOL   C21338531   1.736   2.507   6.552  0.6245 -0.2836 -0.1174
  120MOL   C21438532   1.784   2.382   6.538  0.6755  0.0183  1.2288
  120MOL   C21538533   1.883   2.354   6.437  0.1160 -0.5200 -0.5279
  120MOL   C21638534   1.943   2.462   6.369 -0.7116  0.4353 -0.4385
  120MOL   C21738535   1.886   2.591   6.381 -0.6312  0.1847  0.0368
  120MOL   H21838536   1.718   2.897   6.658  1.9224  2.0193  0.9656
  120MOL   H21938537   1.798   2.750   6.705  3.3943  2.2653  1.7840
  120MOL   H22038538   1.773   2.813   6.408 -2.4380 -0.3838 -0.2536
  120MOL   H22138539   1.658   2.523   6.625  1.2188 -2.5623  1.0581
  120MOL   H22238540   1.742   2.298   6.591 -0.2548 -0.5999 -0.4509
  120MOL   H22338541   1.902   2.249   6.423 -1.6302 -1.4727  3.5467
  120MOL   H22438542   2.021   2.439   6.299 -0.3045 -1.3424  0.5671
  120MOL   H22538543   1.931   2.670   6.322  4.0997 -2.0030  0.4853
  120MOL   C22638544   1.585   2.742   6.481 -0.2563  0.5161 -0.6452
  120MOL   C22738545   1.504   2.863   6.438 -0.0016  0.3148 -0.3266
  120MOL   C22838546   1.540   2.925   6.299 -0.1680 -0.3395 -0.0669
  120MOL   C22938547   1.542   2.849   6.182  0.5032  0.0317  0.6417
  120MOL   C23038548   1.574   2.921   6.059 -0.5677 -0.1178  0.0128
  120MOL   C23138549   1.613   3.060   6.058  0.1900 -0.3618  0.2245
  120MOL   C23238550   1.607   3.134   6.174 -0.3459 -0.4228  0.5167
  120MOL   C23338551   1.576   3.066   6.291  0.3093  0.3930 -0.7016
  120MOL   H23438552   1.547   2.704   6.575 -0.0979 -0.5917 -1.0212
  120MOL   H23538553   1.571   2.657   6.413  0.6412 -1.3045  1.3947
  120MOL   H23638554   1.521   2.947   6.505 -2.3020  1.8717 -1.6180
  120MOL   H23738555   1.525   2.743   6.189  0.1558  0.1913  2.3475
  120MOL   H23838556   1.583   2.871   5.964  1.7005  0.8670 -0.3174
  120MOL   H23938557   1.642   3.107   5.965 -0.1637 -0.6376 -0.0288
  120MOL   H24038558   1.631   3.239   6.175 -3.9190  0.5093 -1.8117
  120MOL   H24138559   1.568   3.120   6.384  0.4555  2.4964 -1.8929
  120MOL   C24238560   1.350   2.831   6.461  0.3138  0.2274  0.7142
  120MOL   C24338561   1.250   2.941   6.413  0.3783 -0.8025  0.6917
  120MOL   C24438562   1.109   2.882   6.429  0.9275 -0.6601 -0.0833
  120MOL   C24538563   1.054   2.856   6.555 -0.0208 -0.3810  0.5850
  120MOL   C24638564   0.919   2.814   6.563  0.7386  0.4885 -0.3469
  120MOL   C24738565   0.855   2.764   6.454  0.2930 -0.0740  0.0165
  120MOL   C24838566   0.910   2.783   6.327 -0.5107 -0.0539  0.3237
  120MOL   C24938567   1.038   2.848   6.312  0.5002 -0.0431 -0.5489
  120MOL   H25038568   1.343   2.802   6.566  2.1474 -0.0857  0.7609
  120MOL   H25138569   1.330   2.737   6.408  0.5101 -0.7784  2.3875
  120MOL   H25238570   1.276   2.945   6.308 -1.4936  3.1855  0.2618
  120MOL   H25338571   1.099   2.871   6.652 -1.6461 -0.0206  1.2975
  120MOL   H25438572   0.872   2.804   6.660  0.9975 -1.1313 -0.3677
  120MOL   H25538573   0.751   2.738   6.467 -0.1237  1.4347 -0.1368
  120MOL   H25638574   0.857   2.768   6.234  1.3780 -0.4792 -0.7039
  120MOL   H25738575   1.076   2.884   6.217  3.9868  3.8978  2.1561
  120MOL   C25838576   1.267   3.078   6.483  0.5044 -0.3184 -0.4095
  120MOL   C25938577   1.203   3.205   6.406 -0.6629  0.0415 -0.4059
  120MOL   C26038578   1.066   3.231   6.453  0.1312  0.6405  0.3013
  120MOL   C26138579   1.035   3.310   6.561  0.3535 -0.2675 -1.0532
  120MOL   C26238580   0.903   3.330   6.600  0.3669  0.0753 -1.0259
  120MOL   C26338581   0.792   3.290   6.519 -0.6221  0.3844 -0.6446
  120MOL   C26438582   0.826   3.201   6.412  0.4664 -0.4191 -0.3263
  120MOL   C26538583   0.957   3.163   6.381  0.4301 -0.4927 -0.6378
  120MOL   H26638584   1.374   3.102   6.485  0.5034 -0.3091 -0.4738
  120MOL   H26738585   1.234   3.073   6.587  1.1228 -0.5603 -0.2175
  120MOL   H26838586   1.195   3.180   6.300  1.7577  0.6633 -0.7804
  120MOL   H26938587   1.114   3.342   6.627 -1.0982 -0.2277  0.6892
  120MOL   H27038588   0.879   3.398   6.680  0.7721 -1.5490  0.5125
  120MOL   H27138589   0.692   3.311   6.553 -0.7773  0.2220 -0.9934
  120MOL   H27238590   0.753   3.166   6.341  0.5173 -0.4195 -0.3779
  120MOL   H27338591   0.975   3.095   6.299 -1.0623  0.2968 -1.6318
  120MOL   C27438592   1.297   3.328   6.414 -0.3330 -0.9258  0.2642
  120MOL   C27538593   1.251   3.467   6.359 -0.0794  0.2902 -1.2443
  120MOL   C27638594   1.366   3.569   6.392  0.3488 -0.1944  0.2732
  120MOL   C27738595   1.340   3.674   6.490 -0.3129  0.3207 -0.0539
  120MOL   C27838596   1.448   3.752   6.526 -0.0578 -0.8136 -0.2420
  120MOL   C27938597   1.574   3.757   6.456  0.2560 -0.3078 -0.2399
  120MOL   C28038598   1.600   3.649   6.368 -0.0429 -0.5725 -0.5526
  120MOL   C28138599   1.492   3.554   6.338  0.0685 -0.0587  0.4165
  120MOL   H28238600   1.380   3.296   6.352  0.4556 -1.1523  1.4383
  120MOL   H28338601   1.331   3.335   6.517 -0.1428 -1.3284  0.2303
  120MOL   H28438602   1.158   3.490   6.411 -1.4322 -1.5069 -2.7938
  120MOL   H28538603   1.244   3.689   6.536 -1.2140 -2.1031 -1.1084
  120MOL   H28638604   1.447   3.831   6.600 -1.4668 -2.5057  1.5835
  120MOL   H28738605   1.652   3.829   6.476  0.2589  0.0955 -1.6742
  120MOL   H28838606   1.697   3.657   6.322  0.2643  0.0175  0.1809
  120MOL   H28938607   1.497   3.475   6.264  0.7784  1.7737 -1.5382
  120MOL   C29038608   1.211   3.458   6.213 -0.1462  0.6284 -0.0639
  120MOL   C29138609   1.095   3.553   6.169  0.6759 -0.3843 -0.3723
  120MOL   C29238610   1.074   3.566   6.017  0.1818 -0.2623  0.4279
  120MOL   C29338611   1.101   3.683   5.943  0.0637  0.2999 -0.3186
  120MOL   C29438612   1.083   3.691   5.801 -0.5524 -0.3752  0.0086
  120MOL   C29538613   1.023   3.578   5.737  0.0323 -0.3326 -0.0827
  120MOL   C29638614   0.995   3.461   5.818 -0.0974 -0.2690  0.1479
  120MOL   C29738615   1.023   3.454   5.951  0.9228 -0.6145 -0.4861
  120MOL   H29838616   1.180   3.363   6.170  3.2283 -0.5829  0.0712
  120MOL   H29938617   1.304   3.478   6.161 -0.1083 -0.3658 -0.3923
  120MOL   H30038618   1.128   3.653   6.198 -1.0526  0.1771 -0.2675
  120MOL   H30138619   1.136   3.766   6.003 -1.9154  0.5917  0.4937
  120MOL   H30238620   1.122   3.777   5.750 -0.8894  0.8606  1.7686
  120MOL   H30338621   1.005   3.586   5.631 -0.3165  0.8834  0.0602
  120MOL   H30438622   0.959   3.370   5.772  1.2886 -1.2914  1.0761
  120MOL   H30538623   1.001   3.367   6.010  0.3268  0.2329  0.5783
  120MOL   C30638624   0.965   3.537   6.245 -0.0365  0.2994 -0.5413
  120MOL   C30738625   0.839   3.612   6.204  0.2731  0.4560  0.4478
  120MOL   C30838626   0.712   3.547   6.263 -0.1915  0.1906 -0.6284
  120MOL   C30938627   0.653   3.594   6.378 -0.0892 -0.1089  0.0536
  120MOL   C31038628   0.535   3.538   6.423  0.2828  0.6690  0.2359
  120MOL   C31138629   0.472   3.432   6.360  0.5882 -0.5368  0.3507
  120MOL   C31238630   0.544   3.380   6.251  0.0179  0.3309 -0.4377
  120MOL   C31338631   0.655   3.436   6.193 -0.0837  0.0258 -0.1196
  120MOL   H31438632   0.973   3.549   6.353  1.2493 -1.0675 -0.4677
  120MOL   H31538633   0.949   3.431   6.222 -1.4429  0.4375 -0.2233
  120MOL   H31638634   0.821   3.645   6.102 -0.0597  1.1107  0.7197
  120MOL   H31738635   0.701   3.678   6.427  1.8875 -1.5157  0.5774
  120MOL   H31838636   0.489   3.587   6.508  2.0802  0.3936  1.3803
  120MOL   H31938637   0.387   3.389   6.410  0.6326 -0.5950  0.3756
  120MOL   H32038638   0.495   3.293   6.210 -0.8128 -0.3812  2.0152
  120MOL   H32138639   0.706   3.402   6.104 -1.0177  0.8379 -0.9681
  120MOL   H32238640   0.852   3.708   6.254 -0.3105  2.0996 -2.4729
  121MOL     C138641   2.097   5.311   2.155  0.0536 -0.4207 -0.8242
  121MOL     C238642   2.201   5.267   2.055  0.8397 -0.5885  0.5201
  121MOL     C338643   2.197   5.127   2.004  0.2470  0.4748 -0.3108
  121MOL     C438644   2.077   5.066   1.960 -0.7340  0.2941  0.5025
  121MOL     C538645   2.082   4.947   1.884  0.6081  0.5144  0.3123
  121MOL     C638646   2.201   4.880   1.856 -0.2494  0.1477 -0.4020
  121MOL     C738647   2.324   4.940   1.903  0.0315  0.6178 -0.0910
  121MOL     C838648   2.320   5.062   1.975 -0.3499  1.2241  0.0355
  121MOL     H938649   2.124   5.413   2.183  0.3362 -0.1998 -1.8933
  121MOL    H1038650   1.996   5.309   2.114 -1.2090  4.0624  1.7051
  121MOL    H1138651   2.292   5.285   2.113  0.7524  1.4297  0.0628
  121MOL    H1238652   1.988   5.126   1.966 -0.9762 -0.0607  0.4689
  121MOL    H1338653   1.989   4.905   1.849  1.4088  1.1888 -2.7168
  121MOL    H1438654   2.211   4.786   1.804  3.0328 -1.1496  2.3305
  121MOL    H1538655   2.421   4.897   1.881 -1.0600 -0.5143 -3.0591
  121MOL    H1638656   2.415   5.100   2.009  0.6483 -0.7286 -0.4648
  121MOL    H1738657   2.102   5.248   2.244  1.5116  1.5692  0.5500
  121MOL    C1838658   2.185   5.359   1.930  0.1097  0.7176  0.3324
  121MOL    C1938659   2.265   5.492   1.943  1.1687  0.2294  0.2126
  121MOL    C2038660   2.410   5.462   1.973  0.3003  0.3337  1.1545
  121MOL    C2138661   2.473   5.511   2.088  0.0922  0.0812  0.3443
  121MOL    C2238662   2.604   5.478   2.117  0.5735 -0.2876  0.5408
  121MOL    C2338663   2.678   5.397   2.035  0.1541  0.6973 -0.2110
  121MOL    C2438664   2.621   5.345   1.918  0.4636 -0.4617  0.5044
  121MOL    C2538665   2.489   5.381   1.889 -0.2263 -0.5007  0.1277
  121MOL    H2638666   2.078   5.374   1.915  0.4357  0.4189 -2.6190
  121MOL    H2738667   2.201   5.308   1.835  0.6209 -0.8800  1.2598
  121MOL    H2838668   2.235   5.553   2.028  2.2967  2.1539 -0.7472
  121MOL    H2938669   2.429   5.577   2.161 -1.1660 -1.9805  1.4972
  121MOL    H3038670   2.661   5.514   2.201  1.8246 -2.2767  0.5731
  121MOL    H3138671   2.778   5.374   2.069 -0.5174 -0.0291  1.3290
  121MOL    H3238672   2.680   5.288   1.849  0.2530  0.5481 -0.5238
  121MOL    H3338673   2.448   5.337   1.799 -0.9576  1.4149 -0.4958
  121MOL    C3438674   2.249   5.560   1.812 -0.2714  0.2341  0.1363
  121MOL    C3538675   2.326   5.693   1.794  0.2026 -0.6017  0.0531
  121MOL    C3638676   2.302   5.751   1.656  0.5260  0.1426  0.0717
  121MOL    C3738677   2.393   5.719   1.558  0.2320 -0.5388  0.5788
  121MOL    C3838678   2.372   5.758   1.424  0.0681  0.5128 -0.5537
  121MOL    C3938679   2.269   5.847   1.398 -0.1754  0.0487  0.5759
  121MOL    C4038680   2.190   5.893   1.499  0.4118  0.4426  0.2718
  121MOL    C4138681   2.192   5.835   1.626 -0.1297 -0.3695 -0.0720
  121MOL    H4238682   2.143   5.581   1.799  0.2400  2.1834 -1.0852
  121MOL    H4338683   2.271   5.494   1.728  0.6369  3.3260 -2.1461
  121MOL    H4438684   2.432   5.670   1.805  0.3306  0.1381  0.4303
  121MOL    H4538685   2.478   5.653   1.570 -0.4967 -1.7306 -0.5863
  121MOL    H4638686   2.441   5.711   1.355 -0.2777 -0.2836 -0.3540
  121MOL    H4738687   2.266   5.892   1.300  2.4103 -0.6453  0.1415
  121MOL    H4838688   2.110   5.962   1.478 -1.1179 -1.2362  0.4800
  121MOL    H4938689   2.119   5.873   1.696 -0.1398 -0.7220  0.1098
  121MOL    C5038690   2.289   5.798   1.905  0.5892 -0.4785 -0.0722
  121MOL    C5138691   2.333   5.950   1.885  0.0233 -0.4662 -0.0317
  121MOL    C5238692   2.247   6.033   1.981 -0.4949 -0.0411 -0.2755
  121MOL    C5338693   2.234   5.994   2.114  0.3113  0.3555  0.3502
  121MOL    C5438694   2.159   6.071   2.211 -0.5049 -0.3456 -0.3672
  121MOL    C5538695   2.098   6.189   2.165  0.1972  0.6793 -0.1844
  121MOL    C5638696   2.099   6.222   2.030 -0.0319  0.2460  0.2114
  121MOL    C5738697   2.173   6.144   1.934 -0.8535 -0.9473 -0.3339
  121MOL    H5838698   2.314   5.773   2.008  3.0125 -1.1243 -0.7885
  121MOL    H5938699   2.180   5.792   1.904  0.6286 -1.5290  1.1428
  121MOL    H6038700   2.306   5.996   1.789  1.3423 -0.4330 -0.3964
  121MOL    H6138701   2.277   5.901   2.149 -1.0492 -0.8512 -1.0652
  121MOL    H6238702   2.139   6.029   2.308  1.8019 -0.1306  0.2397
  121MOL    H6338703   2.059   6.259   2.238 -0.4853  1.3244 -1.1414
  121MOL    H6438704   2.042   6.304   1.989 -1.1113 -1.1764 -1.1916
  121MOL    H6538705   2.179   6.181   1.833  3.0131  0.4495  0.3414
  121MOL    C6638706   2.483   5.970   1.910 -0.4797 -0.3515  0.0994
  121MOL    C6738707   2.570   5.983   1.784 -0.6554 -0.1306  0.6331
  121MOL    C6838708   2.528   6.098   1.690 -1.0681  0.2221  0.3419
  121MOL    C6938709   2.477   6.216   1.740 -1.0989  0.1793  0.2809
  121MOL    C7038710   2.436   6.320   1.652  0.2085 -0.1959 -0.8246
  121MOL    C7138711   2.430   6.299   1.512 -0.2056 -0.0762 -0.2352
  121MOL    C7238712   2.494   6.187   1.460  0.2552 -0.2763 -0.5107
  121MOL    C7338713   2.539   6.082   1.545 -0.1761 -0.4734 -0.3397
  121MOL    H7438714   2.511   5.881   1.968  1.3946 -0.8166 -1.4791
  121MOL    H7538715   2.498   6.053   1.979  0.4284 -0.8651  0.5302
  121MOL    H7638716   2.543   5.892   1.729 -2.5847  2.0066 -2.1094
  121MOL    H7738717   2.477   6.235   1.847  2.6590  1.9894  0.0599
  121MOL    H7838718   2.391   6.409   1.695  0.4433 -0.8848  0.8957
  121MOL    H7938719   2.385   6.372   1.446  0.3808  0.5830  0.0817
  121MOL    H8038720   2.503   6.175   1.353 -0.2740 -0.2109 -0.5630
  121MOL    H8138721   2.576   5.990   1.502  2.2973 -0.3306  1.3417
  121MOL    C8238722   2.718   5.994   1.816 -0.3078  0.3210 -0.0574
  121MOL    C8338723   2.797   5.864   1.841  0.0947  0.3945  0.9530
  121MOL    C8438724   2.780   5.764   1.722 -0.0661 -0.1621  0.2316
  121MOL    C8538725   2.745   5.631   1.747  0.1175  0.6092 -0.2535
  121MOL    C8638726   2.725   5.548   1.643  0.0198  0.1255 -0.2964
  121MOL    C8738727   2.757   5.584   1.511 -0.3555 -0.1278 -0.4086
  121MOL    C8838728   2.804   5.716   1.483 -1.1133 -0.4409  0.4689
  121MOL    C8938729   2.819   5.807   1.591 -0.0698 -0.0316 -0.1991
  121MOL    H9038730   2.725   6.073   1.891 -4.2839  1.5474 -0.8867
  121MOL    H9138731   2.776   6.027   1.730  0.0891  0.3578  0.2188
  121MOL    H9238732   2.752   5.831   1.934 -0.9170 -0.0194  0.3224
  121MOL    H9338733   2.743   5.600   1.851  0.6894  3.2634  0.5737
  121MOL    H9438734   2.699   5.445   1.661 -0.0894  0.2929  0.4903
  121MOL    H9538735   2.746   5.521   1.425 -1.2991  0.7098 -0.9134
  121MOL    H9638736   2.817   5.758   1.384  2.3014 -0.2435  0.9447
  121MOL    H9738737   2.838   5.911   1.570  2.4368 -0.4991 -0.3787
  121MOL    C9838738   2.946   5.887   1.872  0.5772 -0.1143 -0.0218
  121MOL    C9938739   2.982   5.972   1.995 -0.3598 -0.2722  0.2060
  121MOL   C10038740   2.897   5.935   2.115  0.6379 -0.2482  0.0097
  121MOL   C10138741   2.789   6.018   2.158  0.6373 -0.3104  0.8813
  121MOL   C10238742   2.712   5.981   2.267 -0.6582  0.1216 -0.0172
  121MOL   C10338743   2.739   5.865   2.337  0.7008 -0.0079  0.0390
  121MOL   C10438744   2.841   5.776   2.287  0.0316  0.1461  0.4049
  121MOL   C10538745   2.923   5.816   2.180 -0.4804  0.2063  0.0384
  121MOL   H10638746   2.994   5.940   1.790  1.8661  0.5284  1.1131
  121MOL   H10738747   2.991   5.789   1.882  1.6590  0.2772 -0.9475
  121MOL   H10838748   2.954   6.077   1.981 -1.5790 -0.4860  1.0250
  121MOL   H10938749   2.763   6.112   2.111 -0.9736 -2.0575 -1.8768
  121MOL   H11038750   2.627   6.038   2.303 -1.8398 -1.0333 -0.9024
  121MOL   H11138751   2.694   5.848   2.433  2.1540  1.7423  1.0451
  121MOL   H11238752   2.848   5.678   2.332 -1.7973 -1.0711 -1.8357
  121MOL   H11338753   2.999   5.746   2.146 -0.0076 -0.1364  1.7575
  121MOL   C11438754   3.131   5.977   2.036  0.1758  0.3991  0.8586
  121MOL   C11538755   3.213   6.071   1.952  0.0649  0.3015 -0.1205
  121MOL   C11638756   3.219   6.208   2.024 -0.1384 -0.2349  0.2918
  121MOL   C11738757   3.120   6.306   1.987  0.8094  0.4223 -0.5618
  121MOL   C11838758   3.128   6.440   2.026 -0.1595 -0.4831 -0.3077
  121MOL   C11938759   3.228   6.467   2.126 -0.2389 -1.2417  0.1753
  121MOL   C12038760   3.314   6.371   2.171  0.2916  0.6192 -0.3539
  121MOL   C12138761   3.315   6.239   2.124 -0.0245 -0.0031  0.2371
  121MOL   H12238762   3.175   5.878   2.022  0.0214  0.4136  0.2485
  121MOL   H12338763   3.130   6.013   2.138 -1.8814  3.7916 -0.2810
  121MOL   H12438764   3.164   6.092   1.856 -0.7708 -0.8566  0.0398
  121MOL   H12538765   3.043   6.277   1.917  0.4398 -1.0628  0.4404
  121MOL   H12638766   3.055   6.512   1.993 -0.6894 -0.8485  0.0469
  121MOL   H12738767   3.235   6.564   2.173 -0.8231 -1.4070  0.6082
  121MOL   H12838768   3.390   6.397   2.243  1.0340  0.2450 -0.9953
  121MOL   H12938769   3.388   6.168   2.159  0.1120  0.2296  0.4223
  121MOL   C13038770   3.357   6.027   1.927 -0.5298  0.0172 -0.3848
  121MOL   C13138771   3.369   5.895   1.841  0.2492 -0.3220 -0.4570
  121MOL   C13238772   3.293   5.907   1.709  0.2968 -0.4322 -0.1192
  121MOL   C13338773   3.232   5.791   1.655  0.6608  0.1264 -0.8636
  121MOL   C13438774   3.163   5.797   1.531 -0.0311  0.1199  0.1239
  121MOL   C13538775   3.164   5.914   1.450 -0.2099 -0.1118 -0.4733
  121MOL   C13638776   3.230   6.032   1.499 -0.6968 -0.0164  0.2494
  121MOL   C13738777   3.293   6.026   1.629 -0.6222 -0.3485  0.1092
  121MOL   H13838778   3.399   6.008   2.025  1.8002 -0.2505 -1.3933
  121MOL   H13938779   3.411   6.109   1.879  3.0451 -2.6776 -1.1658
  121MOL   H14038780   3.329   5.805   1.886 -1.9358  1.0777  0.4641
  121MOL   H14138781   3.228   5.700   1.713  0.7451 -0.3564 -1.6082
  121MOL   H14238782   3.114   5.709   1.493  2.6414 -1.7236  0.8258
  121MOL   H14338783   3.096   5.927   1.367  0.9561  1.1167 -1.2584
  121MOL   H14438784   3.234   6.124   1.442 -3.2540  0.2635  0.4589
  121MOL   H14538785   3.350   6.111   1.664  0.1387 -0.3710 -1.0197
  121MOL   C14638786   3.526   5.867   1.824 -0.1281 -0.3637  0.0787
  121MOL   C14738787   3.598   5.809   1.950  0.2540  0.6096 -0.2126
  121MOL   C14838788   3.526   5.684   2.001  0.9339 -0.1459 -0.3295
  121MOL   C14938789   3.480   5.683   2.134 -0.4982  0.3529  0.2722
  121MOL   C15038790   3.398   5.582   2.181  0.5836  0.4083 -0.4162
  121MOL   C15138791   3.359   5.480   2.095 -0.3532 -0.3043  0.4366
  121MOL   C15238792   3.403   5.475   1.964  1.0155  0.8705 -0.0975
  121MOL   C15338793   3.494   5.579   1.918  0.0819  0.1890  0.0007
  121MOL   H15438794   3.569   5.953   1.773 -0.1577  0.0329  0.7209
  121MOL   H15538795   3.537   5.794   1.743 -0.1985 -0.9265  0.5728
  121MOL   H15638796   3.583   5.880   2.031 -1.3985 -0.9338  0.8749
  121MOL   H15738797   3.515   5.755   2.207  1.1516 -1.4110  1.2852
  121MOL   H15838798   3.368   5.594   2.284  3.0141  4.1540 -0.0355
  121MOL   H15938799   3.290   5.403   2.128 -0.1073 -0.7401 -0.0432
  121MOL   H16038800   3.366   5.392   1.906 -2.2825  1.0293  1.6876
  121MOL   H16138801   3.535   5.578   1.818 -2.7878  0.5776 -1.2170
  121MOL   C16238802   3.752   5.778   1.932 -0.7418  0.1565 -0.1599
  121MOL   C16338803   3.830   5.897   1.874  0.3247  1.0212  0.0467
  121MOL   C16438804   3.836   6.010   1.977  0.1098  0.1465 -0.0160
  121MOL   C16538805   3.893   6.005   2.107 -0.1820 -0.1587 -0.2766
  121MOL   C16638806   3.882   6.115   2.197  0.1467  0.1432  0.4677
  121MOL   C16738807   3.820   6.231   2.156 -0.0389 -0.2560 -0.2743
  121MOL   C16838808   3.755   6.242   2.033  0.3240 -0.0599 -0.0863
  121MOL   C16938809   3.762   6.129   1.946  0.2558 -0.7460 -0.3903
  121MOL   H17038810   3.743   5.701   1.855  0.4920 -0.1727  0.0128
  121MOL   H17138811   3.803   5.741   2.021  0.8720  0.4149 -0.9529
  121MOL   H17238812   3.791   5.922   1.775  2.3442  3.1761 -0.2449
  121MOL   H17338813   3.945   5.918   2.145 -0.9038 -0.4233  0.1220
  121MOL   H17438814   3.940   6.117   2.288 -2.0257  1.9882  1.8733
  121MOL   H17538815   3.803   6.306   2.232 -2.2759 -0.9024 -0.1034
  121MOL   H17638816   3.699   6.333   2.017  1.6211  0.9158  0.8523
  121MOL   H17738817   3.705   6.137   1.855 -0.9682  0.1034  0.4476
  121MOL   C17838818   3.976   5.840   1.844 -0.2267  0.1986 -0.5546
  121MOL   C17938819   4.062   5.913   1.740  0.8676  0.1509  0.3820
  121MOL   C18038820   4.112   6.042   1.791 -0.0574  0.1076  0.2194
  121MOL   C18138821   4.031   6.157   1.761 -0.6414 -0.4143  0.7872
  121MOL   C18238822   4.069   6.278   1.820 -0.0743 -0.0107  0.4259
  121MOL   C18338823   4.187   6.291   1.890 -0.2609 -0.5378  0.1369
  121MOL   C18438824   4.264   6.178   1.918  0.0384 -0.2389  0.2906
  121MOL   C18538825   4.231   6.053   1.874  0.3025 -0.0523 -0.2789
  121MOL   H18638826   3.961   5.739   1.808  0.2371  0.0421 -0.2966
  121MOL   H18738827   4.030   5.817   1.935  1.9449 -0.7550 -2.0425
  121MOL   H18838828   3.994   5.940   1.660  2.5720 -1.2255 -1.5717
  121MOL   H18938829   3.944   6.150   1.699 -1.3325  1.3298  1.5262
  121MOL   H19038830   4.007   6.365   1.808  2.4804  1.7828 -0.2462
  121MOL   H19138831   4.224   6.386   1.926  1.1709 -1.3703  0.9070
  121MOL   H19238832   4.357   6.181   1.973 -0.9232  0.0045  1.9434
  121MOL   H19338833   4.286   5.967   1.910 -0.1699  0.2193  1.1076
  121MOL   C19438834   4.189   5.822   1.701  0.3612 -0.4321 -0.2925
  121MOL   C19538835   4.178   5.699   1.614  0.3785  0.3260 -0.0634
  121MOL   C19638836   4.114   5.740   1.481 -0.0140 -0.1633  0.5486
  121MOL   C19738837   4.187   5.829   1.395  0.1570 -0.5829 -0.0654
  121MOL   C19838838   4.139   5.860   1.265  0.2401 -0.1963 -0.3110
  121MOL   C19938839   4.021   5.796   1.221 -0.1921  0.2047  0.2983
  121MOL   C20038840   3.951   5.708   1.300  0.4233  0.1789 -0.7212
  121MOL   C20138841   3.999   5.678   1.430  0.0911 -0.2598  0.1440
  121MOL   H20238842   4.234   5.788   1.795  0.2189  1.9019  0.6382
  121MOL   H20338843   4.264   5.892   1.662  1.5209 -1.7420 -0.4709
  121MOL   H20438844   4.116   5.625   1.665  0.1283  0.4881 -0.1313
  121MOL   H20538845   4.285   5.868   1.420 -0.0159 -0.5070  0.5035
  121MOL   H20638846   4.196   5.915   1.192 -0.1471  0.8211  0.1394
  121MOL   H20738847   3.997   5.797   1.116  2.4390  1.0241 -0.3329
  121MOL   H20838848   3.861   5.665   1.259  0.3298  0.0564 -0.3883
  121MOL   H20938849   3.952   5.605   1.496  2.6560 -1.9219  0.1863
  121MOL   C21038850   4.302   5.623   1.575  0.5965  0.2005 -0.0076
  121MOL   C21138851   4.287   5.506   1.473  0.2773  0.7140 -0.6024
  121MOL   C21238852   4.418   5.483   1.399  0.7470 -0.8513  0.3798
  121MOL   C21338853   4.525   5.442   1.478 -0.2660 -0.2153 -0.3445
  121MOL   C21438854   4.640   5.386   1.410 -0.0551  0.6737 -0.1520
  121MOL   C21538855   4.639   5.382   1.267 -0.2574  0.1454  0.6673
  121MOL   C21638856   4.530   5.421   1.187 -0.7697 -0.0135 -0.2502
  121MOL   C21738857   4.421   5.468   1.258 -0.5715 -0.9287  0.4098
  121MOL   H21838858   4.359   5.582   1.659 -1.8697 -0.5703  1.3436
  121MOL   H21938859   4.362   5.693   1.517  0.7604  0.5800  0.6102
  121MOL   H22038860   4.216   5.519   1.391 -1.7205 -0.5474  0.8793
  121MOL   H22138861   4.522   5.438   1.585 -0.7530  0.0161 -0.3521
  121MOL   H22238862   4.726   5.356   1.467 -0.5419  0.4247  0.4639
  121MOL   H22338863   4.722   5.345   1.210  0.4419  0.2365  1.6141
  121MOL   H22438864   4.529   5.418   1.079 -2.5507  0.5979 -0.2687
  121MOL   H22538865   4.332   5.480   1.197 -0.1339  1.2732  0.1577
  121MOL   C22638866   4.223   5.380   1.547 -0.4219 -0.0434 -0.5351
  121MOL   C22738867   4.203   5.257   1.453 -0.5427  0.1866 -0.5073
  121MOL   C22838868   4.203   5.130   1.546 -0.1084 -0.8227 -0.2863
  121MOL   C22938869   4.092   5.103   1.625 -0.4187  0.7833 -0.3941
  121MOL   C23038870   4.098   4.994   1.711 -0.5314 -0.0815  0.0934
  121MOL   C23138871   4.211   4.908   1.714  0.1842  0.3328  0.6700
  121MOL   C23238872   4.326   4.935   1.636 -0.7204 -0.3986 -0.5688
  121MOL   C23338873   4.318   5.050   1.561  0.0776 -0.1016 -0.0650
  121MOL   H23438874   4.125   5.406   1.587 -0.8827 -1.7305 -0.5322
  121MOL   H23538875   4.285   5.340   1.628 -2.4882 -4.0779 -0.8185
  121MOL   H23638876   4.289   5.245   1.387 -1.0482 -0.3651 -1.0717
  121MOL   H23738877   4.002   5.164   1.621 -0.8739  0.2990  1.7274
  121MOL   H23838878   4.014   4.979   1.776  0.1130 -0.4739  0.8435
  121MOL   H23938879   4.213   4.828   1.786 -0.6571  0.9573  1.3970
  121MOL   H24038880   4.420   4.885   1.653  0.1562  1.7273  1.1422
  121MOL   H24138881   4.407   5.079   1.507  1.1330 -0.7634  1.3054
  121MOL   C24238882   4.074   5.266   1.369 -0.7469  0.0073  0.7789
  121MOL   C24338883   4.056   5.167   1.250  0.1339  0.2423  0.3903
  121MOL   C24438884   3.905   5.133   1.238  0.6824 -0.4124  0.7286
  121MOL   C24538885   3.848   5.026   1.313 -0.5762 -0.0616  0.2654
  121MOL   C24638886   3.711   5.008   1.294  0.1245  0.6261 -0.5995
  121MOL   C24738887   3.633   5.092   1.213 -0.6521 -0.0675 -0.0606
  121MOL   C24838888   3.692   5.202   1.145  0.0282 -0.6192 -0.7293
  121MOL   C24938889   3.830   5.223   1.158 -0.2405  0.0375  0.8526
  121MOL   H25038890   4.074   5.364   1.320 -2.0004 -0.8518 -0.9833
  121MOL   H25138891   3.983   5.263   1.430 -0.7194 -2.5358  0.7491
  121MOL   H25238892   4.110   5.073   1.262  0.6135  0.2793 -1.3614
  121MOL   H25338893   3.906   4.962   1.378 -0.7456  1.1082  1.5924
  121MOL   H25438894   3.652   4.927   1.334  0.6281 -1.2477 -3.5133
  121MOL   H25538895   3.526   5.078   1.202 -0.8485  0.5361  1.0478
  121MOL   H25638896   3.628   5.272   1.091 -0.2006  0.2606  0.6648
  121MOL   H25738897   3.874   5.309   1.110 -1.8803  0.8830  0.8111
  121MOL   C25838898   4.123   5.213   1.119  0.2303  0.6239 -0.6651
  121MOL   C25938899   4.105   5.116   0.994 -0.2217  0.3110  0.1292
  121MOL   C26038900   4.107   5.205   0.873  0.3237  0.3983 -0.2484
  121MOL   C26138901   4.213   5.297   0.859 -0.7910  0.4889 -0.1998
  121MOL   C26238902   4.239   5.357   0.732  0.1638  0.1586 -0.1461
  121MOL   C26338903   4.144   5.346   0.629 -0.5228 -0.2926 -0.0277
  121MOL   C26438904   4.037   5.259   0.648 -0.0221 -0.1428  0.1174
  121MOL   C26538905   4.016   5.185   0.771 -0.2637 -0.4399  0.2143
  121MOL   H26638906   4.229   5.236   1.130  0.3299  0.2691 -0.8919
  121MOL   H26738907   4.082   5.313   1.105 -0.4997  0.5775  0.9800
  121MOL   H26838908   4.008   5.069   1.002  0.3960 -1.3670 -1.6850
  121MOL   H26938909   4.269   5.335   0.943  0.0330  2.5693 -1.6436
  121MOL   H27038910   4.321   5.427   0.728 -1.7603  2.3636 -3.2513
  121MOL   H27138911   4.150   5.417   0.548 -2.1856 -1.0019 -0.7881
  121MOL   H27238912   3.956   5.246   0.577 -2.7838  3.3769  2.4327
  121MOL   H27338913   3.936   5.113   0.781 -0.4630 -0.2589 -0.0666
  121MOL   C27438914   4.202   5.000   0.991 -0.1320 -0.4920 -0.0650
  121MOL   C27538915   4.160   4.881   0.909  0.3988  0.5972  0.5737
  121MOL   C27638916   4.257   4.863   0.794 -0.2723 -0.4491 -0.1044
  121MOL   C27738917   4.225   4.929   0.671 -0.2574 -0.2778  0.2869
  121MOL   C27838918   4.317   4.920   0.566  0.5630 -0.0837  0.2118
  121MOL   C27938919   4.443   4.868   0.587 -0.6582  0.8577  0.3642
  121MOL   C28038920   4.475   4.797   0.704  0.0172  0.1858 -0.2853
  121MOL   C28138921   4.383   4.797   0.809 -0.0707 -0.6035 -0.8321
  121MOL   H28238922   4.216   4.963   1.092  0.9132 -2.1383 -0.7782
  121MOL   H28338923   4.302   5.042   0.976 -0.1435 -0.4328  0.0265
  121MOL   H28438924   4.069   4.889   0.850  1.0953 -0.3459 -0.6786
  121MOL   H28538925   4.128   4.973   0.657  0.9125  1.2964 -3.2592
  121MOL   H28638926   4.301   4.965   0.470 -1.2117 -1.2673 -0.0607
  121MOL   H28738927   4.522   4.863   0.513 -0.2584  3.2925  0.5832
  121MOL   H28838928   4.568   4.744   0.716 -0.7619 -0.8183  1.6373
  121MOL   H28938929   4.405   4.755   0.906 -1.1594  0.3077 -0.1763
  121MOL   C29038930   4.151   4.752   0.984  0.6367  0.3060  0.2771
  121MOL   C29138931   4.031   4.740   1.080  0.7272  0.2010  0.1855
  121MOL   C29238932   3.901   4.721   1.015  0.2722 -0.1448  0.1888
  121MOL   C29338933   3.869   4.598   0.952  0.3499 -0.0912 -1.0482
  121MOL   C29438934   3.737   4.573   0.912  0.1001  0.0929 -0.5144
  121MOL   C29538935   3.636   4.669   0.934 -0.2796  0.0126 -0.9460
  121MOL   C29638936   3.665   4.784   1.007  0.4820  0.1747  0.1102
  121MOL   C29738937   3.798   4.815   1.031 -0.1185 -0.3032 -0.6296
  121MOL   H29838938   4.243   4.751   1.043  0.0478  0.6899  1.2126
  121MOL   H29938939   4.162   4.664   0.921  0.9404  1.2064 -0.9362
  121MOL   H30038940   4.006   4.831   1.134 -3.0507 -0.3870 -0.4124
  121MOL   H30138941   3.951   4.530   0.937  1.0029  0.8490 -1.8676
  121MOL   H30238942   3.709   4.486   0.855 -0.5710  0.8553 -1.3783
  121MOL   H30338943   3.536   4.641   0.904 -0.6784 -0.1968  0.5288
  121MOL   H30438944   3.587   4.855   1.031 -1.2616 -1.1651 -1.4469
  121MOL   H30538945   3.818   4.913   1.071  1.5101  0.3358 -2.8954
  121MOL   C30638946   4.055   4.636   1.195 -0.3971  0.8928  0.1656
  121MOL   C30738947   3.944   4.632   1.307 -0.6190  0.0328 -0.3007
  121MOL   C30838948   3.998   4.562   1.436  0.3650 -0.5680  0.6779
  121MOL   C30938949   3.985   4.422   1.455 -0.1649  0.4844  0.3489
  121MOL   C31038950   4.036   4.363   1.573 -0.7907 -0.0205  0.4382
  121MOL   C31138951   4.088   4.445   1.677  0.2259  0.4351 -0.0287
  121MOL   C31238952   4.098   4.585   1.660 -0.0503 -0.2945 -0.1540
  121MOL   C31338953   4.053   4.647   1.533  0.0230 -0.2088 -0.6364
  121MOL   H31438954   4.142   4.674   1.249 -1.6090  1.0393  2.0568
  121MOL   H31538955   4.087   4.539   1.157  2.7458  1.1216  2.0184
  121MOL   H31638956   3.859   4.576   1.269  0.0426  1.0614 -3.4494
  121MOL   H31738957   3.933   4.354   1.388  1.8473 -2.3958  1.6094
  121MOL   H31838958   4.028   4.258   1.601 -0.1949 -0.3591 -0.6357
  121MOL   H31938959   4.123   4.422   1.776  0.1591  0.1192 -0.0802
  121MOL   H32038960   4.146   4.634   1.743 -0.9565 -2.3601  1.6394
  121MOL   H32138961   4.062   4.753   1.512 -0.8013 -0.5699 -2.9180
  121MOL   H32238962   3.915   4.728   1.350  0.6836  0.4617 -0.3467
  122MOL     C138963   0.058   4.812   8.084  0.4326 -0.6763  0.0735
  122MOL     C238964   8.086   4.696   8.025  0.1700 -0.1208  0.2175
  122MOL     C338965   0.065   4.619   7.934 -0.0205  0.5725 -0.1124
  122MOL     C438966   0.182   4.563   7.987 -0.1946  0.6372 -0.0977
  122MOL     C538967   0.276   4.488   7.910 -0.4314  0.5476  0.1465
  122MOL     C638968   0.254   4.487   7.772 -0.9462  0.4008 -0.4831
  122MOL     C738969   0.141   4.542   7.715  0.4031  0.2882  0.9095
  122MOL     C838970   0.046   4.608   7.800  0.2693 -0.3480  0.5672
  122MOL     H938971   0.157   4.795   0.011 -0.1003  0.8842  1.9956
  122MOL    H1038972   0.085   4.874   7.999 -2.2510  2.1387  1.1739
  122MOL    H1138973   8.014   4.737   7.953  0.6146 -0.6124 -0.5064
  122MOL    H1238974   0.195   4.572   8.094 -0.0040 -0.6636 -0.0004
  122MOL    H1338975   0.356   4.424   7.944  0.2695 -0.3845 -3.0375
  122MOL    H1438976   0.324   4.441   7.704 -1.6648 -0.9240 -0.3251
  122MOL    H1538977   0.116   4.539   7.610 -2.4049 -2.1880  1.5530
  122MOL    H1638978   8.070   4.642   7.752 -0.0851  0.0844  1.5123
  122MOL    H1738979   8.104   4.872   0.029 -1.6982 -2.0839 -0.8712
  122MOL    C1838980   8.014   4.607   0.018  0.2037 -0.4037  0.5452
  122MOL    C1938981   7.894   4.681   0.075  0.3418  0.2516  0.4294
  122MOL    C2038982   7.804   4.746   8.087 -0.3754  0.0918  0.9903
  122MOL    C2138983   7.810   4.890   8.072  0.0138  0.6788 -0.2462
  122MOL    C2238984   7.722   4.953   7.981 -0.8379  0.3602  0.3530
  122MOL    C2338985   7.644   4.882   7.891 -0.5631 -0.2974  0.0311
  122MOL    C2438986   7.652   4.742   7.890  0.4072 -0.1362  0.1818
  122MOL    C2538987   7.726   4.677   7.994 -0.0088  0.2784  0.3453
  122MOL    H2638988   8.089   4.569   0.087  1.5015  0.3379 -0.4459
  122MOL    H2738989   7.967   4.530   8.072 -1.7109  0.5389  0.8006
  122MOL    H2838990   7.927   4.766   0.134 -2.2792  1.0565  0.8060
  122MOL    H2938991   7.862   4.944   0.035  0.7093  0.2838 -0.4335
  122MOL    H3038992   7.707   5.059   7.989  0.1826  0.4174  1.9718
  122MOL    H3138993   7.562   4.928   7.837  0.6604 -0.2536 -1.8410
  122MOL    H3238994   7.594   4.685   7.819  2.6860 -0.8304 -1.1689
  122MOL    H3338995   7.731   4.570   7.994 -2.6640  0.1104  0.5574
  122MOL    C3438996   7.813   4.598   0.180 -0.1632 -0.9833 -0.3886
  122MOL    C3538997   7.739   4.688   0.278 -0.3837 -0.2918 -0.5829
  122MOL    C3638998   7.631   4.607   0.339  0.3872  0.4398 -0.6753
  122MOL    C3738999   7.494   4.619   0.300 -0.5703 -0.0665 -0.2762
  122MOL    C3839000   7.401   4.551   0.378  0.8474 -0.3317  0.5606
  122MOL    C3939001   7.439   4.452   0.474  0.2435 -0.0435  0.1148
  122MOL    C4039002   7.571   4.433   0.504 -0.4464 -0.4827  0.1854
  122MOL    C4139003   7.663   4.513   0.440 -0.2687 -0.4032  0.1564
  122MOL    H4239004   7.886   4.537   0.233  0.7052  0.1791 -0.2280
  122MOL    H4339005   7.747   4.524   0.134  0.3256 -0.4761 -1.9222
  122MOL    H4439006   7.684   4.769   0.229  1.6014  1.7726  0.5102
  122MOL    H4539007   7.458   4.687   0.224 -1.7356  2.0176  2.0577
  122MOL    H4639008   7.298   4.579   0.362  1.0846  0.1691 -0.1126
  122MOL    H4739009   7.369   4.406   0.541 -0.7371  3.0270  1.3031
  122MOL    H4839010   7.595   4.372   0.589 -0.9110 -2.1572 -0.8630
  122MOL    H4939011   7.763   4.500   0.478 -0.8568 -0.9311  1.5363
  122MOL    C5039012   7.822   4.754   0.390 -0.4860  0.0687 -0.0207
  122MOL    C5139013   7.751   4.847   0.490  0.6492 -0.7545  0.1484
  122MOL    C5239014   7.830   4.848   0.615 -0.1130 -0.2206  0.2438
  122MOL    C5339015   7.961   4.898   0.634 -0.7146  0.0178  0.2271
  122MOL    C5439016   8.027   4.904   0.756  0.2511  0.0035  0.2584
  122MOL    C5539017   7.955   4.859   0.870  0.1734  0.0408  0.1545
  122MOL    C5639018   7.828   4.807   0.860  0.6197 -1.2804  0.2697
  122MOL    C5739019   7.766   4.800   0.731  0.7304  0.4668  0.4594
  122MOL    H5839020   7.914   4.799   0.353 -1.6995  1.7401 -1.0564
  122MOL    H5939021   7.877   4.677   0.445 -1.6393 -0.0597  0.9763
  122MOL    H6039022   7.658   4.794   0.507  0.8768 -1.2204 -0.0579
  122MOL    H6139023   8.016   4.944   0.554 -0.5484  0.8070  0.7816
  122MOL    H6239024   0.014   4.940   0.757  0.8926 -1.7748  0.5787
  122MOL    H6339025   7.990   4.846   0.971  0.1797  0.1527  0.1665
  122MOL    H6439026   7.773   4.767   0.944  0.4228 -1.5015  0.0370
  122MOL    H6539027   7.667   4.760   0.718  0.2898  0.9632  2.2007
  122MOL    C6639028   7.703   4.984   0.433 -0.2574  0.3133  0.1766
  122MOL    C6739029   7.570   5.039   0.482 -0.4556 -0.1472 -0.7628
  122MOL    C6839030   7.581   5.172   0.558  0.4722  0.2230 -0.4721
  122MOL    C6939031   7.558   5.165   0.698 -0.2522  0.0055  0.5660
  122MOL    C7039032   7.564   5.286   0.777  0.5028  0.6409  0.5530
  122MOL    C7139033   7.574   5.409   0.707  0.3290  0.4493 -0.0792
  122MOL    C7239034   7.592   5.410   0.566  0.1886  0.0539 -0.0116
  122MOL    C7339035   7.597   5.291   0.497 -0.5995  0.2815 -0.2372
  122MOL    H7439036   7.705   4.985   0.324  1.7478 -0.0771  0.1952
  122MOL    H7539037   7.784   5.055   0.451 -0.5964  0.8059 -0.2146
  122MOL    H7639038   7.532   4.968   0.556  0.9253  2.1897  2.2888
  122MOL    H7739039   7.555   5.067   0.743 -1.1211 -1.4276 -2.4693
  122MOL    H7839040   7.542   5.280   0.882  1.7649 -1.6916  0.7105
  122MOL    H7939041   7.575   5.504   0.760 -0.6789 -0.0294  0.8129
  122MOL    H8039042   7.611   5.502   0.513 -1.6826  0.4834  0.0304
  122MOL    H8139043   7.608   5.308   0.390 -0.9941 -0.6750 -0.4328
  122MOL    C8239044   7.462   5.043   0.371  0.8123 -1.1298 -0.5195
  122MOL    C8339045   7.316   5.089   0.410 -0.1362 -0.3506 -0.3278
  122MOL    C8439046   7.236   5.118   0.283 -0.4679 -0.4309  0.6935
  122MOL    C8539047   7.218   5.025   0.180 -0.1381  0.8206  0.1915
  122MOL    C8639048   7.152   5.053   0.060  0.0927  0.4596  0.5452
  122MOL    C8739049   7.095   5.179   0.038 -0.5955  0.1438 -0.0810
  122MOL    C8839050   7.106   5.277   0.141  0.5845  0.2435  0.7974
  122MOL    C8939051   7.176   5.247   0.260 -0.1204  0.1035 -0.2789
  122MOL    H9039052   7.451   4.944   0.326  2.2527 -0.7281 -1.7923
  122MOL    H9139053   7.499   5.114   0.298  0.9214  0.0802  0.6888
  122MOL    H9239054   7.320   5.186   0.458 -0.0161 -0.8582  0.6912
  122MOL    H9339055   7.254   4.923   0.184 -1.3585  0.4086  0.9058
  122MOL    H9439056   7.141   4.972   8.105  0.6459  0.7718  0.0968
  122MOL    H9539057   7.038   5.195   8.063 -1.8586 -1.7000  0.3637
  122MOL    H9639058   7.067   5.372   0.110 -1.3200 -0.8588 -0.3028
  122MOL    H9739059   7.173   5.322   0.338  0.5196 -2.4051  2.2256
  122MOL    C9839060   7.234   4.998   0.506  0.3498 -0.0892  0.6289
  122MOL    C9939061   7.135   5.072   0.594  0.3558 -0.0908 -0.2206
  122MOL   C10039062   7.045   4.980   0.670 -0.1765 -0.5194 -0.1779
  122MOL   C10139063   7.091   4.890   0.778 -0.6029  0.1587  0.4215
  122MOL   C10239064   7.002   4.808   0.851  0.3522 -0.0416 -0.2122
  122MOL   C10339065   6.862   4.817   0.820 -0.1938 -0.2772  0.2741
  122MOL   C10439066   6.815   4.891   0.710  0.3416  0.4702 -0.5937
  122MOL   C10539067   6.905   4.971   0.635  0.5754  0.6346  0.3838
  122MOL   H10639068   7.309   4.956   0.573  2.4276 -0.8004 -2.0489
  122MOL   H10739069   7.180   4.922   0.450 -0.8414  0.4954  0.9665
  122MOL   H10839070   7.070   5.132   0.531 -0.1340  1.6463  1.8755
  122MOL   H10939071   7.193   4.884   0.813 -1.2279  3.7813  3.2557
  122MOL   H11039072   7.039   4.742   0.928 -0.6558  0.7070  0.9439
  122MOL   H11139073   6.792   4.765   0.883  1.9546 -1.4275  1.7961
  122MOL   H11239074   6.707   4.889   0.703  0.1452 -0.4124  1.9557
  122MOL   H11339075   6.867   5.030   0.553  0.7441 -0.7273 -0.6717
  122MOL   C11439076   7.201   5.174   0.696  1.0737  0.1662  0.9196
  122MOL   C11539077   7.124   5.239   0.813  0.5949  0.4490 -0.5858
  122MOL   C11639078   7.223   5.303   0.912 -0.4400  0.8035 -0.5506
  122MOL   C11739079   7.253   5.437   0.916  0.6902 -0.7197  0.6960
  122MOL   C11839080   7.326   5.497   1.023 -0.4027  0.3266  0.6795
  122MOL   C11939081   7.363   5.421   1.129  0.6917  0.5527  0.7201
  122MOL   C12039082   7.330   5.282   1.136 -0.8781  0.5340  0.7184
  122MOL   C12139083   7.261   5.223   1.028  0.4543  0.0593 -0.2383
  122MOL   H12239084   7.257   5.254   0.648  0.5526 -0.4306 -0.7171
  122MOL   H12339085   7.271   5.107   0.745  0.2858 -0.1701  1.5997
  122MOL   H12439086   7.073   5.166   0.876 -0.5284  2.6538  1.1427
  122MOL   H12539087   7.222   5.496   0.831  1.8993 -0.7183  0.2465
  122MOL   H12639088   7.340   5.603   1.031 -1.4225  0.5944 -0.7975
  122MOL   H12739089   7.403   5.473   1.215  1.5818 -1.3321  1.4825
  122MOL   H12839090   7.349   5.231   1.229 -1.3381 -0.5511  0.2240
  122MOL   H12939091   7.237   5.118   1.027 -1.2250  0.4074  1.4973
  122MOL   C13039092   7.011   5.340   0.767  0.6670 -0.5840  0.4307
  122MOL   C13139093   6.912   5.364   0.884 -0.1535 -0.0840 -0.1783
  122MOL   C13239094   6.846   5.504   0.872 -0.1283  0.4968 -0.3204
  122MOL   C13339095   6.875   5.602   0.963 -0.6145  0.3873 -0.1512
  122MOL   C13439096   6.800   5.727   0.959 -0.3149  0.3741 -0.6700
  122MOL   C13539097   6.705   5.760   0.860  0.3722 -0.1926  0.1382
  122MOL   C13639098   6.666   5.650   0.776  0.1555  0.5798  0.1879
  122MOL   C13739099   6.735   5.529   0.786  0.2997  0.8189  0.1573
  122MOL   H13839100   6.951   5.297   0.687  1.5201 -1.4900  0.2616
  122MOL   H13939101   7.046   5.434   0.724 -3.5091  0.0140 -1.9634
  122MOL   H14039102   6.980   5.378   0.969 -1.0925  0.7114  0.4568
  122MOL   H14139103   6.956   5.589   1.033 -0.7410 -1.7468 -0.3641
  122MOL   H14239104   6.825   5.795   1.039 -0.5905  0.1625 -0.4058
  122MOL   H14339105   6.651   5.854   0.860 -0.8115 -0.8710 -0.1802
  122MOL   H14439106   6.585   5.668   0.706  0.4597  0.0946 -0.2901
  122MOL   H14539107   6.711   5.451   0.716 -2.8931  1.9407 -0.0978
  122MOL   C14639108   6.808   5.244   0.910  0.1547 -0.6743  0.4213
  122MOL   C14739109   6.757   5.237   1.058 -0.1956  0.4968  0.3368
  122MOL   C14839110   6.626   5.150   1.066 -0.2871  0.4215 -0.0687
  122MOL   C14939111   6.499   5.205   1.095  0.5406 -0.3695 -0.1833
  122MOL   C15039112   6.380   5.127   1.090  0.8235 -0.6523  0.7545
  122MOL   C15139113   6.395   4.993   1.053  0.3655 -0.0920  0.1045
  122MOL   C15239114   6.523   4.941   1.016 -0.0989 -0.0077  0.5125
  122MOL   C15339115   6.635   5.024   1.018  0.8387 -0.2988 -0.8418
  122MOL   H15439116   6.847   5.146   0.884  1.4937 -0.1378  0.3835
  122MOL   H15539117   6.722   5.253   0.844  0.0156 -1.4042  0.5029
  122MOL   H15639118   6.737   5.341   1.087  0.6717  1.2830 -1.8298
  122MOL   H15739119   6.487   5.305   1.132 -1.1646 -0.3184 -0.8378
  122MOL   H15839120   6.281   5.168   1.103  0.9348  0.7944 -2.5218
  122MOL   H15939121   6.306   4.931   1.060  0.5450 -0.5645 -1.5057
  122MOL   H16039122   6.539   4.837   0.991  2.0154  0.9022 -2.1683
  122MOL   H16139123   6.726   4.982   0.978  2.0303  1.0636  0.3971
  122MOL   C16239124   6.860   5.187   1.158 -0.2683  0.2646  0.0485
  122MOL   C16339125   6.874   5.259   1.291  0.7245  0.2101 -0.6911
  122MOL   C16439126   6.746   5.275   1.377  0.1195 -0.0279 -0.9688
  122MOL   C16539127   6.693   5.174   1.453 -0.1762  0.8586  0.5766
  122MOL   C16639128   6.591   5.200   1.548  0.0932 -0.1645 -0.2868
  122MOL   C16739129   6.533   5.326   1.560  0.4302  1.0324 -0.4676
  122MOL   C16839130   6.570   5.429   1.474  0.2616 -0.5700 -0.3598
  122MOL   C16939131   6.675   5.402   1.379  0.5285 -0.4012 -0.8382
  122MOL   H17039132   6.955   5.200   1.106 -0.9448  0.5669 -1.1217
  122MOL   H17139133   6.852   5.079   1.166 -1.0353  0.3098 -0.1474
  122MOL   H17239134   6.912   5.361   1.285  0.8745  0.1793 -0.2530
  122MOL   H17339135   6.740   5.077   1.457  0.9411  1.3233 -0.7135
  122MOL   H17439136   6.538   5.123   1.603  1.1147  0.7130  2.0056
  122MOL   H17539137   6.445   5.333   1.622  0.4904 -0.2304 -0.2092
  122MOL   H17639138   6.511   5.520   1.475  0.7469 -0.2213 -2.4461
  122MOL   H17739139   6.697   5.486   1.315 -0.6879 -0.0813 -0.8423
  122MOL   C17839140   6.990   5.189   1.367  0.3312 -0.2964 -0.2340
  122MOL   C17939141   7.029   5.236   1.504 -0.3308  0.3207 -1.0804
  122MOL   C18039142   7.083   5.116   1.576 -0.1358 -0.0975 -0.7961
  122MOL   C18139143   7.019   5.060   1.684  0.4538 -0.4434  0.1104
  122MOL   C18239144   7.067   4.940   1.744 -0.5736  0.3757 -0.0514
  122MOL   C18339145   7.189   4.887   1.699  0.2495  0.1944  0.8247
  122MOL   C18439146   7.260   4.952   1.593 -0.6840  0.1677 -0.0013
  122MOL   C18539147   7.210   5.071   1.535 -0.0509 -0.0545 -0.1850
  122MOL   H18639148   7.082   5.171   1.311  0.0381 -2.7815  0.0250
  122MOL   H18739149   6.941   5.092   1.375  0.6347 -0.3723  0.7247
  122MOL   H18839150   6.944   5.279   1.558  2.4508  3.8766  0.6175
  122MOL   H18939151   6.927   5.100   1.725  0.2811  0.6474 -1.2938
  122MOL   H19039152   7.011   4.893   1.823  0.1512 -1.7021 -0.7578
  122MOL   H19139153   7.226   4.795   1.741 -0.3611 -0.2300  0.4500
  122MOL   H19239154   7.345   4.903   1.548  0.4308  1.4111  0.6897
  122MOL   H19339155   7.269   5.118   1.458  0.4656 -1.8100 -0.8994
  122MOL   C19439156   7.120   5.366   1.493  0.3914 -0.2707 -0.5984
  122MOL   C19539157   7.140   5.430   1.629  0.0577  0.0267  0.0166
  122MOL   C19639158   7.240   5.358   1.719  0.7466 -0.2384 -0.7727
  122MOL   C19739159   7.202   5.321   1.855  0.8839  0.0928  0.2432
  122MOL   C19839160   7.295   5.259   1.937 -0.2042 -1.2244 -0.1307
  122MOL   C19939161   7.434   5.243   1.894  0.1874 -0.1394 -0.8740
  122MOL   C20039162   7.470   5.291   1.764  0.1850  0.3872  0.9054
  122MOL   C20139163   7.372   5.351   1.683 -0.2317 -0.2250 -0.1093
  122MOL   H20239164   7.072   5.428   1.417 -1.2516  0.6224  1.1141
  122MOL   H20339165   7.212   5.340   1.441 -0.3954 -1.9183 -1.2009
  122MOL   H20439166   7.039   5.427   1.669  0.8564 -2.6116  1.9743
  122MOL   H20539167   7.101   5.330   1.890  0.1738 -0.9773 -1.4780
  122MOL   H20639168   7.271   5.205   2.028  0.4363 -0.2665  0.6207
  122MOL   H20739169   7.508   5.195   1.956  1.4053  0.3406 -1.9286
  122MOL   H20839170   7.572   5.280   1.732 -0.3766 -4.3432  0.2812
  122MOL   H20939171   7.407   5.382   1.586 -2.2726 -0.3426 -0.9058
  122MOL   C21039172   7.163   5.583   1.616  0.4959 -0.7068  0.3628
  122MOL   C21139173   7.127   5.659   1.744 -0.2942 -0.7574 -0.1833
  122MOL   C21239174   7.245   5.730   1.801 -0.5851 -0.0313  0.3956
  122MOL   C21339175   7.296   5.848   1.739  0.1173 -0.2124  0.2166
  122MOL   C21439176   7.416   5.901   1.788 -0.3598  0.3848 -0.5291
  122MOL   C21539177   7.480   5.846   1.899 -0.9157 -0.4501 -0.0661
  122MOL   C21639178   7.424   5.737   1.965  0.3077 -0.4259 -0.4833
  122MOL   C21739179   7.309   5.679   1.922  0.3773  0.3109  0.1333
  122MOL   H21839180   7.092   5.622   1.542  0.1727  0.1841  1.1303
  122MOL   H21939181   7.268   5.602   1.594 -0.1119  2.8974  0.2822
  122MOL   H22039182   7.102   5.588   1.823 -0.4481  0.7388  1.1346
  122MOL   H22139183   7.257   5.880   1.644 -2.7746 -1.5743  0.8733
  122MOL   H22239184   7.475   5.979   1.741  1.6203 -0.6850  0.1155
  122MOL   H22339185   7.574   5.889   1.927 -1.0934  1.8267 -2.7512
  122MOL   H22439186   7.479   5.683   2.041  0.8038  1.4784  0.5543
  122MOL   H22539187   7.283   5.582   1.963 -1.2405  0.0004 -1.5762
  122MOL   C22639188   7.017   5.757   1.720  0.2903  0.2378 -0.5956
  122MOL   C22739189   6.871   5.693   1.706  0.4911 -0.0988  0.2894
  122MOL   C22839190   6.829   5.615   1.830 -0.2726  0.3067 -0.8655
  122MOL   C22939191   6.853   5.662   1.963 -0.0414  0.2695 -0.0591
  122MOL   C23039192   6.831   5.580   2.073 -0.0289 -0.2809 -0.4234
  122MOL   C23139193   6.791   5.448   2.052  0.0166  0.0464 -0.1190
  122MOL   C23239194   6.760   5.401   1.924  0.1729 -0.4015  0.6200
  122MOL   C23339195   6.778   5.484   1.813  0.6585  0.8330  0.3425
  122MOL   H23439196   7.022   5.815   1.628 -2.2369  1.3740 -0.0574
  122MOL   H23539197   7.024   5.829   1.801 -0.2553 -0.4642  0.0852
  122MOL   H23639198   6.864   5.628   1.618 -1.2309 -0.7503  0.8838
  122MOL   H23739199   6.886   5.761   1.992 -1.7290  1.1173 -0.9910
  122MOL   H23839200   6.848   5.622   2.172 -0.0044  1.0133 -0.9630
  122MOL   H23939201   6.770   5.385   2.137  0.5049 -0.1427 -0.1378
  122MOL   H24039202   6.718   5.302   1.919 -1.7329  0.2252  3.1936
  122MOL   H24139203   6.759   5.451   1.712 -1.1152 -0.7581  1.1578
  122MOL   C24239204   6.771   5.811   1.674 -0.3943 -0.7739 -0.1902
  122MOL   C24339205   6.628   5.772   1.651 -0.7832  0.6346  0.1827
  122MOL   C24439206   6.541   5.740   1.782 -0.4697  0.3468 -0.5333
  122MOL   C24539207   6.515   5.839   1.876 -0.2476 -0.4192  0.2953
  122MOL   C24639208   6.450   5.810   2.000 -0.0295  0.1394 -0.2107
  122MOL   C24739209   6.405   5.680   2.022  0.0598  0.2109 -0.2916
  122MOL   C24839210   6.424   5.582   1.921  0.0084  0.0419 -0.7914
  122MOL   C24939211   6.499   5.611   1.805 -0.4889  0.8630 -0.2253
  122MOL   H25039212   6.811   5.857   1.583 -2.0842 -1.1271 -1.1292
  122MOL   H25139213   6.774   5.881   1.758  0.5905  2.4637 -2.8024
  122MOL   H25239214   6.635   5.680   1.594  0.5535  0.0726  1.2278
  122MOL   H25339215   6.549   5.939   1.854 -3.0853  0.1317 -1.8820
  122MOL   H25439216   6.452   5.875   2.087 -1.9162  1.0614 -0.8316
  122MOL   H25539217   6.359   5.651   2.115  2.3899 -1.5007  0.3814
  122MOL   H25639218   6.377   5.488   1.943 -2.3310  1.4221  0.1924
  122MOL   H25739219   6.520   5.525   1.744 -0.4098  0.8118 -0.1242
  122MOL   C25839220   6.553   5.882   1.572 -0.5436 -0.6243  0.3296
  122MOL   C25939221   6.598   5.906   1.424 -0.3255  0.1293  0.1866
  122MOL   C26039222   6.524   5.812   1.329 -0.6599 -0.3696 -1.0209
  122MOL   C26139223   6.383   5.805   1.336 -0.7613 -0.3177 -0.7849
  122MOL   C26239224   6.305   5.716   1.253 -0.0742 -0.3230 -0.1264
  122MOL   C26339225   6.377   5.638   1.163  0.2741 -0.0054 -0.0579
  122MOL   C26439226   6.518   5.645   1.152  0.1737 -0.3931  0.5531
  122MOL   C26539227   6.587   5.733   1.231 -0.1053  0.0292 -0.1817
  122MOL   H26639228   6.548   5.979   1.621  0.8789 -0.7189  0.6747
  122MOL   H26739229   6.451   5.843   1.580 -0.3509 -0.9389  1.2860
  122MOL   H26839230   6.702   5.878   1.410 -0.5489  0.0720 -1.4173
  122MOL   H26939231   6.331   5.857   1.415 -0.3129 -1.0707  0.0186
  122MOL   H27039232   6.197   5.722   1.259 -0.0004  0.3592  0.5864
  122MOL   H27139233   6.316   5.574   1.102 -0.8221  0.0190  0.9990
  122MOL   H27239234   6.565   5.591   1.072 -0.8331 -2.2306  1.1520
  122MOL   H27339235   6.695   5.739   1.233 -0.0914 -0.4893  1.3144
  122MOL   C27439236   6.575   6.059   1.378 -0.4657 -0.1977 -0.0748
  122MOL   C27539237   6.672   6.166   1.448 -0.3926  0.4162 -1.4137
  122MOL   C27639238   6.819   6.128   1.446 -0.0006  0.5220 -0.0079
  122MOL   C27739239   6.879   6.090   1.325  0.4825 -0.5823  1.0766
  122MOL   C27839240   7.014   6.044   1.324  0.6209  0.0037 -0.2185
  122MOL   C27939241   7.085   6.038   1.444  0.5659 -0.2784  0.3717
  122MOL   C28039242   7.027   6.064   1.565 -0.0078 -0.1538  0.1342
  122MOL   C28139243   6.893   6.113   1.566 -0.3549  0.4342 -0.0855
  122MOL   H28239244   6.468   6.075   1.391 -0.6167 -0.7398 -0.6047
  122MOL   H28339245   6.596   6.071   1.272 -3.3901 -1.9806 -0.9113
  122MOL   H28439246   6.654   6.169   1.555 -1.0638 -0.9816 -1.4711
  122MOL   H28539247   6.824   6.097   1.233  1.7987  1.9947  0.4344
  122MOL   H28639248   7.052   6.013   1.228  0.8106 -0.1744 -0.0888
  122MOL   H28739249   7.186   6.001   1.438  1.1909  1.3460  0.5640
  122MOL   H28839250   7.091   6.053   1.652  0.9991  2.3301 -0.2386
  122MOL   H28939251   6.843   6.127   1.661 -0.6394 -3.0386  0.3142
  122MOL   C29039252   6.645   6.296   1.380  0.4460 -0.3133  0.8405
  122MOL   C29139253   6.696   6.424   1.457  0.0529  0.5902 -1.2006
  122MOL   C29239254   6.628   6.440   1.594 -0.4363 -0.1256  0.3169
  122MOL   C29339255   6.500   6.505   1.605  0.1895  0.5537 -0.3958
  122MOL   C29439256   6.442   6.539   1.736  0.3089 -0.0120  0.2991
  122MOL   C29539257   6.506   6.488   1.847 -0.2898 -0.4099  0.4976
  122MOL   C29639258   6.628   6.411   1.832  0.5232 -0.3206 -0.0087
  122MOL   C29739259   6.688   6.389   1.711 -0.5102 -0.3982 -1.3068
  122MOL   H29839260   6.538   6.300   1.359  0.7144  0.7216 -0.4373
  122MOL   H29939261   6.685   6.286   1.279 -1.7242  1.4041 -0.2415
  122MOL   H30039262   6.655   6.492   1.382 -2.1465 -1.8956 -2.3209
  122MOL   H30139263   6.454   6.545   1.516 -1.7067 -1.4165 -0.3422
  122MOL   H30239264   6.357   6.605   1.742 -0.0276 -0.1723 -2.0695
  122MOL   H30339265   6.468   6.522   1.943  1.3002 -0.2616  1.0996
  122MOL   H30439266   6.675   6.374   1.922 -1.4895  0.3466  1.3596
  122MOL   H30539267   6.776   6.328   1.700  0.9125  1.0549  1.6989
  122MOL   C30639268   6.853   6.444   1.457 -0.3663  0.4711  0.2213
  122MOL   C30739269   6.893   6.588   1.461  0.3665  0.5662  0.5730
  122MOL   C30839270   6.822   6.672   1.358 -0.2757 -0.1480 -0.0630
  122MOL   C30939271   6.869   6.674   1.226  0.3378 -0.5079 -1.5145
  122MOL   C31039272   6.803   6.758   1.133  0.2948 -0.3694  0.2283
  122MOL   C31139273   6.689   6.830   1.169  0.4557  0.5899 -0.0367
  122MOL   C31239274   6.634   6.819   1.294  0.0003  0.5729 -0.0885
  122MOL   C31339275   6.708   6.747   1.391  0.8595  0.5301  0.1735
  122MOL   H31439276   6.892   6.399   1.366  2.0198 -1.2833  2.0630
  122MOL   H31539277   6.890   6.384   1.540 -0.9329 -0.0655  0.0945
  122MOL   H31639278   7.000   6.588   1.439  0.3185 -0.8766  0.2917
  122MOL   H31739279   6.964   6.636   1.193  0.9380 -2.5826  2.3265
  122MOL   H31839280   6.850   6.778   1.038 -1.1156  1.5713 -0.1096
  122MOL   H31939281   6.644   6.886   1.087 -0.4586 -1.1725 -0.7632
  122MOL   H32039282   6.549   6.877   1.329 -1.3639 -1.4257  0.0302
  122MOL   H32139283   6.668   6.743   1.491  1.8649 -1.1506  0.5216
  122MOL   H32239284   6.880   6.643   1.554 -3.1087 -0.2586  0.6161
  123MOL     C139285   6.551   6.613   0.170  0.1719 -0.3909  0.3058
  123MOL     C239286   6.429   6.517   0.195 -0.0306 -0.8895  0.1352
  123MOL     C339287   6.314   6.603   0.248  0.1794 -0.0416  0.0217
  123MOL     C439288   6.234   6.684   0.168 -0.3573  0.4313  0.5694
  123MOL     C539289   6.126   6.749   0.224 -0.2632  0.5459  0.9290
  123MOL     C639290   6.096   6.742   0.357  0.2725 -0.1282  0.3149
  123MOL     C739291   6.177   6.671   0.440  0.3705  0.4744 -0.0630
  123MOL     C839292   6.290   6.604   0.388 -1.1840 -0.5316 -0.0644
  123MOL     H939293   6.576   6.662   0.264 -1.0224 -1.0942  0.9970
  123MOL    H1039294   6.646   6.571   0.138  0.6218 -0.0675  1.2084
  123MOL    H1139295   6.475   6.465   0.279 -0.4195  0.9911  1.5421
  123MOL    H1239296   6.244   6.689   0.060 -3.2131  1.1145  0.2952
  123MOL    H1339297   6.066   6.810   0.158 -0.7623 -0.1227  0.7557
  123MOL    H1439298   6.016   6.799   0.402 -1.6507 -1.4237 -1.3687
  123MOL    H1539299   6.162   6.659   0.546  1.4458  2.1627  0.3017
  123MOL    H1639300   6.360   6.550   0.449 -1.0132 -1.4448 -1.0530
  123MOL    H1739301   6.526   6.687   0.094  0.9646  1.0307  1.4153
  123MOL    C1839302   6.402   6.416   0.074  0.2234 -0.5424 -0.3467
  123MOL    C1939303   6.265   6.358   0.087  0.0145  0.6506 -0.1592
  123MOL    C2039304   6.245   6.271   8.080 -0.1861  0.3752  0.4965
  123MOL    C2139305   6.288   6.138   8.073  0.1114 -0.1866  0.7653
  123MOL    C2239306   6.254   6.057   7.962 -0.3538 -0.2739  0.4392
  123MOL    C2339307   6.180   6.115   7.862  0.0312  0.3371 -0.3837
  123MOL    C2439308   6.136   6.251   7.863  0.0971 -0.0155 -0.3500
  123MOL    C2539309   6.168   6.324   7.975  0.1717  0.8211 -0.3746
  123MOL    H2639310   6.473   6.334   0.073 -0.5489 -1.2120 -1.2529
  123MOL    H2739311   6.407   6.479   8.100 -0.6248 -0.3007 -0.2269
  123MOL    H2839312   6.199   6.444   0.099  1.3644  1.2964  2.9643
  123MOL    H2939313   6.344   6.092   0.038 -1.1804  0.0857  1.8564
  123MOL    H3039314   6.309   5.965   7.948 -2.4568 -1.6271  0.7410
  123MOL    H3139315   6.155   6.059   7.773  0.1519 -0.3980  0.0437
  123MOL    H3239316   6.078   6.289   7.780 -1.0427  0.6078  0.7269
  123MOL    H3339317   6.148   6.430   7.980  0.9227  0.9542 -0.1956
  123MOL    C3439318   6.239   6.279   0.226  0.3281 -0.2277  0.2556
  123MOL    C3539319   6.099   6.217   0.234 -0.1097  0.4660  0.0749
  123MOL    C3639320   6.088   6.098   0.330 -0.3087  0.4607  0.7679
  123MOL    C3739321   6.054   6.124   0.464  0.0767 -0.0437  0.1783
  123MOL    C3839322   6.017   6.015   0.544 -0.3535  0.1391  0.5665
  123MOL    C3939323   6.020   5.881   0.492 -0.5502  0.1552 -0.9120
  123MOL    C4039324   6.068   5.864   0.362 -0.1497  0.1537  0.3820
  123MOL    C4139325   6.115   5.969   0.281  0.3845 -0.4048  0.0098
  123MOL    H4239326   6.244   6.337   0.319  2.0531 -0.2097  0.1624
  123MOL    H4339327   6.320   6.207   0.237  2.5599  2.2023  0.2704
  123MOL    H4439328   6.081   6.162   0.142 -1.9752 -0.5341  0.9970
  123MOL    H4539329   6.037   6.224   0.501  0.9359  0.9579 -2.0460
  123MOL    H4639330   5.973   6.026   0.643 -1.6160 -0.3748  0.0763
  123MOL    H4739331   5.987   5.797   0.551 -2.2099  0.9604 -0.6598
  123MOL    H4839332   6.069   5.770   0.310  0.8044  0.2077  0.3006
  123MOL    H4939333   6.144   5.956   0.178 -2.2879  1.8678 -1.0970
  123MOL    C5039334   5.975   6.317   0.245 -0.2780 -0.4192 -0.3245
  123MOL    C5139335   5.830   6.265   0.241 -0.3335 -0.3924 -0.1281
  123MOL    C5239336   5.738   6.382   0.265 -0.7597  0.1588  0.1081
  123MOL    C5339337   5.729   6.484   0.174  0.4323 -0.0152  0.1246
  123MOL    C5439338   5.644   6.593   0.199  0.8859 -0.3109 -0.3215
  123MOL    C5539339   5.568   6.597   0.319  0.7112  0.2079 -0.3652
  123MOL    C5639340   5.584   6.496   0.415 -0.7223 -0.2862 -0.4064
  123MOL    C5739341   5.676   6.395   0.391 -0.5655  0.2351 -0.0401
  123MOL    H5839342   5.986   6.407   0.185 -1.3036 -0.7119 -0.9592
  123MOL    H5939343   5.987   6.366   0.342 -1.6173 -0.3610 -0.1787
  123MOL    H6039344   5.842   6.201   0.329 -1.8453  0.8766  1.0226
  123MOL    H6139345   5.789   6.492   0.085  0.3523  2.9609  0.2850
  123MOL    H6239346   5.636   6.671   0.125  1.3998 -0.4708 -0.5477
  123MOL    H6339347   5.503   6.681   0.339 -0.5264 -0.8638  0.1737
  123MOL    H6439348   5.527   6.500   0.506 -0.5090 -1.9683 -0.1808
  123MOL    H6539349   5.700   6.312   0.457  1.3006 -0.1112 -1.1035
  123MOL    C6639350   5.791   6.171   0.123 -0.0883  0.2885  0.3161
  123MOL    C6739351   5.664   6.095   0.138 -0.7623 -0.2274 -0.2064
  123MOL    C6839352   5.635   6.010   0.019 -0.5639  0.2174  0.2556
  123MOL    C6939353   5.719   5.901   8.100 -0.5602 -0.4011  0.8837
  123MOL    C7039354   5.678   5.809   8.002  0.3072  0.0314 -0.0850
  123MOL    C7139355   5.552   5.818   7.939 -0.2277 -1.2291  0.2307
  123MOL    C7239356   5.477   5.934   7.961 -0.1287  0.6019  0.6801
  123MOL    C7339357   5.518   6.026   8.061  1.0848 -0.4301 -0.8886
  123MOL    H7439358   5.868   6.095   0.133 -1.2681 -1.3827 -2.7027
  123MOL    H7539359   5.801   6.213   0.023 -0.1843  1.8015  0.9142
  123MOL    H7639360   5.578   6.162   0.144 -0.0944  0.6181 -0.0016
  123MOL    H7739361   5.801   5.885   0.054 -0.0695 -1.3775  0.0785
  123MOL    H7839362   5.739   5.726   7.972  0.9061  0.6711 -0.6674
  123MOL    H7939363   5.511   5.745   7.870  0.5924 -1.4525 -0.0249
  123MOL    H8039364   5.377   5.930   7.922  0.3951  1.1509 -0.7676
  123MOL    H8139365   5.448   6.106   8.082 -0.3353 -1.5016 -1.4256
  123MOL    C8239366   5.648   6.020   0.278 -0.5669 -0.0672  0.0080
  123MOL    C8339367   5.525   5.926   0.273 -0.8003  0.4498  0.9717
  123MOL    C8439368   5.534   5.823   0.391  0.0217  0.3623  0.3214
  123MOL    C8539369   5.560   5.683   0.374  0.0582  0.1685 -0.0587
  123MOL    C8639370   5.575   5.598   0.483 -1.1808  0.1077 -0.1176
  123MOL    C8739371   5.552   5.638   0.608 -0.6690 -0.5084  0.4353
  123MOL    C8839372   5.536   5.775   0.628  0.3131 -0.1548 -0.7871
  123MOL    C8939373   5.529   5.871   0.523  0.4841 -0.9298 -0.0141
  123MOL    H9039374   5.643   6.091   0.360 -2.6273 -0.9807  0.7121
  123MOL    H9139375   5.738   5.960   0.292  0.1305  1.0970  0.5109
  123MOL    H9239376   5.531   5.864   0.184  0.0119  2.2654 -0.2557
  123MOL    H9339377   5.560   5.641   0.274 -0.0770  0.5411 -0.2134
  123MOL    H9439378   5.597   5.493   0.474  0.2232  0.2864  1.0044
  123MOL    H9539379   5.547   5.565   0.688 -0.9419 -0.5584  0.3726
  123MOL    H9639380   5.522   5.808   0.730 -0.4233 -0.6510 -0.7231
  123MOL    H9739381   5.498   5.968   0.557 -3.5076 -1.4666 -1.7877
  123MOL    C9839382   5.391   5.998   0.264 -0.2683 -0.3816 -0.4204
  123MOL    C9939383   5.273   5.903   0.271  0.2254 -0.4651  0.7400
  123MOL   C10039384   5.135   5.966   0.285  0.3603  0.0215 -0.2481
  123MOL   C10139385   5.041   5.917   0.383  0.1997  0.1179  0.3536
  123MOL   C10239386   4.919   5.985   0.399 -0.3182  0.0114  0.1045
  123MOL   C10339387   4.889   6.103   0.324  0.0399  0.4387  0.5771
  123MOL   C10439388   4.984   6.152   0.227 -0.4536  0.1198  0.5654
  123MOL   C10539389   5.107   6.086   0.209  0.1673  0.6210 -0.4394
  123MOL   H10639390   5.378   6.074   0.187  1.9667 -1.8072 -2.2499
  123MOL   H10739391   5.395   6.052   0.359  2.7777  1.5932 -1.5861
  123MOL   H10839392   5.298   5.858   0.367 -0.8496 -2.0968  0.2614
  123MOL   H10939393   5.062   5.827   0.439 -0.8889 -1.1966 -1.3040
  123MOL   H11039394   4.846   5.943   0.466  0.9226 -1.1975  0.7142
  123MOL   H11139395   4.787   6.137   0.335  0.0627  1.8764 -2.8684
  123MOL   H11239396   4.967   6.242   0.170 -0.5611 -1.4350 -1.9740
  123MOL   H11339397   5.177   6.133   0.142  1.1584  1.8666  1.4268
  123MOL   C11439398   5.271   5.787   0.170 -0.8327  0.0032  0.5061
  123MOL   C11539399   5.187   5.660   0.199 -0.1076  0.2705  0.0481
  123MOL   C11639400   5.176   5.569   0.084 -0.0647  0.2284  0.1459
  123MOL   C11739401   5.297   5.508   0.044  0.9521  0.1970  0.4163
  123MOL   C11839402   5.294   5.428   8.043 -0.5094  0.1633 -0.3442
  123MOL   C11939403   5.171   5.403   7.975  0.3118  0.3337 -0.2032
  123MOL   C12039404   5.054   5.461   8.018 -0.6423  0.2112  0.0986
  123MOL   C12139405   5.061   5.550   0.008  0.0312  0.3280  0.3878
  123MOL   H12239406   5.374   5.756   0.152 -0.4802  2.6076 -2.3563
  123MOL   H12339407   5.238   5.828   0.074 -0.3427  0.2971  0.4651
  123MOL   H12439408   5.089   5.704   0.215  0.9730  2.7616  0.1696
  123MOL   H12539409   5.390   5.513   0.098  1.1631  3.0103 -0.1422
  123MOL   H12639410   5.383   5.377   8.008 -0.7901 -0.5016 -0.0925
  123MOL   H12739411   5.170   5.328   7.898 -0.5051 -1.3837  1.4430
  123MOL   H12839412   4.958   5.446   7.970 -0.1160 -0.1465 -0.8375
  123MOL   H12939413   4.972   5.603   0.041 -1.8190 -2.2248 -0.3585
  123MOL   C13039414   5.226   5.595   0.334 -0.1173  0.2650 -0.3499
  123MOL   C13139415   5.135   5.483   0.379  0.2685 -0.3293 -0.0762
  123MOL   C13239416   5.208   5.397   0.477 -0.7933 -0.4180 -0.1092
  123MOL   C13339417   5.268   5.457   0.592 -0.4970  0.3476 -0.1336
  123MOL   C13439418   5.328   5.376   0.686 -0.6138 -0.3273 -0.4060
  123MOL   C13539419   5.359   5.246   0.653 -0.2702 -0.8608 -0.2250
  123MOL   C13639420   5.318   5.184   0.533 -0.1706  0.1470  0.7375
  123MOL   C13739421   5.232   5.259   0.455  0.0898 -0.2673 -0.5955
  123MOL   H13839422   5.230   5.663   0.419  1.0122 -0.5985  0.2872
  123MOL   H13939423   5.327   5.555   0.329 -0.3887 -0.6810  1.4582
  123MOL   H14039424   5.125   5.407   0.302 -0.4940 -1.1869  0.8561
  123MOL   H14139425   5.233   5.557   0.611 -2.5421 -0.4517  0.4522
  123MOL   H14239426   5.368   5.415   0.778  0.2167 -0.7617 -0.5821
  123MOL   H14339427   5.406   5.179   0.723 -2.8520 -1.3544  1.1021
  123MOL   H14439428   5.335   5.081   0.504  0.5217  1.2309 -2.8920
  123MOL   H14539429   5.191   5.211   0.367  2.2467 -1.0394 -1.2189
  123MOL   C14639430   4.997   5.542   0.432 -0.8340  0.4758  0.1566
  123MOL   C14739431   4.902   5.437   0.496 -0.0744 -0.4671 -0.1628
  123MOL   C14839432   4.780   5.500   0.567 -0.8437  0.3604 -0.6293
  123MOL   C14939433   4.708   5.605   0.503  0.2306  0.1866  0.0943
  123MOL   C15039434   4.592   5.660   0.555  0.3337  0.0983  0.1812
  123MOL   C15139435   4.545   5.611   0.678 -0.2360  0.9607 -0.4376
  123MOL   C15239436   4.620   5.519   0.755 -0.0572 -0.3917 -0.6928
  123MOL   C15339437   4.734   5.460   0.697 -0.4379  0.1251  0.4123
  123MOL   H15439438   4.943   5.585   0.347 -0.3861  1.2240  0.2418
  123MOL   H15539439   5.017   5.621   0.505  4.3677 -2.0508  1.7253
  123MOL   H15639440   4.962   5.398   0.578 -2.3660  0.2344  1.9316
  123MOL   H15739441   4.752   5.635   0.409 -0.3921 -0.5957 -0.4516
  123MOL   H15839442   4.536   5.739   0.507  0.2207 -0.3736 -0.4727
  123MOL   H15939443   4.462   5.666   0.720 -1.6802 -3.9471  3.5844
  123MOL   H16039444   4.568   5.491   0.846  0.2349 -0.9477 -0.6949
  123MOL   H16139445   4.791   5.388   0.754  1.8579  1.9053  0.4213
  123MOL   C16239446   4.860   5.327   0.400 -0.6155  0.5670 -0.4630
  123MOL   C16339447   4.863   5.187   0.466 -0.3963  0.1358  0.4052
  123MOL   C16439448   4.741   5.165   0.560 -0.0577 -0.4295 -0.5235
  123MOL   C16539449   4.610   5.184   0.514  0.3933 -0.1777 -0.3416
  123MOL   C16639450   4.503   5.172   0.604 -0.3005 -0.2426 -0.1062
  123MOL   C16739451   4.527   5.135   0.740 -0.0233 -0.1682  0.4748
  123MOL   C16839452   4.657   5.110   0.784 -0.5913  1.1505 -0.1883
  123MOL   C16939453   4.766   5.125   0.694 -0.5691 -0.6717  0.3386
  123MOL   H17039454   4.938   5.328   0.324 -1.9259  2.8691 -1.8470
  123MOL   H17139455   4.769   5.349   0.343 -0.2293 -1.3076 -1.8301
  123MOL   H17239456   4.955   5.184   0.524  0.4532  0.0287 -0.9314
  123MOL   H17339457   4.583   5.202   0.411  1.4169  0.4917 -0.4939
  123MOL   H17439458   4.401   5.192   0.577  0.2414  0.8792 -1.3518
  123MOL   H17539459   4.447   5.137   0.813  0.2076  2.6031  0.7021
  123MOL   H17639460   4.675   5.096   0.890  0.6398 -1.0970 -0.6566
  123MOL   H17739461   4.866   5.108   0.734  0.1038  2.1924 -0.0625
  123MOL   C17839462   4.870   5.077   0.353 -0.4011  0.2581 -0.3073
  123MOL   C17939463   4.872   4.929   0.402 -0.3146  0.4922  0.2105
  123MOL   C18039464   4.853   4.832   0.281 -0.4360 -0.1594 -0.1049
  123MOL   C18139465   4.953   4.796   0.191 -0.9729  0.3638 -0.1800
  123MOL   C18239466   4.929   4.713   0.084 -0.0147  0.8994  0.6020
  123MOL   C18339467   4.799   4.658   0.060  0.1324 -0.4432 -0.3550
  123MOL   C18439468   4.702   4.696   0.155 -0.3961 -0.6278 -0.0043
  123MOL   C18539469   4.723   4.790   0.253  0.2702 -0.4943 -0.1481
  123MOL   H18639470   4.957   5.100   0.292 -0.3034 -1.7129 -0.9281
  123MOL   H18739471   4.783   5.095   0.290 -0.3144  0.3380 -0.4036
  123MOL   H18839472   4.790   4.915   0.473  0.4670  1.3148  1.2949
  123MOL   H18939473   5.056   4.825   0.208 -1.5506  0.8447  2.6843
  123MOL   H19039474   4.999   4.695   0.004  0.2687  1.0436  0.8168
  123MOL   H19139475   4.771   4.599   8.089 -2.7768  0.5820 -0.1773
  123MOL   H19239476   4.602   4.657   0.145 -0.6490 -0.9601  3.2998
  123MOL   H19339477   4.643   4.802   0.324  2.0408  2.3758  1.4215
  123MOL   C19439478   5.006   4.903   0.481 -0.1097  0.2807 -0.0754
  123MOL   C19539479   5.045   4.762   0.515  0.0566 -0.4264 -0.3947
  123MOL   C19639480   5.199   4.753   0.553  0.1023 -0.1680 -0.0756
  123MOL   C19739481   5.250   4.839   0.654  0.3589  0.0543 -0.3097
  123MOL   C19839482   5.385   4.833   0.678  0.0733 -0.5417  0.3085
  123MOL   C19939483   5.470   4.729   0.627  0.1786 -0.4892  0.4950
  123MOL   C20039484   5.417   4.639   0.528  0.3609 -0.1528 -0.4460
  123MOL   C20139485   5.282   4.659   0.487  0.2500 -0.3834  0.1599
  123MOL   H20239486   5.023   4.961   0.573 -0.8728 -2.0270  1.5635
  123MOL   H20339487   5.088   4.946   0.423  0.9740 -0.1988  1.0703
  123MOL   H20439488   5.035   4.705   0.423  0.0869 -0.5625 -0.3137
  123MOL   H20539489   5.183   4.911   0.699 -2.4051 -1.3124 -2.1506
  123MOL   H20639490   5.423   4.898   0.755  0.2927 -0.7488  0.3759
  123MOL   H20739491   5.569   4.723   0.669  0.7484 -1.2581 -0.9240
  123MOL   H20839492   5.475   4.559   0.484  1.2143  2.2998 -3.9989
  123MOL   H20939493   5.255   4.586   0.412 -2.5093  1.6922 -0.8953
  123MOL   C21039494   4.950   4.704   0.620  0.3875 -0.1479  0.2225
  123MOL   C21139495   4.962   4.548   0.632  0.2154 -0.1108 -0.4454
  123MOL   C21239496   4.954   4.513   0.780 -0.6158  0.2575  0.3361
  123MOL   C21339497   5.063   4.446   0.841 -0.4771 -0.8975 -1.1280
  123MOL   C21439498   5.059   4.407   0.977 -0.5624  0.3804 -0.1088
  123MOL   C21539499   4.948   4.435   1.057  0.4423  0.6373  0.3043
  123MOL   C21639500   4.835   4.490   0.990  0.1305  0.0251 -0.7633
  123MOL   C21739501   4.840   4.535   0.860  0.1194  0.0622 -0.7361
  123MOL   H21839502   4.848   4.733   0.595  1.3253  2.2436 -0.9781
  123MOL   H21939503   4.978   4.752   0.714  0.7602 -0.2970  0.1884
  123MOL   H22039504   5.058   4.517   0.591  0.6630  0.5114  0.1145
  123MOL   H22139505   5.155   4.426   0.789  0.9446  1.8247  0.2366
  123MOL   H22239506   5.153   4.376   1.021 -1.4984 -0.6280  1.1894
  123MOL   H22339507   4.935   4.404   1.159 -0.4636 -1.4332 -0.4321
  123MOL   H22439508   4.745   4.507   1.047 -0.1671  0.3716 -1.3266
  123MOL   H22539509   4.759   4.582   0.805  1.3348  1.8467 -1.0561
  123MOL   C22639510   4.859   4.488   0.542 -0.2306  0.4654  0.1156
  123MOL   C22739511   4.892   4.344   0.503 -0.0017  0.3326 -0.6617
  123MOL   C22839512   4.767   4.264   0.460 -0.1019 -0.5874 -0.0181
  123MOL   C22939513   4.713   4.173   0.553  0.1720 -1.0053  0.1919
  123MOL   C23039514   4.595   4.101   0.521 -0.1134  0.1495 -0.2700
  123MOL   C23139515   4.538   4.106   0.389  0.5327  0.0483 -0.4926
  123MOL   C23239516   4.590   4.201   0.298  0.8800  0.1107 -0.3974
  123MOL   C23339517   4.705   4.275   0.332 -0.1147 -0.2188  0.3382
  123MOL   H23439518   4.865   4.554   0.455  2.2047  0.0491 -0.0616
  123MOL   H23539519   4.759   4.503   0.583  0.1532 -0.0243  1.2731
  123MOL   H23639520   4.936   4.302   0.594 -0.9502 -0.5875 -0.6105
  123MOL   H23739521   4.745   4.186   0.655 -2.2893  2.0375  0.6524
  123MOL   H23839522   4.542   4.053   0.602 -2.1027 -0.8841 -2.1287
  123MOL   H23939523   4.441   4.062   0.373  0.9459 -1.0037 -0.1391
  123MOL   H24039524   4.542   4.204   0.201  0.9028 -2.1963 -0.5295
  123MOL   H24139525   4.741   4.347   0.260 -2.3215  0.5992  0.0206
  123MOL   C24239526   5.001   4.337   0.397  0.2702  0.2707 -0.5829
  123MOL   C24339527   5.091   4.212   0.397  0.3240  0.4611 -0.6040
  123MOL   C24439528   5.185   4.213   0.516 -0.0318  0.3567  0.7351
  123MOL   C24539529   5.154   4.144   0.635 -0.0857  0.2535  0.2259
  123MOL   C24639530   5.244   4.159   0.744  1.3028 -0.0906 -0.0143
  123MOL   C24739531   5.357   4.235   0.737  0.0499 -0.0221 -0.1143
  123MOL   C24839532   5.390   4.293   0.620  0.4559 -0.2172 -0.3929
  123MOL   C24939533   5.306   4.284   0.510  0.0431  0.0691 -0.5000
  123MOL   H25039534   5.068   4.421   0.416  1.4183 -0.6100 -0.7486
  123MOL   H25139535   4.976   4.352   0.292  0.8210  2.1041 -0.4704
  123MOL   H25239536   5.163   4.228   0.316 -0.5806 -0.6574 -1.6486
  123MOL   H25339537   5.062   4.088   0.645  0.3752 -0.5698 -0.0756
  123MOL   H25439538   5.216   4.112   0.837 -0.0647 -0.0021 -0.3707
  123MOL   H25539539   5.423   4.223   0.822  1.4972  1.7170 -0.9643
  123MOL   H25639540   5.483   4.346   0.604  0.1337 -0.4170 -3.2602
  123MOL   H25739541   5.349   4.326   0.420 -0.1322 -1.2498 -1.2057
  123MOL   C25839542   5.030   4.073   0.364  0.1867  0.4153 -0.0113
  123MOL   C25939543   4.979   4.057   0.222 -0.3819 -0.5438  0.5786
  123MOL   C26039544   5.042   4.142   0.110  0.8570  0.2158 -0.3721
  123MOL   C26139545   5.170   4.107   0.052 -0.5229 -0.0415  0.4288
  123MOL   C26239546   5.219   4.177   8.053 -0.1247  0.2513 -0.7302
  123MOL   C26339547   5.139   4.281   7.998  0.6547 -0.2646  0.1497
  123MOL   C26439548   5.025   4.326   8.064  0.4628 -0.0072 -0.7796
  123MOL   C26539549   4.974   4.251   0.054  0.2756 -0.1717 -0.4696
  123MOL   H26639550   4.958   4.058   0.445 -1.5068 -1.1896 -1.7739
  123MOL   H26739551   5.104   3.996   0.388  1.2644  0.6255 -2.4583
  123MOL   H26839552   4.873   4.081   0.223 -0.3000 -0.1833  1.2915
  123MOL   H26939553   5.226   4.023   0.090  0.1628 -0.3901 -1.3236
  123MOL   H27039554   5.314   4.141   8.014  0.6948  0.3518  1.1333
  123MOL   H27139555   5.160   4.334   7.906  1.4511  0.8967  0.9786
  123MOL   H27239556   4.982   4.415   8.021  1.4740  2.2854  2.7355
  123MOL   H27339557   4.880   4.285   0.094  0.1223  0.1218 -1.0810
  123MOL   C27439558   4.975   3.911   0.173 -0.7246  0.2223  0.4540
  123MOL   C27539559   4.878   3.817   0.244 -0.0826 -1.0537 -0.2861
  123MOL   C27639560   4.761   3.767   0.155  0.3609 -0.2314 -0.4592
  123MOL   C27739561   4.794   3.731   0.024 -0.5856  0.2727 -0.2905
  123MOL   C27839562   4.691   3.700   8.051 -0.7868 -0.1340 -0.0854
  123MOL   C27939563   4.558   3.689   8.091  0.3698 -0.6778 -0.0964
  123MOL   C28039564   4.524   3.725   0.116 -0.1049 -0.4485  0.4810
  123MOL   C28139565   4.627   3.766   0.204  0.3429 -0.2430  0.0656
  123MOL   H28239566   5.076   3.871   0.169 -1.3333 -1.1773 -2.7926
  123MOL   H28339567   4.945   3.914   0.068  1.0531 -2.3199 -0.1707
  123MOL   H28439568   4.841   3.884   0.321 -1.2965 -0.8380 -1.0508
  123MOL   H28539569   4.897   3.722   8.106 -0.4174 -3.0001  0.9551
  123MOL   H28639570   4.715   3.683   7.947  1.1314 -1.4744  0.5543
  123MOL   H28739571   4.491   3.642   8.021 -1.2430 -0.1501  1.0598
  123MOL   H28839572   4.419   3.713   0.138  0.1462 -5.0503 -0.2110
  123MOL   H28939573   4.594   3.788   0.304 -0.1554  0.7731 -0.3166
  123MOL   C29039574   4.951   3.706   0.323  0.1513 -0.7571 -0.2730
  123MOL   C29139575   4.883   3.682   0.461 -0.1501 -1.1617  0.7284
  123MOL   C29239576   4.886   3.536   0.506  0.1960 -0.6949  0.3778
  123MOL   C29339577   5.010   3.473   0.554 -0.4943 -0.3457  0.1118
  123MOL   C29439578   5.016   3.336   0.588  0.3184  0.8403 -0.2418
  123MOL   C29539579   4.893   3.268   0.586 -0.0761 -0.1822 -0.1474
  123MOL   C29639580   4.768   3.334   0.558  0.2891  0.5358  0.1482
  123MOL   C29739581   4.770   3.457   0.496  0.3091 -0.3711 -0.5001
  123MOL   H29839582   5.052   3.734   0.355  0.8911 -2.0806 -1.4296
  123MOL   H29939583   4.958   3.622   0.255  0.1001  0.0942 -1.3388
  123MOL   H30039584   4.777   3.707   0.455  0.3899  1.3853  1.1580
  123MOL   H30139585   5.102   3.529   0.551  0.0083 -1.2278 -2.0634
  123MOL   H30239586   5.113   3.291   0.606 -0.0706  0.0012 -0.1982
  123MOL   H30339587   4.888   3.168   0.626 -0.9766 -0.2756 -0.4816
  123MOL   H30439588   4.677   3.275   0.558  2.2270 -2.5380  1.4066
  123MOL   H30539589   4.678   3.495   0.454 -1.4040 -0.3154  3.1297
  123MOL   C30639590   4.928   3.776   0.581  0.6018  0.1038  0.0124
  123MOL   C30739591   4.839   3.762   0.710 -0.3409  0.5588 -0.1401
  123MOL   C30839592   4.905   3.832   0.830  0.6269  0.1522  0.1742
  123MOL   C30939593   4.976   3.759   0.922  0.0803 -0.1439 -0.1532
  123MOL   C31039594   5.048   3.825   1.024 -0.2282  1.0167  0.9169
  123MOL   C31139595   5.044   3.965   1.039  0.0252  0.5886 -0.0930
  123MOL   C31239596   4.967   4.033   0.948 -0.2984 -0.2931 -0.2162
  123MOL   C31339597   4.892   3.966   0.849  0.4664  0.0112  0.4747
  123MOL   H31439598   4.934   3.883   0.559 -0.3665  0.4938  1.5953
  123MOL   H31539599   5.032   3.759   0.610  0.4882  0.4782  0.6271
  123MOL   H31639600   4.825   3.656   0.736 -0.0614  0.0134 -2.1639
  123MOL   H31739601   4.980   3.652   0.912  0.6010 -0.1307 -0.1143
  123MOL   H31839602   5.116   3.765   1.083  2.1759  1.6382 -1.1177
  123MOL   H31939603   5.105   4.009   1.117 -1.8055  1.1974  1.0344
  123MOL   H32039604   4.961   4.140   0.960 -3.6684 -0.7614  3.2852
  123MOL   H32139605   4.839   4.023   0.774  0.3884  0.7046  1.0583
  123MOL   H32239606   4.734   3.784   0.692 -1.8014 -4.5999  1.1677
  124MOL     C139607   6.116   2.394   3.512  0.4619 -0.7108  0.1335
  124MOL     C239608   6.222   2.290   3.559  0.7656 -0.0223 -0.0763
  124MOL     C339609   6.232   2.291   3.712  0.3622  0.2778 -1.3009
  124MOL     C439610   6.359   2.288   3.774 -0.1434 -0.9679  0.6638
  124MOL     C539611   6.384   2.282   3.908  0.3097 -0.1372 -0.0329
  124MOL     C639612   6.269   2.289   3.990  0.1524  0.5633  0.0178
  124MOL     C739613   6.138   2.286   3.931  0.2479  0.4084  0.6184
  124MOL     C839614   6.123   2.285   3.790 -0.1087 -0.4010 -0.1963
  124MOL     H939615   6.019   2.390   3.562  1.3096 -1.2583  1.7672
  124MOL    H1039616   6.160   2.490   3.539  0.7966 -0.6358 -0.6442
  124MOL    H1139617   6.316   2.322   3.515  1.5621 -2.6745 -0.3762
  124MOL    H1239618   6.445   2.280   3.709 -0.6035  0.6505 -0.1783
  124MOL    H1339619   6.479   2.274   3.959  0.4159 -2.4121 -0.5465
  124MOL    H1439620   6.277   2.272   4.097 -0.6972 -2.2371 -0.3109
  124MOL    H1539621   6.051   2.289   3.996  0.1180  0.5286  0.4408
  124MOL    H1639622   6.024   2.272   3.748 -1.5335  1.0697  2.5537
  124MOL    H1739623   6.114   2.396   3.403  2.8740 -0.6500  0.0724
  124MOL    C1839624   6.185   2.156   3.504  0.5589  0.1791  0.1429
  124MOL    C1939625   6.282   2.035   3.542 -0.0205  0.0776 -0.1606
  124MOL    C2039626   6.222   1.899   3.493 -0.0159 -0.8276 -1.4302
  124MOL    C2139627   6.199   1.875   3.354  0.4952  0.7356  0.2829
  124MOL    C2239628   6.166   1.748   3.314 -0.7552  0.3120 -0.6079
  124MOL    C2339629   6.161   1.636   3.406 -0.0455 -0.3200 -0.2262
  124MOL    C2439630   6.176   1.663   3.547 -0.1334 -0.6884 -0.3649
  124MOL    C2539631   6.205   1.793   3.589 -0.3120  0.0674  0.4240
  124MOL    H2639632   6.183   2.162   3.396 -0.3316  0.2101  0.1552
  124MOL    H2739633   6.084   2.127   3.533  0.5685 -1.3034 -1.2343
  124MOL    H2839634   6.281   2.044   3.650 -0.9367  0.7555 -0.2186
  124MOL    H2939635   6.204   1.948   3.275 -2.3484  0.6241 -0.0439
  124MOL    H3039636   6.169   1.720   3.210  0.3153 -0.7893 -0.2921
  124MOL    H3139637   6.142   1.533   3.379  1.4545 -0.9342  0.9706
  124MOL    H3239638   6.168   1.579   3.614 -0.0737  0.1498  0.7087
  124MOL    H3339639   6.239   1.817   3.688  0.8883 -0.6093  0.1936
  124MOL    C3439640   6.425   2.061   3.485  0.1928 -0.0491  0.3753
  124MOL    C3539641   6.512   1.938   3.472  0.0676 -0.5780  0.1893
  124MOL    C3639642   6.608   1.954   3.351  0.2914  0.4487 -0.0403
  124MOL    C3739643   6.557   1.930   3.220  0.1211 -0.7325  0.6948
  124MOL    C3839644   6.646   1.938   3.111  0.4675 -0.2710 -0.3616
  124MOL    C3939645   6.778   1.968   3.135  0.1720  0.3250 -0.0965
  124MOL    C4039646   6.836   1.974   3.263  0.3313  0.0801 -0.4579
  124MOL    C4139647   6.749   1.976   3.373 -0.3097  0.9191 -0.0997
  124MOL    H4239648   6.484   2.135   3.539 -1.4283  1.5423 -0.0073
  124MOL    H4339649   6.421   2.109   3.387  1.4320  0.1174  0.3974
  124MOL    H4439650   6.458   1.847   3.444  0.1820 -0.3757 -0.7155
  124MOL    H4539651   6.451   1.911   3.204  0.1813 -0.0247 -0.5834
  124MOL    H4639652   6.625   1.934   3.005  3.5529 -0.0066 -1.0347
  124MOL    H4739653   6.850   1.974   3.055  0.2073  0.0566 -0.0859
  124MOL    H4839654   6.943   1.985   3.271  0.1996  0.3935  1.0947
  124MOL    H4939655   6.787   1.995   3.472  1.5467 -1.3404 -0.3335
  124MOL    C5039656   6.586   1.909   3.603  0.2835 -0.6523 -0.1746
  124MOL    C5139657   6.659   1.781   3.629  0.3326  0.8440 -0.5551
  124MOL    C5239658   6.731   1.798   3.764  0.1976  0.4796  0.8072
  124MOL    C5339659   6.869   1.813   3.770 -0.2569  1.0916  0.3199
  124MOL    C5439660   6.930   1.802   3.896 -0.4289  0.4409 -0.6723
  124MOL    C5539661   6.857   1.787   4.013 -0.7580  0.6516  0.7375
  124MOL    C5639662   6.719   1.780   4.005  0.6355 -1.0604  0.4867
  124MOL    C5739663   6.658   1.779   3.879  0.3928 -0.7655  0.0105
  124MOL    H5839664   6.514   1.930   3.683 -2.4143 -0.6666 -2.5331
  124MOL    H5939665   6.658   1.990   3.615  0.4839 -0.2704 -3.5831
  124MOL    H6039666   6.734   1.773   3.550  0.6414  0.1143 -0.1958
  124MOL    H6139667   6.936   1.828   3.687  0.3084  1.0223  0.7623
  124MOL    H6239668   7.037   1.808   3.909 -0.6362  0.0527  1.3435
  124MOL    H6339669   6.904   1.759   4.106  0.2877 -2.4115 -0.6437
  124MOL    H6439670   6.656   1.772   4.093 -2.5181  1.6903 -1.3877
  124MOL    H6539671   6.550   1.772   3.872  0.5397 -1.5276 -2.1416
  124MOL    C6639672   6.567   1.655   3.613 -0.5260  0.2311  0.3600
  124MOL    C6739673   6.623   1.519   3.663 -0.1213  0.6862  0.2738
  124MOL    C6839674   6.508   1.414   3.653  0.0413 -0.1265 -0.2250
  124MOL    C6939675   6.466   1.372   3.524 -0.5001 -0.3276  0.1784
  124MOL    C7039676   6.352   1.284   3.517 -0.3955  0.2606  0.2048
  124MOL    C7139677   6.291   1.232   3.637  0.2168  0.7761  1.4204
  124MOL    C7239678   6.333   1.274   3.758 -0.5327 -0.6008  0.1681
  124MOL    C7339679   6.440   1.365   3.766  0.2899  0.1667 -0.0535
  124MOL    H7439680   6.563   1.659   3.504 -1.1690 -2.0704  0.2766
  124MOL    H7539681   6.470   1.671   3.660 -0.5933 -0.5699  0.5032
  124MOL    H7639682   6.654   1.525   3.767  1.7239  1.8054 -0.3185
  124MOL    H7739683   6.517   1.413   3.438 -0.1308  0.2305  0.6634
  124MOL    H7839684   6.312   1.262   3.419  0.7297 -0.4953 -0.0959
  124MOL    H7939685   6.202   1.173   3.622  1.4234 -0.7029  0.0144
  124MOL    H8039686   6.291   1.232   3.848 -0.6302 -2.7982 -0.8664
  124MOL    H8139687   6.473   1.390   3.866  0.4321  1.7811 -0.4896
  124MOL    C8239688   6.750   1.469   3.585  0.7043 -0.4511 -0.1413
  124MOL    C8339689   6.813   1.339   3.637 -0.3508  0.3187 -0.3519
  124MOL    C8439690   6.920   1.287   3.538 -0.1996  0.1071  0.0346
  124MOL    C8539691   7.051   1.325   3.544  0.2748  0.3525  0.5475
  124MOL    C8639692   7.152   1.251   3.475 -0.6872 -0.1329 -0.1435
  124MOL    C8739693   7.114   1.137   3.401  0.2331 -0.6875  0.8875
  124MOL    C8839694   6.978   1.107   3.373 -0.9084 -0.3501 -0.4395
  124MOL    C8939695   6.883   1.180   3.448 -0.4963 -0.2752 -0.1199
  124MOL    H9039696   6.824   1.547   3.574 -1.3635  1.7054  0.7081
  124MOL    H9139697   6.725   1.440   3.483 -1.3960  0.9989 -0.0843
  124MOL    H9239698   6.732   1.267   3.649  0.1177 -0.2622 -0.6402
  124MOL    H9339699   7.086   1.395   3.618  1.0703  0.7495 -0.2007
  124MOL    H9439700   7.254   1.282   3.492 -1.0065  1.9187 -1.7694
  124MOL    H9539701   7.190   1.072   3.360  1.5469  1.5288 -0.2988
  124MOL    H9639702   6.952   1.027   3.306 -2.5646  0.0624 -0.2977
  124MOL    H9739703   6.779   1.152   3.438 -0.6473  0.3650 -0.4011
  124MOL    C9839704   6.878   1.357   3.783  0.2902 -0.4031  0.0389
  124MOL    C9939705   6.948   1.238   3.852  0.3461 -0.3397 -0.1951
  124MOL   C10039706   7.032   1.286   3.970 -0.8055 -0.8825  0.3998
  124MOL   C10139707   6.970   1.338   4.089  0.2047  0.1776 -0.5499
  124MOL   C10239708   7.050   1.392   4.195  0.6671 -0.2495 -0.5036
  124MOL   C10339709   7.187   1.394   4.186  0.2623 -0.4977 -0.3545
  124MOL   C10439710   7.250   1.352   4.064 -0.3198  0.4541  0.0468
  124MOL   C10539711   7.172   1.296   3.958 -0.2781  0.1483  0.1595
  124MOL   H10639712   6.794   1.382   3.848 -0.0478 -0.5556 -0.3299
  124MOL   H10739713   6.943   1.444   3.779  0.0120 -0.0072  3.1613
  124MOL   H10839714   7.025   1.197   3.786  1.2456  0.9274  0.0514
  124MOL   H10939715   6.863   1.325   4.097 -0.4777  3.6129 -2.7384
  124MOL   H11039716   6.998   1.422   4.285 -1.3314 -0.6509 -1.5050
  124MOL   H11139717   7.243   1.451   4.259  0.6321  0.8760 -1.6676
  124MOL   H11239718   7.358   1.353   4.051 -0.3377  0.0532 -0.1270
  124MOL   H11339719   7.224   1.266   3.868 -0.4306 -0.4019  0.2565
  124MOL   C11439720   6.865   1.115   3.892 -0.3765  0.3091 -0.6941
  124MOL   C11539721   6.940   0.977   3.899 -1.1276 -0.6621 -0.1051
  124MOL   C11639722   6.866   0.881   3.988  0.3875 -0.2962 -0.8641
  124MOL   C11739723   6.730   0.855   3.973  0.2129  0.0891 -0.3419
  124MOL   C11839724   6.674   0.756   4.058 -0.1873  0.4352 -0.2015
  124MOL   C11939725   6.741   0.694   4.164  0.3393 -0.2255  0.2137
  124MOL   C12039726   6.882   0.728   4.177  0.7591  0.2894  0.1349
  124MOL   C12139727   6.942   0.814   4.089 -0.2362 -0.3065 -0.7007
  124MOL   H12239728   6.778   1.109   3.826  0.1880  1.3251 -1.5436
  124MOL   H12339729   6.826   1.138   3.991  0.5144 -0.0051 -0.2618
  124MOL   H12439730   7.037   0.994   3.946 -0.7193 -1.0432 -0.8102
  124MOL   H12539731   6.671   0.908   3.899 -1.9522 -1.8933 -0.1013
  124MOL   H12639732   6.570   0.732   4.042  0.3711 -0.9525 -1.9939
  124MOL   H12739733   6.686   0.631   4.232  0.2101  0.6514  0.9303
  124MOL   H12839734   6.932   0.685   4.263  1.2064 -0.6821 -0.6105
  124MOL   H12939735   7.049   0.822   4.101 -0.1257  0.1155 -1.8847
  124MOL   C13039736   6.955   0.924   3.755  0.1854  0.5046 -1.1235
  124MOL   C13139737   7.034   0.789   3.747 -0.2734 -0.2396  1.0861
  124MOL   C13239738   7.041   0.739   3.598  0.2770 -0.5306 -0.5096
  124MOL   C13339739   6.954   0.637   3.552  0.2382 -0.1085  0.2795
  124MOL   C13439740   6.971   0.591   3.417  0.2245 -0.2526 -1.0515
  124MOL   C13539741   7.064   0.650   3.334 -0.3362  0.2772 -0.0166
  124MOL   C13639742   7.155   0.743   3.386  0.2846  0.2820  0.0975
  124MOL   C13739743   7.136   0.791   3.516 -0.3950  0.2181  0.6655
  124MOL   H13839744   7.003   1.001   3.694  2.6247  1.6837  2.1480
  124MOL   H13939745   6.856   0.910   3.713 -1.9550 -0.1388  3.7896
  124MOL   H14039746   6.978   0.711   3.798 -0.4036  0.0001  1.3144
  124MOL   H14139747   6.888   0.585   3.620  0.7992 -2.0642 -0.6431
  124MOL   H14239748   6.904   0.515   3.379  0.0479 -0.7888  0.3077
  124MOL   H14339749   7.077   0.621   3.231  2.3922  0.1954  0.3141
  124MOL   H14439750   7.227   0.797   3.327  1.0958  0.3382  1.1268
  124MOL   H14539751   7.192   0.876   3.550  0.5077 -0.3989  0.7539
  124MOL   C14639752   7.171   0.781   3.824  0.1118 -0.7916 -0.2083
  124MOL   C14739753   7.238   0.649   3.829  0.2001  0.6945 -0.8344
  124MOL   C14839754   7.384   0.652   3.798  0.9904  0.4466 -0.4078
  124MOL   C14939755   7.478   0.724   3.880 -0.4859  0.6192 -1.0041
  124MOL   C15039756   7.611   0.745   3.839  0.2537  0.0769 -0.2826
  124MOL   C15139757   7.656   0.681   3.722 -0.4280  0.2298  0.2052
  124MOL   C15239758   7.564   0.614   3.638  0.1344 -0.1650  0.1199
  124MOL   C15339759   7.428   0.608   3.676  0.0911 -0.3771  0.6403
  124MOL   H15439760   7.158   0.810   3.928  1.0219  0.4424 -0.4222
  124MOL   H15539761   7.242   0.851   3.778  1.6166 -1.1338  1.5344
  124MOL   H15639762   7.191   0.587   3.753 -1.2988 -1.0337  1.4173
  124MOL   H15739763   7.453   0.756   3.980  0.7157 -0.9518 -0.1769
  124MOL   H15839764   7.674   0.802   3.906 -1.1597  0.4563  0.7776
  124MOL   H15939765   7.757   0.682   3.684 -0.6814 -2.0847 -0.6211
  124MOL   H16039766   7.603   0.566   3.549  1.4188  0.6580  0.2170
  124MOL   H16139767   7.366   0.555   3.605  0.3873  0.9674 -0.6427
  124MOL   C16239768   7.211   0.581   3.965  0.2642  0.4341  0.5332
  124MOL   C16339769   7.282   0.453   4.003  0.1081 -0.0408  0.2616
  124MOL   C16439770   7.246   0.412   4.142  0.0301 -0.0706 -0.8386
  124MOL   C16539771   7.351   0.391   4.233 -0.1648 -0.5141 -0.3298
  124MOL   C16639772   7.315   0.346   4.358  0.3819 -0.6021 -0.5187
  124MOL   C16739773   7.186   0.316   4.394  0.6648 -0.3439 -0.4203
  124MOL   C16839774   7.080   0.343   4.302  0.3519  0.0070 -0.3758
  124MOL   C16939775   7.109   0.392   4.176 -0.0028 -0.0301  0.1006
  124MOL   H17039776   7.106   0.587   3.994 -0.1035 -0.7282 -0.5016
  124MOL   H17139777   7.249   0.646   4.045 -0.0100  1.3182 -0.0441
  124MOL   H17239778   7.387   0.482   4.006  0.8113 -2.2960 -1.3614
  124MOL   H17339779   7.454   0.409   4.204 -0.4673  1.7760 -0.0743
  124MOL   H17439780   7.394   0.328   4.430 -1.2834 -0.9006  1.2565
  124MOL   H17539781   7.161   0.273   4.490 -0.8793  2.3549  0.4490
  124MOL   H17639782   6.976   0.324   4.326  0.5036 -1.9715 -1.1759
  124MOL   H17739783   7.041   0.404   4.092  1.9496 -2.5581 -1.9276
  124MOL   C17839784   7.258   0.330   3.914 -0.4373 -0.5985 -0.4545
  124MOL   C17939785   7.378   0.281   3.833 -0.2402  0.2297  0.0056
  124MOL   C18039786   7.507   0.253   3.909  0.4458 -0.1627 -0.0172
  124MOL   C18139787   7.622   0.342   3.898 -0.3549  0.1567  0.5166
  124MOL   C18239788   7.728   0.310   3.981  0.2312  0.4294 -0.2726
  124MOL   C18339789   7.733   0.199   4.068 -0.9106 -0.2418 -0.1504
  124MOL   C18439790   7.621   0.121   4.078  0.1095 -0.3820 -0.8342
  124MOL   C18539791   7.510   0.139   3.993 -0.2978 -0.0517 -0.3745
  124MOL   H18639792   7.176   0.357   3.847 -1.6072 -0.7837  0.8707
  124MOL   H18739793   7.232   0.244   3.975 -0.1289  0.6183  1.4368
  124MOL   H18839794   7.412   0.352   3.758  1.3165 -0.4130  0.0724
  124MOL   H18939795   7.610   0.428   3.834  1.6480 -1.7245 -2.4573
  124MOL   H19039796   7.820   0.367   3.985  1.2195 -1.0973 -0.6755
  124MOL   H19139797   7.816   0.197   4.138 -0.5590 -0.3501 -0.5709
  124MOL   H19239798   7.621   0.034   4.142 -0.4422  1.3620  1.5922
  124MOL   H19339799   7.426   0.072   3.994 -0.1201 -0.2707 -0.0979
  124MOL   C19439800   7.333   0.148   3.757  0.0024  0.0097  0.3412
  124MOL   C19539801   7.251   0.175   3.630  0.1192 -0.1062 -0.1893
  124MOL   C19639802   7.326   0.246   3.520 -1.0210  0.3545  0.0313
  124MOL   C19739803   7.250   0.332   3.438  0.3621  0.1915  1.5104
  124MOL   C19839804   7.311   0.408   3.332  0.1973 -0.9790  0.7536
  124MOL   C19939805   7.448   0.392   3.305 -0.2120  0.8021  0.5848
  124MOL   C20039806   7.522   0.306   3.392  0.4363  0.5923 -0.1202
  124MOL   C20139807   7.462   0.228   3.495 -0.6411 -0.2295  0.4186
  124MOL   H20239808   7.286   0.081   3.829 -1.1749  0.9585  0.4838
  124MOL   H20339809   7.423   0.096   3.726  0.9961  2.3592 -0.7904
  124MOL   H20439810   7.171   0.231   3.678 -0.9141 -0.7691 -1.1177
  124MOL   H20539811   7.145   0.343   3.456  0.2654 -1.0053  1.7545
  124MOL   H20639812   7.247   0.466   3.267 -2.5588 -2.6192  1.9050
  124MOL   H20739813   7.498   0.446   3.227 -0.3135 -1.7410 -1.2950
  124MOL   H20839814   7.628   0.288   3.375  0.0157 -2.2882 -0.0092
  124MOL   H20939815   7.520   0.160   3.556 -0.5487 -0.0820  0.4968
  124MOL   C21039816   7.179   0.046   3.577 -0.0740  0.1822 -0.6143
  124MOL   C21139817   7.250   8.058   3.487  0.0623 -0.3950  0.0959
  124MOL   C21239818   7.343   7.965   3.572  0.3545 -0.0424 -0.2522
  124MOL   C21339819   7.307   7.907   3.698  0.4832  0.1173 -0.1195
  124MOL   C21439820   7.390   7.824   3.773 -1.0045 -0.1408 -0.3255
  124MOL   C21539821   7.515   7.792   3.716 -0.1574  0.4454  0.2643
  124MOL   C21639822   7.556   7.853   3.595  0.3320 -0.0195 -0.7699
  124MOL   C21739823   7.471   7.941   3.529 -0.2025  0.0183 -0.1774
  124MOL   H21839824   7.094   0.084   3.522  0.8595  1.8555 -0.9320
  124MOL   H21939825   7.121   8.103   3.649 -1.1003 -0.2953 -1.8145
  124MOL   H22039826   7.312   8.101   3.409  0.0009 -3.2814 -1.6013
  124MOL   H22139827   7.205   7.929   3.728 -0.1429 -0.5992 -1.6539
  124MOL   H22239828   7.372   7.767   3.863  1.1623  0.0945  0.2785
  124MOL   H22339829   7.582   7.732   3.777 -1.3817  0.7307  1.9375
  124MOL   H22439830   7.656   7.841   3.555  0.8514  2.2003 -0.1903
  124MOL   H22539831   7.508   7.995   3.442 -2.4050  2.0876  0.1181
  124MOL   C22639832   7.149   7.969   3.407 -0.0391  0.6349  0.3106
  124MOL   C22739833   7.200   7.861   3.305  0.5739  0.6573  0.3352
  124MOL   C22839834   7.085   7.771   3.264  0.5604  0.1391  0.8409
  124MOL   C22939835   7.070   7.638   3.311 -0.9125  0.3491 -0.0816
  124MOL   C23039836   6.959   7.561   3.273  0.0702  0.1935  0.3495
  124MOL   C23139837   6.865   7.610   3.181 -0.6181  0.3440 -0.1845
  124MOL   C23239838   6.872   7.743   3.141 -0.0621 -0.6396 -0.6613
  124MOL   C23339839   6.982   7.820   3.179  0.4114 -0.1178 -0.5561
  124MOL   H23439840   7.089   8.045   3.357  0.6083  1.2389  0.4610
  124MOL   H23539841   7.090   7.904   3.473  0.5304  1.1351  1.3145
  124MOL   H23639842   7.273   7.799   3.357  3.2843  3.6505  0.2690
  124MOL   H23739843   7.161   7.600   3.355 -0.6211  2.8018  1.5099
  124MOL   H23839844   6.944   7.466   3.321 -0.4101  0.0430 -0.0928
  124MOL   H23939845   6.782   7.558   3.136  0.0026 -0.4971 -0.3809
  124MOL   H24039846   6.808   7.787   3.066  0.7876 -0.2977 -1.2060
  124MOL   H24139847   6.999   7.917   3.136  0.4463  0.7286  1.3254
  124MOL   C24239848   7.270   7.927   3.181 -0.2995 -0.2559 -0.0205
  124MOL   C24339849   7.334   7.838   3.069  0.1707  0.2134 -0.7228
  124MOL   C24439850   7.373   7.923   2.952 -0.4157  1.0445  0.3962
  124MOL   C24539851   7.321   7.893   2.831  0.1130 -0.3129  0.2348
  124MOL   C24639852   7.351   7.960   2.713 -0.5232 -0.5921  0.3225
  124MOL   C24739853   7.439   8.065   2.723 -0.0963 -0.7088 -0.0383
  124MOL   C24839854   7.497   8.100   2.844  0.4888  0.0278  0.2056
  124MOL   C24939855   7.460   8.034   2.958 -0.5053  0.9946 -0.8407
  124MOL   H25039856   7.348   7.988   3.223  0.3139 -0.9561 -0.1316
  124MOL   H25139857   7.201   7.994   3.129  0.5135  0.1150 -0.6353
  124MOL   H25239858   7.263   7.761   3.041 -2.0475  1.8337  0.3252
  124MOL   H25339859   7.241   7.821   2.831 -0.6903  0.5555 -1.7952
  124MOL   H25439860   7.289   7.939   2.627  2.1079  0.8301 -2.0131
  124MOL   H25539861   7.466   0.003   2.633 -0.1764  2.1157  1.5376
  124MOL   H25639862   7.582   0.051   2.848  1.3830 -0.9693 -1.5125
  124MOL   H25739863   7.512   8.064   3.047 -3.0483 -1.0144  1.4234
  124MOL   C25839864   7.463   7.764   3.115  0.2237 -0.3899  0.1714
  124MOL   C25939865   7.431   7.608   3.122 -0.6246  0.0293 -0.5277
  124MOL   C26039866   7.382   7.545   2.990  0.3269 -0.2736  0.2375
  124MOL   C26139867   7.275   7.453   2.986  0.3739 -0.2213 -0.1835
  124MOL   C26239868   7.245   7.375   2.872  0.4864 -0.0717 -0.4199
  124MOL   C26339869   7.323   7.396   2.758  0.7022  0.2838 -0.2429
  124MOL   C26439870   7.417   7.496   2.755  0.2577 -0.7104 -0.2247
  124MOL   C26539871   7.445   7.573   2.869 -0.1652 -0.4919  0.1761
  124MOL   H26639872   7.505   7.796   3.211  2.3848 -1.2246 -0.4735
  124MOL   H26739873   7.540   7.792   3.043 -1.6093  1.6908 -1.0762
  124MOL   H26839874   7.350   7.609   3.195  1.6658  0.7373  2.0911
  124MOL   H26939875   7.218   7.441   3.076  2.2800 -2.9376  0.7190
  124MOL   H27039876   7.161   7.308   2.865 -1.0075  1.6157  0.8978
  124MOL   H27139877   7.302   7.344   2.665  0.3624 -0.5095  0.2675
  124MOL   H27239878   7.464   7.528   2.664  1.1381 -0.9580  0.1426
  124MOL   H27339879   7.516   7.655   2.867  0.2185 -0.8092  0.8004
  124MOL   C27439880   7.562   7.540   3.165  1.0270  0.3104 -0.6614
  124MOL   C27539881   7.582   7.393   3.153  0.0310  0.3299 -0.4017
  124MOL   C27639882   7.736   7.368   3.155  0.4175  0.6310 -0.5699
  124MOL   C27739883   7.805   7.337   3.273 -0.4240 -0.3586  0.0405
  124MOL   C27839884   7.946   7.303   3.258  0.0467 -0.0874 -0.2899
  124MOL   C27939885   8.011   7.299   3.132 -0.3448 -0.4428 -0.3453
  124MOL   C28039886   7.931   7.322   3.017 -0.6878  0.2918  0.2171
  124MOL   C28139887   7.802   7.372   3.029 -0.1361  0.9089 -1.1579
  124MOL   H28239888   7.607   7.566   3.262 -0.0127 -0.5528  0.0604
  124MOL   H28339889   7.629   7.583   3.091  0.6906 -1.6933 -2.1527
  124MOL   H28439890   7.548   7.364   3.053 -0.5987 -0.7537  0.1248
  124MOL   H28539891   7.763   7.335   3.372 -0.9071  1.0449 -0.1220
  124MOL   H28639892   8.008   7.272   3.341 -0.6739  0.4519  0.4631
  124MOL   H28739893   0.002   7.278   3.126  0.2344  2.3090 -0.2864
  124MOL   H28839894   7.981   7.332   2.921 -0.1643  1.3513  0.5862
  124MOL   H28939895   7.749   7.405   2.940 -1.6299  0.7207 -0.3603
  124MOL   C29039896   7.490   7.323   3.248 -0.2728 -0.1219 -0.5011
  124MOL   C29139897   7.531   7.171   3.246  0.2474  0.3876 -0.8072
  124MOL   C29239898   7.488   7.103   3.383  0.3647  0.1868  0.5694
  124MOL   C29339899   7.371   7.140   3.448  0.2864 -0.3950 -0.4606
  124MOL   C29439900   7.333   7.089   3.573 -0.0658  0.3810  0.0516
  124MOL   C29539901   7.412   6.986   3.626 -0.6444 -0.5343  0.2711
  124MOL   C29639902   7.525   6.942   3.560 -0.1063 -0.2279 -0.1625
  124MOL   C29739903   7.570   7.003   3.442  0.9859  0.1770  1.0148
  124MOL   H29839904   7.387   7.336   3.215 -1.3575 -2.7524  1.6736
  124MOL   H29939905   7.497   7.365   3.349  0.6353 -1.8232  0.1621
  124MOL   H30039906   7.638   7.154   3.238  0.4021  1.4682 -1.1127
  124MOL   H30139907   7.299   7.209   3.405 -0.6827 -0.8112  0.4584
  124MOL   H30239908   7.242   7.120   3.622 -0.4211 -1.6197  0.6932
  124MOL   H30339909   7.396   6.959   3.730 -2.1313 -1.8029 -0.2605
  124MOL   H30439910   7.594   6.879   3.614  0.2850  0.1649 -0.1988
  124MOL   H30539911   7.666   6.981   3.398  0.3595  0.4977 -0.5105
  124MOL   C30639912   7.458   7.080   3.136  0.4357 -0.3915 -0.4482
  124MOL   C30739913   7.484   7.109   2.989 -0.3592 -0.3583  0.2545
  124MOL   C30839914   7.418   7.011   2.890  0.3347 -0.7256 -0.1310
  124MOL   C30939915   7.494   6.933   2.803 -0.2358 -0.2921 -0.3011
  124MOL   C31039916   7.432   6.841   2.714 -0.1274 -0.0186  0.3360
  124MOL   C31139917   7.291   6.843   2.707 -0.8067  0.3259  0.1386
  124MOL   C31239918   7.210   6.922   2.790  0.5249  0.5596 -0.0679
  124MOL   C31339919   7.278   7.004   2.886  0.3302  0.7589 -0.1895
  124MOL   H31439920   7.349   7.085   3.140  0.5574  2.1579  0.0586
  124MOL   H31539921   7.480   6.974   3.150 -0.5007 -0.1739  3.2574
  124MOL   H31639922   7.592   7.099   2.977 -0.1777  1.7419  0.0897
  124MOL   H31739923   7.601   6.944   2.798 -0.0466 -1.3059  1.3151
  124MOL   H31839924   7.479   6.773   2.645  0.0320  0.4276  0.0050
  124MOL   H31939925   7.234   6.781   2.640 -0.6221  2.5396 -2.1451
  124MOL   H32039926   7.104   6.928   2.775  0.4038 -0.1853  0.5097
  124MOL   H32139927   7.218   7.069   2.948  1.5850 -0.1214  2.0402
  124MOL   H32239928   7.452   7.209   2.962  0.6276  0.1394  0.9176
  125MOL     C139929   0.527   3.575   7.227  0.8810  0.3968 -0.6001
  125MOL     C239930   0.385   3.619   7.178  0.1374 -0.0313  0.5758
  125MOL     C339931   0.334   3.740   7.259 -0.0017 -0.1073 -1.0813
  125MOL     C439932   0.374   3.867   7.233 -0.9597  0.6553  0.3796
  125MOL     C539933   0.308   3.977   7.291  0.4252  0.2805 -0.2508
  125MOL     C639934   0.213   3.952   7.397 -0.5247 -0.0384  0.0915
  125MOL     C739935   0.181   3.820   7.426  0.1777  0.5140 -0.1649
  125MOL     C839936   0.235   3.715   7.354 -0.3471  0.2332 -0.1623
  125MOL     H939937   0.513   3.532   7.326  1.8747 -0.4539 -0.8175
  125MOL    H1039938   0.586   3.500   7.175 -0.0652  0.0593 -1.2031
  125MOL    H1139939   0.329   3.528   7.201  0.0996  0.1480  1.1987
  125MOL    H1239940   0.447   3.890   7.156 -1.4694 -0.1263 -0.3538
  125MOL    H1339941   0.332   4.077   7.260  1.3317  0.5201  1.2136
  125MOL    H1439942   0.160   4.030   7.449 -0.4215  0.1877 -0.1464
  125MOL    H1539943   0.101   3.797   7.495  0.7315 -0.5932  0.1211
  125MOL    H1639944   0.207   3.615   7.384 -1.8647  0.2531 -1.4638
  125MOL    H1739945   0.586   3.662   7.254  0.1809  0.8056 -0.3922
  125MOL    C1839946   0.373   3.644   7.020 -0.5265  0.3164 -0.7728
  125MOL    C1939947   0.238   3.707   6.980  0.1315  0.9256 -0.3160
  125MOL    C2039948   0.229   3.720   6.828 -0.6089  0.5506  0.7170
  125MOL    C2139949   0.194   3.842   6.772  0.2086 -0.4289 -0.0737
  125MOL    C2239950   0.151   3.842   6.636  0.0845 -0.0910 -0.7136
  125MOL    C2339951   0.158   3.726   6.554 -0.0344  0.1577 -0.3183
  125MOL    C2439952   0.205   3.609   6.608 -0.3952  0.3393 -0.7392
  125MOL    C2539953   0.238   3.607   6.744  0.5361 -0.5187  0.1663
  125MOL    H2639954   0.402   3.561   6.956  1.3829  2.1724 -2.4040
  125MOL    H2739955   0.456   3.713   7.003 -0.3358  0.7064  1.5904
  125MOL    H2839956   0.253   3.806   7.023  2.6518 -0.2521  1.6206
  125MOL    H2939957   0.175   3.919   6.846 -1.8736 -2.2074  1.3037
  125MOL    H3039958   0.115   3.933   6.592  0.4097 -0.0961 -0.9925
  125MOL    H3139959   0.122   3.733   6.452 -0.0088  0.2719 -0.3191
  125MOL    H3239960   0.210   3.521   6.545 -1.9654  1.2972 -2.2666
  125MOL    H3339961   0.265   3.513   6.791 -1.3258 -0.6667  0.9756
  125MOL    C3439962   0.112   3.639   7.032 -0.4403 -0.0932 -0.1385
  125MOL    C3539963   8.100   3.726   7.015  0.1086  0.3069 -0.7931
  125MOL    C3639964   7.983   3.628   7.036 -0.1612  0.3397  0.0617
  125MOL    C3739965   7.940   3.591   7.167 -0.4463  0.4720  0.8569
  125MOL    C3839966   7.826   3.508   7.193 -0.6024 -0.0792  0.1435
  125MOL    C3939967   7.770   3.443   7.078  0.3413  0.4842  0.5944
  125MOL    C4039968   7.813   3.470   6.949 -0.0698 -0.0769 -1.1687
  125MOL    C4139969   7.914   3.570   6.927  0.4404  1.0483 -0.0477
  125MOL    H4239970   0.119   3.606   7.136 -0.0463 -1.7246 -0.6700
  125MOL    H4339971   0.103   3.549   6.970  3.4391  0.0961 -1.0531
  125MOL    H4439972   8.089   3.752   6.910 -3.1315 -2.8181 -1.3316
  125MOL    H4539973   8.008   3.616   7.247 -1.3743  1.4398  1.3552
  125MOL    H4639974   7.800   3.498   7.297 -0.0017 -0.2005  0.2832
  125MOL    H4739975   7.690   3.372   7.094  0.3805  0.3597  0.2441
  125MOL    H4839976   7.760   3.424   6.867  1.0402 -0.9523 -1.4003
  125MOL    H4939977   7.925   3.605   6.826  0.6205  1.8138  0.2311
  125MOL    C5039978   8.101   3.848   7.121 -0.2303  0.2108 -0.3144
  125MOL    C5139979   7.981   3.934   7.118 -0.2091 -1.0304 -0.4100
  125MOL    C5239980   7.973   4.018   7.239  0.3556 -0.1535 -0.6602
  125MOL    C5339981   8.061   4.128   7.265 -0.0483 -0.2243 -0.4767
  125MOL    C5439982   8.059   4.206   7.379  0.1134 -0.0986 -0.4118
  125MOL    C5539983   7.964   4.169   7.476 -0.4175  0.1738 -0.3507
  125MOL    C5639984   7.880   4.057   7.458 -1.0933 -0.9205  0.0291
  125MOL    C5739985   7.889   3.975   7.345  0.0542 -0.5305 -0.4248
  125MOL    H5839986   0.079   3.903   7.107 -0.6173  0.7633 -0.7271
  125MOL    H5939987   8.106   3.815   7.225  1.7256  2.8645  0.4705
  125MOL    H6039988   7.893   3.869   7.114 -0.8658 -0.2140  0.6439
  125MOL    H6139989   0.006   4.167   7.184  0.5014 -0.4247 -0.1688
  125MOL    H6239990   0.013   4.290   7.383  0.4405 -0.3459 -0.7918
  125MOL    H6339991   7.958   4.242   7.556  0.0830  1.2392 -1.2701
  125MOL    H6439992   7.817   4.020   7.538 -0.6767 -2.0616 -0.1568
  125MOL    H6539993   7.831   3.885   7.326 -1.3657 -0.0230  1.3266
  125MOL    C6639994   7.974   4.007   6.982  0.2276  0.8738  0.0250
  125MOL    C6739995   7.864   4.117   6.966 -0.0327  0.0363 -0.0906
  125MOL    C6839996   7.864   4.201   6.834 -0.7031 -0.6138 -0.5674
  125MOL    C6939997   7.841   4.340   6.839  0.5284 -0.2572 -0.1024
  125MOL    C7039998   7.825   4.416   6.722  0.0213  0.1456  0.4966
  125MOL    C7139999   7.845   4.360   6.595  0.6493  0.2752 -0.1764
  125MOL    C7240000   7.877   4.223   6.589  0.0080  0.6674 -0.2853
  125MOL    C7340001   7.884   4.149   6.706  0.5158 -0.0485  0.0938
  125MOL    H7440002   7.976   3.935   6.900 -2.4363  0.4061  0.3491
  125MOL    H7540003   8.061   4.072   6.966  0.6185  0.6387  1.1773
  125MOL    H7640004   7.889   4.181   7.051 -0.7260  1.4724 -0.9590
  125MOL    H7740005   7.833   4.388   6.936 -0.7385  1.6679 -1.1301
  125MOL    H7840006   7.810   4.523   6.730  1.8694  0.4697 -0.0214
  125MOL    H7940007   7.848   4.422   6.506  2.0292  1.0661  0.4190
  125MOL    H8040008   7.890   4.180   6.490  1.6961 -1.0387  0.6333
  125MOL    H8140009   7.902   4.043   6.694 -1.0243 -0.4676  1.2025
  125MOL    C8240010   7.724   4.049   6.982 -0.4560  0.6386 -0.8234
  125MOL    C8340011   7.646   4.103   7.104 -0.6780  0.7729  0.1932
  125MOL    C8440012   7.637   4.258   7.110 -0.3217  0.9106 -0.2962
  125MOL    C8540013   7.701   4.336   7.207  0.2573 -0.2336  0.2570
  125MOL    C8640014   7.684   4.471   7.210  0.0522 -0.0769  0.5700
  125MOL    C8740015   7.620   4.541   7.102  0.3823 -0.3507  0.2860
  125MOL    C8840016   7.551   4.467   7.003  0.2041 -0.1040  0.2814
  125MOL    C8940017   7.564   4.326   7.005  0.0924 -0.3043 -0.1276
  125MOL    H9040018   7.744   3.942   6.980  0.6315  0.8393 -2.4809
  125MOL    H9140019   7.656   4.069   6.899 -0.7059  0.4092 -0.6763
  125MOL    H9240020   7.702   4.065   7.189  1.9011  0.5566 -1.5556
  125MOL    H9340021   7.765   4.288   7.280  0.1326 -0.3795  0.2702
  125MOL    H9440022   7.734   4.531   7.285  0.1026  0.1579  0.3477
  125MOL    H9540023   7.611   4.649   7.101  1.6488 -0.2513 -1.1466
  125MOL    H9640024   7.501   4.525   6.928  1.2460  1.1365  0.5237
  125MOL    H9740025   7.507   4.271   6.932  0.0122  0.0510 -0.3311
  125MOL    C9840026   7.502   4.054   7.091  0.9141 -0.5180 -0.5297
  125MOL    C9940027   7.492   3.904   7.120 -0.4580 -0.4642 -0.0377
  125MOL   C10040028   7.505   3.861   7.271  0.0945  0.4040  0.5435
  125MOL   C10140029   7.579   3.740   7.305  0.4001 -0.3569 -0.2534
  125MOL   C10240030   7.596   3.698   7.437  1.2580  0.4696  0.1162
  125MOL   C10340031   7.532   3.774   7.536 -0.2633 -0.2084  0.5809
  125MOL   C10440032   7.476   3.900   7.508  0.0942  0.2481  0.1274
  125MOL   C10540033   7.462   3.945   7.373 -0.2806  0.0660  0.2718
  125MOL   H10640034   7.450   4.080   6.999 -2.2993 -0.0317  1.3239
  125MOL   H10740035   7.436   4.110   7.158  2.2064  0.2907  0.0760
  125MOL   H10840036   7.566   3.850   7.061 -1.6061  0.4587 -2.3666
  125MOL   H10940037   7.620   3.684   7.222  2.0740  1.2925 -0.5983
  125MOL   H11040038   7.643   3.602   7.451  1.1555  0.0636 -2.0123
  125MOL   H11140039   7.534   3.746   7.640  1.4756  0.3106  0.7102
  125MOL   H11240040   7.433   3.962   7.586  1.9603  0.0444  1.3404
  125MOL   H11340041   7.403   4.034   7.356 -0.1305  0.6210  2.5726
  125MOL   C11440042   7.366   3.835   7.066 -0.4334  0.4982 -0.7074
  125MOL   C11540043   7.324   3.842   6.920  0.3363  0.4661  0.4388
  125MOL   C11640044   7.442   3.847   6.825  0.3314 -0.3716  0.3331
  125MOL   C11740045   7.468   3.960   6.744  0.2406 -0.0983 -0.5349
  125MOL   C11840046   7.569   3.960   6.648  0.0208 -0.2002  0.4642
  125MOL   C11940047   7.660   3.849   6.643 -0.4662 -0.4718  0.0928
  125MOL   C12040048   7.630   3.737   6.720 -0.4587 -0.2953  0.6972
  125MOL   C12140049   7.519   3.733   6.809 -0.1815 -0.6232  0.0453
  125MOL   H12240050   7.284   3.858   7.134 -0.9188 -0.9295 -0.7827
  125MOL   H12340051   7.370   3.728   7.085  2.7353  0.5416 -0.9595
  125MOL   H12440052   7.262   3.926   6.889 -1.1908 -1.7122 -2.6209
  125MOL   H12540053   7.418   4.056   6.748 -3.1697 -1.7726 -0.9704
  125MOL   H12640054   7.592   4.052   6.596 -2.1232 -0.0545 -0.2679
  125MOL   H12740055   7.751   3.851   6.586  0.1369 -1.2010  1.0078
  125MOL   H12840056   7.691   3.648   6.722 -1.2682 -0.8672  0.4234
  125MOL   H12940057   7.509   3.650   6.878  2.1571  0.5105  1.8214
  125MOL   C13040058   7.231   3.717   6.888 -0.1683  0.3130 -0.2570
  125MOL   C13140059   7.184   3.710   6.745  0.1705  0.1201 -0.0352
  125MOL   C13240060   7.158   3.563   6.706 -0.7667  0.1811  0.1874
  125MOL   C13340061   7.262   3.504   6.627  0.1288 -0.3989 -0.3465
  125MOL   C13440062   7.257   3.369   6.593  0.1421 -0.1549  0.0191
  125MOL   C13540063   7.154   3.291   6.651  0.0787  0.3673  0.8409
  125MOL   C13640064   7.046   3.351   6.726  0.1057  0.5358 -0.3538
  125MOL   C13740065   7.057   3.482   6.761  0.5167 -0.1771  0.2331
  125MOL   H13840066   7.149   3.717   6.960 -0.3566  1.1695 -0.4713
  125MOL   H13940067   7.285   3.625   6.912 -1.9936 -0.7313 -0.0532
  125MOL   H14040068   7.264   3.746   6.680  0.7195 -3.9577 -1.7617
  125MOL   H14140069   7.345   3.565   6.594 -0.6952  0.5786 -0.6240
  125MOL   H14240070   7.344   3.323   6.548 -0.5033 -1.8820  0.4869
  125MOL   H14340071   7.156   3.186   6.624 -0.0624  0.9748 -1.7271
  125MOL   H14440072   6.964   3.291   6.764  1.1581 -0.8779 -0.2586
  125MOL   H14540073   7.000   3.515   6.847  0.8968 -1.6179  1.0454
  125MOL   C14640074   7.056   3.789   6.722  0.3108 -0.7909 -0.4695
  125MOL   C14740075   7.070   3.915   6.633 -0.6534 -0.0762  0.1730
  125MOL   C14840076   7.149   3.892   6.500 -0.7581  0.4835  0.6037
  125MOL   C14940077   7.133   3.780   6.425  0.7246  0.3670 -0.0830
  125MOL   C15040078   7.214   3.753   6.314  0.6245 -0.8926 -0.3960
  125MOL   C15140079   7.305   3.850   6.259  0.0415 -0.4203  0.7236
  125MOL   C15240080   7.316   3.965   6.337  0.4412 -0.2502 -0.2553
  125MOL   C15340081   7.247   3.985   6.461 -0.3919 -0.2721 -0.2852
  125MOL   H15440082   7.014   3.809   6.820 -1.3805  1.8127 -1.6759
  125MOL   H15540083   6.970   3.735   6.681  1.3765 -1.2241 -2.2018
  125MOL   H15640084   7.140   3.975   6.692 -1.8879  0.8898  0.6706
  125MOL   H15740085   7.052   3.711   6.445 -0.3998  1.8978  0.6668
  125MOL   H15840086   7.198   3.666   6.252 -1.3492  0.4682 -1.8386
  125MOL   H15940087   7.355   3.835   6.165 -1.9087  0.1278 -0.4166
  125MOL   H16040088   7.373   4.048   6.298  0.4864 -0.8351 -1.4785
  125MOL   H16140089   7.252   4.077   6.517 -1.5107  0.0690 -0.7204
  125MOL   C16240090   6.949   4.001   6.611 -0.5659  0.1017  0.1805
  125MOL   C16340091   6.922   4.096   6.735 -1.0915  1.2902 -0.1145
  125MOL   C16440092   7.033   4.205   6.750  0.3057 -0.3809  0.0174
  125MOL   C16540093   7.076   4.292   6.645 -0.6683 -0.1027  0.4536
  125MOL   C16640094   7.168   4.390   6.669 -0.0835 -0.0900  0.4745
  125MOL   C16740095   7.227   4.405   6.794  0.0030  0.5753 -0.8275
  125MOL   C16840096   7.192   4.309   6.899 -0.3215 -0.4152 -0.3991
  125MOL   C16940097   7.090   4.220   6.876 -1.0719  0.9257 -0.3794
  125MOL   H17040098   6.858   3.945   6.591 -1.7361  1.8489  0.5081
  125MOL   H17140099   6.967   4.063   6.522 -1.0092 -0.5842 -0.3894
  125MOL   H17240100   6.924   4.029   6.821 -0.9638 -1.4191 -2.1664
  125MOL   H17340101   7.031   4.268   6.550 -0.7461 -2.4231  1.0328
  125MOL   H17440102   7.197   4.459   6.591  0.3783 -0.0901  0.6474
  125MOL   H17540103   7.303   4.479   6.811  0.4215 -0.2167  0.9544
  125MOL   H17640104   7.233   4.307   6.999 -0.2960 -5.0381 -0.3952
  125MOL   H17740105   7.063   4.154   6.957 -0.8972  0.4909 -0.6753
  125MOL   C17840106   6.784   4.152   6.720 -0.7228 -0.2326 -0.3613
  125MOL   C17940107   6.662   4.063   6.742  0.6112 -0.0909  0.4058
  125MOL   C18040108   6.655   3.985   6.872  0.5205 -0.4117 -0.0045
  125MOL   C18140109   6.642   4.038   7.001  0.1316  0.2159 -0.2231
  125MOL   C18240110   6.631   3.948   7.111  0.3245  0.1345 -0.6583
  125MOL   C18340111   6.610   3.807   7.093 -0.3551  0.7407 -0.0834
  125MOL   C18440112   6.636   3.753   6.969  0.0838  0.4033  0.4742
  125MOL   C18540113   6.651   3.841   6.859 -0.2510  0.2049  0.0811
  125MOL   H18640114   6.783   4.197   6.621  0.6588 -2.2115 -1.3135
  125MOL   H18740115   6.778   4.233   6.792  0.9270  0.2222 -0.7014
  125MOL   H18840116   6.659   3.991   6.660 -1.1006 -0.6707  0.9587
  125MOL   H18940117   6.643   4.144   7.026  1.8355  0.2428 -0.3395
  125MOL   H19040118   6.616   4.002   7.203  0.2121  3.0015 -2.2811
  125MOL   H19140119   6.577   3.748   7.177 -2.5822  1.2398 -0.5649
  125MOL   H19240120   6.640   3.648   6.948 -0.1811  0.8012 -1.7467
  125MOL   H19340121   6.643   3.794   6.762  0.3316 -1.7693  0.9619
  125MOL   C19440122   6.537   4.153   6.722 -1.2036  0.2342 -0.1452
  125MOL   C19540123   6.401   4.073   6.702 -0.5437 -1.1087 -0.5245
  125MOL   C19640124   6.297   4.119   6.807 -0.0441 -0.1019 -0.6056
  125MOL   C19740125   6.284   4.044   6.929 -0.1433 -0.0817 -0.1979
  125MOL   C19840126   6.196   4.087   7.031  0.0406 -0.0725  0.3300
  125MOL   C19940127   6.131   4.214   7.018 -0.5735 -0.3074  0.4926
  125MOL   C20040128   6.152   4.294   6.904  0.1744 -0.0367 -0.1022
  125MOL   C20140129   6.234   4.246   6.796  0.1709  0.2461  0.8582
  125MOL   H20240130   6.565   4.212   6.635  2.0550 -1.1765 -0.1511
  125MOL   H20340131   6.537   4.219   6.809 -0.1912  1.8847 -1.3500
  125MOL   H20440132   6.409   3.968   6.732  0.8386 -0.4546  1.5319
  125MOL   H20540133   6.336   3.950   6.941 -0.5005 -0.3080 -0.4363
  125MOL   H20640134   6.176   4.029   7.120 -0.5283 -0.5928 -0.1391
  125MOL   H20740135   6.065   4.251   7.095 -0.6728 -1.9320  1.2144
  125MOL   H20840136   6.101   4.389   6.909 -0.0842 -0.2150  0.8253
  125MOL   H20940137   6.246   4.310   6.709 -0.7698 -0.0556  0.5028
  125MOL   C21040138   6.345   4.081   6.562 -0.1853 -0.4102  0.7183
  125MOL   C21140139   6.424   4.012   6.450 -0.8797 -0.5882  0.8251
  125MOL   C21240140   6.396   3.863   6.431  0.1495 -0.4572  0.3426
  125MOL   C21340141   6.495   3.766   6.456  0.2889 -0.0201 -0.5033
  125MOL   C21440142   6.465   3.630   6.433  0.0842 -0.3983  0.0421
  125MOL   C21540143   6.340   3.590   6.386 -0.1164 -0.1506  1.4408
  125MOL   C21640144   6.243   3.684   6.361 -0.2049  0.1090 -0.1509
  125MOL   C21740145   6.275   3.818   6.384 -0.8244 -0.3245 -1.2920
  125MOL   H21840146   6.322   4.184   6.537 -0.7258 -0.6869  0.0433
  125MOL   H21940147   6.247   4.032   6.566  0.4799 -1.9414 -0.9047
  125MOL   H22040148   6.528   4.007   6.482 -0.3213 -2.9047 -1.1776
  125MOL   H22140149   6.595   3.800   6.481 -0.7150  2.3325  0.4829
  125MOL   H22240150   6.539   3.551   6.431 -0.7474 -1.1684 -2.7841
  125MOL   H22340151   6.317   3.485   6.371 -0.0575 -0.1892  1.6264
  125MOL   H22440152   6.142   3.654   6.338 -0.6996  1.6528 -0.0456
  125MOL   H22540153   6.199   3.891   6.361 -1.7180 -0.8936 -0.1779
  125MOL   C22640154   6.418   4.099   6.321 -0.7150 -0.0717  0.9459
  125MOL   C22740155   6.546   4.193   6.292 -0.3393 -0.0226 -0.4691
  125MOL   C22840156   6.662   4.106   6.242  0.3221 -0.4120 -0.7255
  125MOL   C22940157   6.787   4.113   6.299 -0.3417  0.5866 -0.4321
  125MOL   C23040158   6.896   4.030   6.264 -0.6408  0.0505 -0.0144
  125MOL   C23140159   6.873   3.945   6.154  0.0016 -0.3065  0.3664
  125MOL   C23240160   6.750   3.937   6.087 -0.1166  0.1997 -0.2326
  125MOL   C23340161   6.644   4.020   6.130 -0.5168 -0.0803  0.3134
  125MOL   H23440162   6.325   4.155   6.320 -0.4366  0.4050 -0.8283
  125MOL   H23540163   6.399   4.034   6.235 -1.6166 -0.0859  1.1574
  125MOL   H23640164   6.584   4.223   6.390  2.2963  0.4503 -1.5814
  125MOL   H23740165   6.791   4.181   6.382 -1.2278 -2.5658  2.3022
  125MOL   H23840166   6.994   4.029   6.309  0.5387 -1.3617 -2.4969
  125MOL   H23940167   6.952   3.874   6.135 -1.2397 -1.0729 -2.1057
  125MOL   H24040168   6.740   3.868   6.005 -0.2518  0.1287 -0.1549
  125MOL   H24140169   6.554   4.014   6.071 -0.1864 -1.1790 -0.0929
  125MOL   C24240170   6.506   4.314   6.214  0.1784 -0.4887  0.1342
  125MOL   C24340171   6.453   4.433   6.287 -0.6948 -0.2430  0.0586
  125MOL   C24440172   6.554   4.498   6.378  0.2366 -0.2031  0.0905
  125MOL   C24540173   6.667   4.565   6.325  0.4200  0.4129  0.0086
  125MOL   C24640174   6.765   4.609   6.418  0.0887  0.3879  0.0661
  125MOL   C24740175   6.753   4.589   6.559  0.2857  0.4104 -0.1324
  125MOL   C24840176   6.641   4.516   6.612 -0.2734 -0.3567 -0.7394
  125MOL   C24940177   6.549   4.462   6.517  0.1203 -0.1418  0.6518
  125MOL   H25040178   6.433   4.279   6.141  1.5333  1.7412 -2.3679
  125MOL   H25140179   6.590   4.345   6.152 -0.0651  0.8046  0.4204
  125MOL   H25240180   6.375   4.391   6.350 -0.5728  1.6384  1.5093
  125MOL   H25340181   6.665   4.600   6.223  0.5028 -0.3757 -0.2682
  125MOL   H25440182   6.847   4.666   6.375  0.0879 -0.6926 -1.4183
  125MOL   H25540183   6.832   4.622   6.625  0.8385 -3.1443  1.0933
  125MOL   H25640184   6.639   4.489   6.716  1.1540 -0.0520 -0.6198
  125MOL   H25740185   6.466   4.402   6.551  0.5910 -1.7349 -0.9466
  125MOL   C25840186   6.386   4.542   6.193  0.3036  0.0194  0.4388
  125MOL   C25940187   6.255   4.504   6.125 -1.1407 -0.3972 -0.2013
  125MOL   C26040188   6.153   4.459   6.236  0.9007  0.5155 -0.2902
  125MOL   C26140189   6.123   4.530   6.355  0.4846  0.6631 -0.1585
  125MOL   C26240190   6.028   4.483   6.451 -0.6395  0.3626 -0.3446
  125MOL   C26340191   5.969   4.362   6.426  0.1886  0.2632  0.2292
  125MOL   C26440192   5.995   4.285   6.310 -0.5629 -0.1480 -0.5692
  125MOL   C26540193   6.079   4.336   6.211  0.1977  0.9335 -0.4421
  125MOL   H26640194   6.461   4.589   6.130  0.4812 -0.8643 -0.0182
  125MOL   H26740195   6.353   4.629   6.249  0.2821  1.6730 -2.0823
  125MOL   H26840196   6.272   4.420   6.057  1.3906 -0.6608  0.7035
  125MOL   H26940197   6.183   4.617   6.375 -1.4692  1.6828  1.3619
  125MOL   H27040198   6.015   4.541   6.541 -2.0229 -0.0497 -0.2621
  125MOL   H27140199   5.906   4.315   6.500 -0.0568  1.6613  0.9238
  125MOL   H27240200   5.961   4.183   6.302  1.2028 -0.8063  0.1643
  125MOL   H27340201   6.097   4.277   6.123  2.1247 -0.9877  1.1827
  125MOL   C27440202   6.205   4.608   6.026  0.8480  0.4694 -0.1457
  125MOL   C27540203   6.112   4.564   5.910 -0.2358  0.1872  0.7107
  125MOL   C27640204   6.013   4.676   5.884  0.5926  0.1131 -0.4371
  125MOL   C27740205   6.057   4.813   5.878  0.8684  0.7050 -0.1961
  125MOL   C27840206   5.970   4.919   5.852  0.3916 -0.0932  0.0888
  125MOL   C27940207   5.832   4.891   5.815 -0.2021 -0.5516 -0.3500
  125MOL   C28040208   5.789   4.752   5.826 -0.4096 -0.0100 -0.1397
  125MOL   C28140209   5.877   4.646   5.856  0.3012 -0.0028  0.1077
  125MOL   H28240210   6.289   4.665   5.988 -0.7439  1.8605 -1.6857
  125MOL   H28340211   6.151   4.677   6.092 -0.1208 -0.9865  0.6182
  125MOL   H28440212   6.042   4.481   5.917 -0.2946 -0.0222 -1.8565
  125MOL   H28540213   6.162   4.836   5.893  1.3218 -0.6879 -1.1043
  125MOL   H28640214   6.011   5.018   5.841 -1.4442  0.8405  1.2711
  125MOL   H28740215   5.765   4.969   5.783 -0.1477 -1.0054 -1.5935
  125MOL   H28840216   5.693   4.726   5.783 -0.3613  1.2246 -1.0203
  125MOL   H28940217   5.843   4.545   5.844  0.8486 -0.4361  1.9882
  125MOL   C29040218   6.192   4.534   5.779  0.0320  0.4111  0.2866
  125MOL   C29140219   6.265   4.401   5.784 -0.2039 -0.4627  1.0040
  125MOL   C29240220   6.170   4.276   5.806 -0.2866  0.7487  0.2641
  125MOL   C29340221   6.226   4.171   5.886  0.3896  0.8620 -0.3837
  125MOL   C29440222   6.149   4.058   5.910 -0.7032  0.3183  0.7847
  125MOL   C29540223   6.023   4.052   5.867  0.5604 -0.2720 -0.0929
  125MOL   C29640224   5.960   4.156   5.799 -0.4242  0.0121  0.1285
  125MOL   C29740225   6.033   4.267   5.765  0.2394  0.3349  0.1700
  125MOL   H29840226   6.266   4.610   5.755 -0.3544  1.3294  1.9418
  125MOL   H29940227   6.122   4.532   5.696  1.6894  1.8699 -1.1702
  125MOL   H30040228   6.337   4.421   5.863 -1.7127  0.6915  2.0974
  125MOL   H30140229   6.325   4.180   5.927 -0.3585  2.3717  1.1537
  125MOL   H30240230   6.198   3.979   5.965  1.3365  1.9210  1.3488
  125MOL   H30340231   5.957   3.968   5.880 -2.4213  2.1046  0.5949
  125MOL   H30440232   5.855   4.153   5.776 -0.6994  1.0661  1.2499
  125MOL   H30540233   5.982   4.338   5.701 -2.2838  0.5174  2.3297
  125MOL   C30640234   6.350   4.389   5.654 -0.6071  0.4659 -0.0247
  125MOL   C30740235   6.476   4.298   5.665  0.1532 -0.5387 -0.3584
  125MOL   C30840236   6.589   4.334   5.751 -0.8206 -0.2685 -0.0913
  125MOL   C30940237   6.659   4.235   5.824  0.2052  0.0964 -0.4024
  125MOL   C31040238   6.766   4.273   5.914 -0.9257  0.4429 -0.4230
  125MOL   C31140239   6.780   4.409   5.949  0.0791  0.9542  0.2990
  125MOL   C31240240   6.713   4.502   5.870  0.2221  0.2525  0.0959
  125MOL   C31340241   6.629   4.470   5.766 -0.1570  0.4201 -0.8914
  125MOL   H31440242   6.376   4.484   5.607  0.7324  0.4493  0.6307
  125MOL   H31540243   6.284   4.342   5.582  0.5053  1.0991 -1.4798
  125MOL   H31640244   6.513   4.291   5.563  0.6617  0.1928 -0.2272
  125MOL   H31740245   6.633   4.131   5.813  0.9203 -0.0131 -1.1518
  125MOL   H31840246   6.830   4.209   5.972  0.0279  0.7296 -1.1356
  125MOL   H31940247   6.852   4.444   6.022  0.0429 -0.4494  1.0339
  125MOL   H32040248   6.741   4.605   5.889  2.6156 -0.5006  0.8441
  125MOL   H32140249   6.572   4.553   5.728 -0.3250  1.2293  1.0507
  125MOL   H32240250   6.422   4.208   5.694 -1.3132  1.1300  2.3195
  126MOL     C140251   7.735   3.038   1.231  0.3612 -0.3669  0.0118
  126MOL     C240252   7.764   3.163   1.309  0.6137  0.0035  0.1331
  126MOL     C340253   7.895   3.157   1.387  0.0110 -1.2935  0.2539
  126MOL     C440254   7.902   3.197   1.522 -0.1144 -0.2120  0.7099
  126MOL     C540255   8.022   3.205   1.589 -0.4781  0.2109 -0.3605
  126MOL     C640256   0.022   3.157   1.524 -0.1705 -0.7174 -0.3944
  126MOL     C740257   0.019   3.108   1.393 -0.5552  0.2372  0.0244
  126MOL     C840258   8.010   3.112   1.324 -0.2996  0.4121 -0.2818
  126MOL     H940259   7.751   2.952   1.295  1.4264 -0.6023 -0.5414
  126MOL    H1040260   7.633   3.035   1.195  0.7068 -0.5846 -0.9645
  126MOL    H1140261   7.682   3.177   1.379  1.7820 -0.2809  1.5709
  126MOL    H1240262   7.819   3.216   1.588 -1.6067  0.8593 -1.4299
  126MOL    H1340263   8.035   3.247   1.688  0.6493 -0.7707 -0.0701
  126MOL    H1440264   0.122   3.158   1.564 -0.8946  0.4344  1.4104
  126MOL    H1540265   0.111   3.062   1.360 -0.5508 -0.0451  0.4210
  126MOL    H1640266   8.000   3.073   1.224  2.7626  0.3656 -0.6079
  126MOL    H1740267   7.793   3.028   1.139  0.5897  2.0018 -0.1358
  126MOL    C1840268   7.761   3.293   1.215  0.2363  0.2834  0.1258
  126MOL    C1940269   7.763   3.434   1.285  0.2086  0.0876  0.3163
  126MOL    C2040270   7.793   3.547   1.184  0.6707  0.3022  0.3044
  126MOL    C2140271   7.700   3.570   1.081 -0.1486 -0.3571  0.2388
  126MOL    C2240272   7.740   3.663   0.981 -0.8199  0.1702  0.4357
  126MOL    C2340273   7.859   3.738   0.995  0.4026  0.4609 -0.0133
  126MOL    C2440274   7.948   3.716   1.101  0.0832  0.2360  1.2260
  126MOL    C2540275   7.910   3.619   1.197 -0.4897  0.2608 -0.4095
  126MOL    H2640276   7.674   3.283   1.149  1.0742  1.1756 -1.1414
  126MOL    H2740277   7.846   3.293   1.147  0.3304 -2.7945  0.1653
  126MOL    H2840278   7.854   3.417   1.342 -0.2562 -0.0373  1.0251
  126MOL    H2940279   7.607   3.521   1.059  0.4532 -1.4960  0.1646
  126MOL    H3040280   7.682   3.677   0.891 -0.4406  0.2962  0.2047
  126MOL    H3140281   7.881   3.815   0.922  1.0684 -1.0020 -1.3768
  126MOL    H3240282   8.039   3.773   1.108 -0.4667  1.5867 -1.7669
  126MOL    H3340283   7.975   3.605   1.282  0.3059  0.6271 -0.9506
  126MOL    C3440284   7.641   3.462   1.374 -0.1411 -0.0475  0.1963
  126MOL    C3540285   7.678   3.497   1.518  0.1334 -0.8312 -0.0192
  126MOL    C3640286   7.764   3.622   1.517  0.9785 -0.2757 -0.2586
  126MOL    C3740287   7.713   3.748   1.475  0.1257  0.0025  0.2981
  126MOL    C3840288   7.798   3.854   1.452 -0.3852  0.4462  0.6419
  126MOL    C3940289   7.936   3.839   1.478 -0.7281  0.0294 -0.5374
  126MOL    C4040290   7.990   3.714   1.523 -0.1658  0.5211 -0.9608
  126MOL    C4140291   7.899   3.606   1.548 -0.2280  0.2617  0.2562
  126MOL    H4240292   7.582   3.371   1.380  1.0290 -0.6416  3.8894
  126MOL    H4340293   7.573   3.532   1.325  1.0430  0.4973 -0.6919
  126MOL    H4440294   7.735   3.422   1.573  0.8862 -0.5077 -0.3678
  126MOL    H4540295   7.611   3.760   1.442  0.7760 -2.5058 -2.8341
  126MOL    H4640296   7.764   3.946   1.405  1.8032 -0.5644 -3.2025
  126MOL    H4740297   8.001   3.923   1.464 -0.3752 -0.2354 -0.4967
  126MOL    H4840298   8.093   3.699   1.549 -0.0993  0.3591 -1.3179
  126MOL    H4940299   7.927   3.508   1.583 -0.1294  0.4226  0.6372
  126MOL    C5040300   7.556   3.524   1.617 -0.6687  0.0091 -0.0293
  126MOL    C5140301   7.439   3.423   1.613 -0.5689  0.6206 -0.2614
  126MOL    C5240302   7.461   3.276   1.629 -0.8877 -0.2363  0.5091
  126MOL    C5340303   7.442   3.194   1.523 -0.1786  0.0631 -0.4559
  126MOL    C5440304   7.473   3.057   1.534 -0.8433 -0.0109  0.5663
  126MOL    C5540305   7.557   3.012   1.638 -0.7947 -0.4271  0.4612
  126MOL    C5640306   7.574   3.097   1.753 -0.2100  0.0001  0.1724
  126MOL    C5740307   7.519   3.227   1.750  0.0121 -0.0977  0.1383
  126MOL    H5840308   7.523   3.623   1.586 -1.1424 -0.0435  0.2958
  126MOL    H5940309   7.596   3.530   1.718 -2.3804  1.0628  0.6192
  126MOL    H6040310   7.406   3.433   1.510  0.3856 -0.9651 -0.7328
  126MOL    H6140311   7.380   3.223   1.440 -5.7113 -1.4244  2.9240
  126MOL    H6240312   7.452   2.992   1.450  2.1994  1.2969 -1.3118
  126MOL    H6340313   7.591   2.910   1.639 -0.9661 -0.5003 -0.5469
  126MOL    H6440314   7.633   3.062   1.836  0.2976 -2.9514 -1.3329
  126MOL    H6540315   7.540   3.283   1.840 -1.0606  1.3219 -0.4653
  126MOL    C6640316   7.309   3.464   1.698 -0.1364 -0.8085  0.3539
  126MOL    C6740317   7.233   3.593   1.651 -0.0152  0.1806 -0.7483
  126MOL    C6840318   7.160   3.581   1.518 -0.0087 -0.3105  1.2447
  126MOL    C6940319   7.127   3.452   1.469  0.4199  0.0118 -1.1042
  126MOL    C7040320   7.049   3.435   1.356  0.5237 -0.4324 -0.4061
  126MOL    C7140321   7.004   3.550   1.285 -0.2768  0.1685  0.3528
  126MOL    C7240322   7.038   3.676   1.327 -0.1670 -0.2395 -0.4834
  126MOL    C7340323   7.112   3.694   1.448 -0.0586 -0.0256 -0.0735
  126MOL    H7440324   7.336   3.463   1.803 -0.2264  0.0444  0.3892
  126MOL    H7540325   7.247   3.374   1.703 -0.5041 -0.4613  2.2932
  126MOL    H7640326   7.302   3.674   1.626 -0.2905 -0.0086 -2.1853
  126MOL    H7740327   7.141   3.356   1.517 -1.1037  0.3051 -0.0331
  126MOL    H7840328   7.023   3.333   1.331 -0.0767 -0.2242 -0.6525
  126MOL    H7940329   6.954   3.528   1.192  2.3032  0.5846 -1.1926
  126MOL    H8040330   6.994   3.759   1.275 -0.7129  0.3574  0.8994
  126MOL    H8140331   7.139   3.795   1.476  0.2007 -0.0720 -0.1558
  126MOL    C8240332   7.144   3.657   1.759  0.1113  0.4083  0.7696
  126MOL    C8340333   7.212   3.717   1.886  0.5761 -0.2242  0.6059
  126MOL    C8440334   7.331   3.811   1.867 -0.5133 -0.8534  0.4251
  126MOL    C8540335   7.310   3.948   1.836 -0.1277  0.1978  0.3658
  126MOL    C8640336   7.425   4.033   1.809 -0.5764  0.1396  0.0057
  126MOL    C8740337   7.553   3.979   1.790 -0.6666  0.0422  0.1182
  126MOL    C8840338   7.570   3.837   1.819  0.2776 -0.3066 -0.2072
  126MOL    C8940339   7.465   3.760   1.862  0.1467  0.1826  0.0877
  126MOL    H9040340   7.064   3.584   1.772  0.3137 -0.6812 -3.4217
  126MOL    H9140341   7.099   3.745   1.714 -0.7334 -0.6222 -0.4214
  126MOL    H9240342   7.251   3.630   1.940 -3.1240 -0.3634  3.2647
  126MOL    H9340343   7.212   3.989   1.856 -0.9490 -1.0866 -0.9272
  126MOL    H9440344   7.404   4.137   1.790 -0.8689  0.0686 -0.0551
  126MOL    H9540345   7.633   4.048   1.768  0.4707 -1.1316  0.5392
  126MOL    H9640346   7.670   3.797   1.818  1.3203  2.1964  0.6506
  126MOL    H9740347   7.484   3.657   1.889 -0.3352 -0.4448 -1.9207
  126MOL    C9840348   7.101   3.781   1.973 -1.1778 -0.6506 -0.1262
  126MOL    C9940349   7.135   3.850   2.107 -0.4588  0.4057  0.2063
  126MOL   C10040350   7.028   3.956   2.143 -0.2290  0.3397 -0.9150
  126MOL   C10140351   6.901   3.916   2.182  0.3881  0.3135 -0.0640
  126MOL   C10240352   6.800   4.013   2.215 -0.0891  0.3774 -0.2969
  126MOL   C10340353   6.820   4.152   2.190 -0.3483 -0.0612 -0.0799
  126MOL   C10440354   6.951   4.195   2.157 -0.3671 -0.8982  0.0879
  126MOL   C10540355   7.049   4.096   2.134  0.4299  0.1734 -0.1914
  126MOL   H10640356   7.009   3.724   1.985 -1.8671  0.6324  0.7577
  126MOL   H10740357   7.050   3.855   1.911 -1.2789  0.7101  1.5381
  126MOL   H10840358   7.230   3.903   2.098 -1.8745  3.0762  0.4263
  126MOL   H10940359   6.869   3.814   2.195  0.0820  0.5499  1.1172
  126MOL   H11040360   6.706   3.965   2.241  1.4814 -1.4328  2.2722
  126MOL   H11140361   6.751   4.232   2.212 -1.3452 -1.1590  0.8151
  126MOL   H11240362   6.976   4.300   2.157  2.1263 -1.4452 -0.5600
  126MOL   H11340363   7.154   4.119   2.118  0.5890 -1.0572 -1.0412
  126MOL   C11440364   7.147   3.749   2.232  0.4327 -0.2077  1.1048
  126MOL   C11540365   7.280   3.688   2.272  0.1952  0.3935 -0.3249
  126MOL   C11640366   7.388   3.786   2.286  0.4119 -0.0828 -0.4062
  126MOL   C11740367   7.391   3.892   2.380 -0.0002 -0.1985 -0.0357
  126MOL   C11840368   7.485   3.998   2.363 -0.2414 -0.4496  0.1394
  126MOL   C11940369   7.601   3.981   2.287  0.3569 -0.7142 -0.4964
  126MOL   C12040370   7.607   3.870   2.200  0.0249 -0.6464  0.0804
  126MOL   C12140371   7.498   3.780   2.198  0.7025 -0.3424  0.0505
  126MOL   H12240372   7.085   3.662   2.210  1.0674 -0.4470  0.2570
  126MOL   H12340373   7.106   3.792   2.323  0.6830  0.3554  0.9533
  126MOL   H12440374   7.304   3.628   2.185 -2.1304 -1.7314  0.4442
  126MOL   H12540375   7.304   3.902   2.443 -0.6892  1.3157 -1.2107
  126MOL   H12640376   7.481   4.083   2.429  1.4583 -0.0634 -0.2365
  126MOL   H12740377   7.678   4.058   2.289 -0.0255 -0.3561  3.0058
  126MOL   H12840378   7.688   3.861   2.130  0.5688 -0.9229  0.7403
  126MOL   H12940379   7.483   3.708   2.119 -0.1690  0.1669 -0.2640
  126MOL   C13040380   7.281   3.595   2.401  0.4254 -0.4686  0.2193
  126MOL   C13140381   7.211   3.460   2.399  0.0616  0.4051 -0.8902
  126MOL   C13240382   7.256   3.379   2.283  0.5571  0.4420  0.1193
  126MOL   C13340383   7.164   3.342   2.179  0.4078  1.2824 -0.3416
  126MOL   C13440384   7.208   3.273   2.061 -0.5307  0.1904 -0.2510
  126MOL   C13540385   7.340   3.234   2.049  0.1630  0.4672  0.0750
  126MOL   C13640386   7.432   3.278   2.149  0.4615 -0.3584  0.1360
  126MOL   C13740387   7.392   3.345   2.263 -0.3369  0.0878  0.4397
  126MOL   H13840388   7.241   3.648   2.488 -0.7625 -1.1576  0.1007
  126MOL   H13940389   7.385   3.570   2.424  0.1221  0.4512  2.7858
  126MOL   H14040390   7.104   3.477   2.387  0.1015  1.3479 -0.0023
  126MOL   H14140391   7.060   3.366   2.192 -0.5026 -1.8126 -1.5449
  126MOL   H14240392   7.143   3.247   1.979 -1.4329 -0.4846  0.6648
  126MOL   H14340393   7.376   3.186   1.960 -0.1533  0.2146  0.0807
  126MOL   H14440394   7.539   3.260   2.143  0.4612 -0.7638  1.2593
  126MOL   H14540395   7.471   3.372   2.332 -1.0000  1.0301  0.8527
  126MOL   C14640396   7.240   3.376   2.521 -0.1208 -0.3111 -0.3776
  126MOL   C14740397   7.154   3.396   2.640  0.2886 -0.7164 -0.6541
  126MOL   C14840398   7.005   3.412   2.611 -0.0218  0.1299  0.4405
  126MOL   C14940399   6.937   3.539   2.631 -0.0962 -0.1617 -0.4125
  126MOL   C15040400   6.798   3.544   2.591 -0.3492 -0.3258  0.1714
  126MOL   C15140401   6.740   3.443   2.513 -0.5811  0.0574  0.0904
  126MOL   C15240402   6.806   3.321   2.488 -1.1754 -0.0675  0.5051
  126MOL   C15340403   6.936   3.307   2.542  0.1713  0.4146  0.6318
  126MOL   H15440404   7.346   3.384   2.547 -0.8809 -0.6093  2.9054
  126MOL   H15540405   7.221   3.271   2.501 -1.6288 -0.3418  1.1616
  126MOL   H15640406   7.185   3.490   2.685 -0.5071  0.9273 -3.4229
  126MOL   H15740407   6.998   3.623   2.663 -0.6496 -0.4178  1.4008
  126MOL   H15840408   6.744   3.637   2.597 -0.1417 -0.2749  1.4141
  126MOL   H15940409   6.634   3.453   2.492 -0.5612 -3.4642 -2.0286
  126MOL   H16040410   6.753   3.243   2.437 -1.2147  0.1359  0.2368
  126MOL   H16140411   6.992   3.215   2.530  0.7747  1.2328 -3.4798
  126MOL   C16240412   7.183   3.297   2.747 -0.9164 -0.0698 -0.4458
  126MOL   C16340413   7.122   3.311   2.889 -0.2253 -0.1979 -0.2765
  126MOL   C16440414   7.168   3.437   2.964 -0.2481 -0.8802  0.1229
  126MOL   C16540415   7.276   3.427   3.051  0.3973 -0.3215 -0.1620
  126MOL   C16640416   7.307   3.530   3.142  0.1751 -0.2314  0.4983
  126MOL   C16740417   7.228   3.644   3.138  0.7206 -0.4775  0.2078
  126MOL   C16840418   7.126   3.665   3.042  0.3618  0.3913 -0.1319
  126MOL   C16940419   7.099   3.562   2.952 -0.2680 -0.4937 -0.4907
  126MOL   H17040420   7.290   3.285   2.766 -1.1892 -1.7930  0.1325
  126MOL   H17140421   7.158   3.201   2.701  1.4119 -1.0132  0.1570
  126MOL   H17240422   7.182   3.242   2.948 -1.9760  0.0702  1.8486
  126MOL   H17340423   7.332   3.335   3.049  0.7206 -0.1801  1.6496
  126MOL   H17440424   7.389   3.515   3.212 -1.7850 -0.4469  2.8259
  126MOL   H17540425   7.255   3.727   3.201  1.0124  0.4973 -1.1977
  126MOL   H17640426   7.057   3.748   3.046 -1.5050 -1.0904 -0.6756
  126MOL   H17740427   7.008   3.576   2.896  0.1023 -0.8087 -1.1696
  126MOL   C17840428   6.971   3.273   2.900 -0.8050  0.0567  0.1638
  126MOL   C17940429   6.947   3.124   2.863 -0.1572  0.4307 -0.4078
  126MOL   C18040430   7.033   3.027   2.940  0.0438 -0.1398 -0.2345
  126MOL   C18140431   7.158   2.977   2.896  0.4200  0.4158  0.2078
  126MOL   C18240432   7.221   2.878   2.970 -0.5136  0.2253 -0.5393
  126MOL   C18340433   7.172   2.847   3.100 -0.8828 -0.4933  0.0947
  126MOL   C18440434   7.059   2.909   3.151  0.6840 -0.0538  0.3205
  126MOL   C18540435   6.984   2.984   3.063  1.0472 -0.9335 -1.0222
  126MOL   H18640436   6.906   3.324   2.829 -0.6820  1.5059  1.0532
  126MOL   H18740437   6.938   3.304   2.999 -1.2135  2.7776 -0.7846
  126MOL   H18840438   6.974   3.106   2.759 -1.2254 -1.3037 -0.3938
  126MOL   H18940439   7.201   3.015   2.805 -1.2225  0.9064 -0.3711
  126MOL   H19040440   7.318   2.838   2.945 -0.8206 -0.3423 -0.8241
  126MOL   H19140441   7.223   2.769   3.156  0.3206 -1.5742 -2.4222
  126MOL   H19240442   7.013   2.879   3.244  1.2917  3.0770  1.6739
  126MOL   H19340443   6.885   3.014   3.096  1.5628  0.2261 -0.4934
  126MOL   C19440444   6.793   3.103   2.859  0.3146 -0.4223  0.1018
  126MOL   C19540445   6.740   2.965   2.803 -0.2143  0.1306  0.8609
  126MOL   C19640446   6.704   2.883   2.927  0.4189 -0.7267 -0.5173
  126MOL   C19740447   6.793   2.785   2.977  0.6880 -0.2147 -0.3905
  126MOL   C19840448   6.764   2.704   3.091  0.0679  0.0886  0.6136
  126MOL   C19940449   6.643   2.716   3.152  0.3533 -0.6214  0.4416
  126MOL   C20040450   6.549   2.812   3.107 -0.2328  0.3707 -0.0877
  126MOL   C20140451   6.577   2.894   2.998  0.0091  0.3667 -0.0053
  126MOL   H20240452   6.755   3.186   2.798 -1.0333 -0.7718  0.4521
  126MOL   H20340453   6.745   3.133   2.952 -2.1123 -0.9009 -0.9557
  126MOL   H20440454   6.820   2.922   2.743 -0.2240  0.7518  0.3977
  126MOL   H20540455   6.882   2.759   2.922  0.5938  0.0732 -0.6836
  126MOL   H20640456   6.840   2.629   3.108  0.6189  0.0698 -1.7488
  126MOL   H20740457   6.632   2.652   3.238 -0.6689  1.0826  1.5993
  126MOL   H20840458   6.451   2.818   3.152  0.5004 -0.2320  1.6475
  126MOL   H20940459   6.503   2.965   2.965  0.0018  0.9425  1.2251
  126MOL   C21040460   6.620   2.989   2.703  0.0033 -0.4463  0.4797
  126MOL   C21140461   6.545   2.859   2.659  0.0273 -0.8102  0.1712
  126MOL   C21240462   6.441   2.893   2.555  0.2991 -0.1739  0.0996
  126MOL   C21340463   6.467   2.913   2.417 -0.3809 -0.4821 -0.0973
  126MOL   C21440464   6.366   2.915   2.326 -0.1251 -0.1626 -0.4682
  126MOL   C21540465   6.230   2.915   2.362 -0.1625 -0.5313 -0.4212
  126MOL   C21640466   6.200   2.906   2.499  0.0639 -0.7464 -0.2625
  126MOL   C21740467   6.304   2.886   2.597 -0.2594 -0.0020  0.2852
  126MOL   H21840468   6.665   3.032   2.613  1.5123 -0.1978  1.3362
  126MOL   H21940469   6.545   3.047   2.757 -0.5533 -0.6079 -0.1090
  126MOL   H22040470   6.485   2.823   2.743  1.0409 -1.1704  0.7486
  126MOL   H22140471   6.569   2.921   2.381  1.0143  0.6644  3.9280
  126MOL   H22240472   6.387   2.919   2.220  0.8695 -2.1795 -0.3632
  126MOL   H22340473   6.149   2.916   2.291 -0.5742 -1.4650  0.0208
  126MOL   H22440474   6.098   2.888   2.531 -1.2395  2.4119 -2.2519
  126MOL   H22540475   6.274   2.874   2.700 -2.3303  1.1806 -0.1563
  126MOL   C22640476   6.641   2.743   2.611 -0.2916 -0.0092 -0.7973
  126MOL   C22740477   6.583   2.611   2.557  0.1370 -0.5197  0.5115
  126MOL   C22840478   6.690   2.520   2.502 -0.0678 -0.1478  0.0601
  126MOL   C22940479   6.674   2.460   2.379  0.5655  0.6274  0.2356
  126MOL   C23040480   6.775   2.385   2.315  0.0888  0.2324  0.1720
  126MOL   C23140481   6.904   2.380   2.368 -0.3281  0.2916 -0.8409
  126MOL   C23240482   6.928   2.447   2.492 -0.0394 -0.4707 -0.0142
  126MOL   C23340483   6.822   2.521   2.559  0.0466  0.0367 -0.2371
  126MOL   H23440484   6.711   2.717   2.691  1.2682 -2.4069 -2.8657
  126MOL   H23540485   6.704   2.787   2.533  0.3236  0.9505  0.2165
  126MOL   H23640486   6.515   2.637   2.476  0.5187  1.5522  0.8191
  126MOL   H23740487   6.575   2.471   2.336  0.6093  0.3422  0.0607
  126MOL   H23840488   6.743   2.336   2.224  0.1753  1.0719 -0.3233
  126MOL   H23940489   6.975   2.308   2.332 -0.8130 -0.7995  0.3548
  126MOL   H24040490   7.027   2.430   2.531 -0.5711  0.5988  1.8367
  126MOL   H24140491   6.846   2.576   2.648 -1.6658 -1.2442  1.0493
  126MOL   C24240492   6.513   2.533   2.673 -0.4230  0.4122 -0.3497
  126MOL   C24340493   6.404   2.427   2.631 -0.1331  0.0741  0.7844
  126MOL   C24440494   6.362   2.352   2.763  0.2296 -0.0117  0.3512
  126MOL   C24540495   6.389   2.207   2.770  0.0000 -0.1672  0.9679
  126MOL   C24640496   6.337   2.131   2.872  0.2261 -0.6114  0.1573
  126MOL   C24740497   6.255   2.193   2.969 -0.2816 -0.4835  0.4189
  126MOL   C24840498   6.230   2.331   2.965  0.3353 -0.1480  0.3286
  126MOL   C24940499   6.295   2.413   2.871  0.1098 -1.0085 -0.3077
  126MOL   H25040500   6.464   2.602   2.742 -0.7239  0.9145 -1.0582
  126MOL   H25140501   6.586   2.486   2.739 -1.5679  0.7868  1.1985
  126MOL   H25240502   6.452   2.358   2.562  0.5548  0.5479  0.7852
  126MOL   H25340503   6.448   2.158   2.695  1.6367 -0.7202  2.5741
  126MOL   H25440504   6.357   2.025   2.881 -1.7145 -0.8532  2.0048
  126MOL   H25540505   6.210   2.137   3.049 -3.2712  1.4835  0.1987
  126MOL   H25640506   6.158   2.368   3.036 -1.1391 -3.1493  0.4890
  126MOL   H25740507   6.275   2.519   2.867  0.5597 -0.9364 -0.6900
  126MOL   C25840508   6.290   2.500   2.551 -0.0487  0.5061 -0.5574
  126MOL   C25940509   6.145   2.448   2.568 -0.1435 -0.2150 -0.0456
  126MOL   C26040510   6.040   2.551   2.522  0.1327  0.8467 -0.2322
  126MOL   C26140511   5.979   2.635   2.612  0.1010 -0.1578 -0.6365
  126MOL   C26240512   5.878   2.727   2.580  0.3453 -0.5420  0.1870
  126MOL   C26340513   5.850   2.742   2.445  0.3360  0.2424  0.4040
  126MOL   C26440514   5.905   2.658   2.350  0.0186 -0.1487 -0.3213
  126MOL   C26540515   6.005   2.565   2.386 -0.2417 -0.1399  0.1873
  126MOL   H26640516   6.313   2.513   2.445  0.1669 -1.7710 -0.8089
  126MOL   H26740517   6.283   2.601   2.590  0.1082  1.1522 -2.1555
  126MOL   H26840518   6.128   2.448   2.676 -0.2926  0.3305 -0.0635
  126MOL   H26940519   6.005   2.637   2.717  0.4508 -0.2349 -0.7217
  126MOL   H27040520   5.828   2.785   2.657  0.2843  1.2432 -1.1709
  126MOL   H27140521   5.778   2.815   2.413 -0.6300 -0.9422 -0.1866
  126MOL   H27240522   5.864   2.672   2.251 -0.9351  0.8764  0.1987
  126MOL   H27340523   6.061   2.518   2.306 -0.0462 -1.9742  1.3712
  126MOL   C27440524   6.114   2.310   2.514  0.2106 -0.3438  0.6675
  126MOL   C27540525   6.011   2.230   2.592  0.1136  0.4073  0.2852
  126MOL   C27640526   5.862   2.253   2.556 -0.0351  0.1321 -0.4043
  126MOL   C27740527   5.806   2.179   2.457 -0.6396  0.0844 -0.5465
  126MOL   C27840528   5.674   2.203   2.417  0.9219 -0.5538  0.3864
  126MOL   C27940529   5.597   2.304   2.466  0.6862 -0.4553  0.2762
  126MOL   C28040530   5.654   2.388   2.561  0.0259 -0.3449  0.2530
  126MOL   C28140531   5.783   2.355   2.619  0.0943 -0.8136 -0.0854
  126MOL   H28240532   6.200   2.243   2.507 -0.8395 -1.5562 -1.4383
  126MOL   H28340533   6.085   2.320   2.409 -4.2694 -2.2312  1.5930
  126MOL   H28440534   6.027   2.266   2.693  2.1716  0.1409  0.0762
  126MOL   H28540535   5.857   2.100   2.403  1.5727  1.2103 -0.1560
  126MOL   H28640536   5.640   2.143   2.334  1.3017  2.1293 -1.7923
  126MOL   H28740537   5.495   2.314   2.433  1.5962  0.8166 -2.3566
  126MOL   H28840538   5.601   2.470   2.608 -0.9545 -0.1284 -1.1945
  126MOL   H28940539   5.835   2.408   2.697  0.6304 -2.0546  0.4180
  126MOL   C29040540   6.061   2.076   2.600  0.2289  0.3708 -0.1215
  126MOL   C29140541   5.977   1.982   2.690 -0.1791  0.7361 -0.4238
  126MOL   C29240542   6.040   1.842   2.692 -0.0169  0.3877 -0.1756
  126MOL   C29340543   6.168   1.813   2.753 -0.0922  0.3830  0.0190
  126MOL   C29440544   6.226   1.684   2.752 -0.3073 -0.0783  0.4612
  126MOL   C29540545   6.160   1.582   2.683  0.0582  0.4396  0.2970
  126MOL   C29640546   6.031   1.602   2.630 -0.2714  0.5602  0.4052
  126MOL   C29740547   5.978   1.734   2.632 -0.4435 -0.4767  0.3344
  126MOL   H29840548   6.155   2.088   2.653 -0.7680  3.7015  1.0152
  126MOL   H29940549   6.088   2.029   2.505 -0.2534  0.1199 -0.1343
  126MOL   H30040550   5.882   1.963   2.640 -0.6791 -2.6681  1.6923
  126MOL   H30140551   6.227   1.888   2.805 -0.3442  1.2446 -0.9163
  126MOL   H30240552   6.322   1.655   2.793 -0.2616  2.4297  2.2706
  126MOL   H30340553   6.208   1.489   2.659  1.5060  1.2500  0.0034
  126MOL   H30440554   5.972   1.527   2.580 -0.1167  0.2005  0.7627
  126MOL   H30540555   5.881   1.742   2.585 -0.2954 -0.6044  0.0025
  126MOL   C30640556   5.948   2.045   2.827 -0.2105  0.1732  0.0313
  126MOL   C30740557   5.855   1.960   2.924 -0.1210 -0.5038  0.1355
  126MOL   C30840558   5.850   2.030   3.063 -0.5528 -1.1138 -0.2816
  126MOL   C30940559   5.788   2.161   3.074 -0.0610  0.2095 -0.8469
  126MOL   C31040560   5.766   2.214   3.201 -0.9074 -0.5764  0.0192
  126MOL   C31140561   5.827   2.146   3.312  0.1405 -0.5903 -0.3923
  126MOL   C31240562   5.890   2.026   3.300  0.5156 -0.0447 -0.3673
  126MOL   C31340563   5.900   1.962   3.171 -0.5360 -0.1020 -0.1718
  126MOL   H31440564   5.896   2.140   2.819  1.0082  0.7352 -1.7125
  126MOL   H31540565   6.041   2.073   2.877  0.7138  0.3893 -1.7738
  126MOL   H31640566   5.897   1.861   2.939 -1.9562 -1.2862  0.2584
  126MOL   H31740567   5.746   2.211   2.988 -0.6838  2.6512  0.8422
  126MOL   H31840568   5.716   2.307   3.224 -1.2228 -0.8198  0.3185
  126MOL   H31940569   5.819   2.178   3.414  2.8628 -0.3062 -0.2265
  126MOL   H32040570   5.934   1.987   3.391 -1.5076 -1.2022  0.1501
  126MOL   H32140571   5.949   1.866   3.168 -0.9295 -0.5165  3.8658
  126MOL   H32240572   5.754   1.964   2.882 -0.2109  0.3531  0.4271
  127MOL     C140573   7.810   6.819   5.061  0.0035 -0.6658  0.7564
  127MOL     C240574   7.769   6.962   5.103 -0.7474 -0.0954 -0.6636
  127MOL     C340575   7.863   7.027   5.212 -0.1048  0.3726  0.2499
  127MOL     C440576   7.817   7.091   5.329  0.9279  0.0696 -0.0428
  127MOL     C540577   7.901   7.128   5.434 -0.3114  0.0949  0.4875
  127MOL     C640578   8.041   7.117   5.410  1.1663  0.0183  0.2593
  127MOL     C740579   8.095   7.068   5.291  0.2426  0.2947  0.0834
  127MOL     C840580   8.007   7.022   5.189  0.3758  0.6078  0.6630
  127MOL     H940581   7.900   6.821   4.999  0.7773 -1.7106  1.8097
  127MOL    H1040582   7.821   6.755   5.148  1.7785 -1.3894  0.0161
  127MOL    H1140583   7.688   6.944   5.174  0.3872  0.0829  0.6978
  127MOL    H1240584   7.712   7.093   5.354  0.9155 -0.7423 -0.0081
  127MOL    H1340585   7.857   7.175   5.520 -0.0165  3.7689 -1.2933
  127MOL    H1440586   8.109   7.149   5.487  2.5470 -1.6849 -0.2237
  127MOL    H1540587   0.087   7.061   5.282  0.2954 -0.1978  1.0478
  127MOL    H1640588   8.039   6.981   5.094  0.3490  2.0101  0.0497
  127MOL    H1740589   7.730   6.771   5.005  0.4144 -1.4989  0.8740
  127MOL    C1840590   7.748   7.067   4.990 -0.6051  0.4647 -0.6329
  127MOL    C1940591   7.617   7.047   4.917  0.1032 -0.5138  0.1154
  127MOL    C2040592   7.498   7.067   5.008 -0.8023 -0.8663 -0.5768
  127MOL    C2140593   7.494   7.180   5.092 -0.2336 -0.3400  0.8283
  127MOL    C2240594   7.387   7.205   5.178  0.8482 -0.4897  0.1336
  127MOL    C2340595   7.278   7.116   5.177  0.3890 -0.1108  0.3762
  127MOL    C2440596   7.281   7.005   5.095  0.6872 -0.6079 -0.0050
  127MOL    C2540597   7.384   6.979   5.009 -0.8778 -0.5461  0.8033
  127MOL    H2640598   7.826   7.067   4.913  0.4091  0.2803  0.3863
  127MOL    H2740599   7.754   7.170   5.026  1.8013  0.0478  0.2437
  127MOL    H2840600   7.617   6.944   4.883  0.7354 -1.1089  1.8281
  127MOL    H2940601   7.576   7.251   5.100  0.2798 -1.0596  2.0900
  127MOL    H3040602   7.371   7.293   5.238  0.5595 -0.5823  0.1911
  127MOL    H3140603   7.195   7.142   5.241  1.2692 -0.2496  1.6085
  127MOL    H3240604   7.190   6.949   5.083  1.9112 -1.9435 -3.7355
  127MOL    H3340605   7.381   6.888   4.950  0.7720  1.5049 -2.5819
  127MOL    C3440606   7.599   7.134   4.794 -0.4635 -0.2683 -0.1507
  127MOL    C3540607   7.464   7.111   4.715 -0.4677 -0.1800 -0.3864
  127MOL    C3640608   7.365   7.232   4.709 -0.3257 -0.4138 -0.0537
  127MOL    C3740609   7.384   7.327   4.610  0.8563  0.1566 -0.3727
  127MOL    C3840610   7.286   7.430   4.598  0.1428 -0.8071  0.3248
  127MOL    C3940611   7.169   7.446   4.682  0.2741  0.2236 -0.1373
  127MOL    C4040612   7.165   7.349   4.786  0.2121  0.8615 -0.0055
  127MOL    C4140613   7.259   7.244   4.795  0.6158  0.2671 -1.1994
  127MOL    H4240614   7.685   7.133   4.727  0.0423 -2.0319  0.4737
  127MOL    H4340615   7.597   7.236   4.830  0.1896 -0.9163  1.7804
  127MOL    H4440616   7.407   7.035   4.769 -0.5446  0.9779  1.2031
  127MOL    H4540617   7.472   7.329   4.546  0.4367 -0.6782 -0.9869
  127MOL    H4640618   7.304   7.510   4.527  1.5510  0.2072  1.7913
  127MOL    H4740619   7.095   7.524   4.673  0.7060  0.5927 -0.5500
  127MOL    H4840620   7.086   7.355   4.861  1.6126  0.7463  1.5028
  127MOL    H4940621   7.237   7.162   4.862 -0.5158  1.8886  0.4567
  127MOL    C5040622   7.479   7.060   4.577 -0.4694 -0.1641  0.5060
  127MOL    C5140623   7.534   6.916   4.581  0.1399  0.0888 -0.6918
  127MOL    C5240624   7.439   6.812   4.642  0.3422 -0.7336  0.3774
  127MOL    C5340625   7.297   6.815   4.623 -0.4272 -0.8258 -0.6875
  127MOL    C5440626   7.216   6.715   4.683  0.3854 -0.1126 -0.6964
  127MOL    C5540627   7.269   6.619   4.773  0.0813 -0.7931  0.8300
  127MOL    C5640628   7.411   6.629   4.804 -0.8395 -0.3573 -0.2289
  127MOL    C5740629   7.493   6.720   4.734 -0.1451  0.4857  0.3284
  127MOL    H5840630   7.547   7.125   4.522  1.8479 -1.8248  1.3417
  127MOL    H5940631   7.382   7.067   4.529  1.4449  0.9795 -3.4141
  127MOL    H6040632   7.630   6.907   4.633  1.5130 -0.0071 -3.1466
  127MOL    H6140633   7.265   6.891   4.554  1.7523  1.6184  0.8960
  127MOL    H6240634   7.111   6.731   4.660  0.0977  1.2468  1.4167
  127MOL    H6340635   7.203   6.552   4.827 -1.6197  0.8875  0.8706
  127MOL    H6440636   7.456   6.568   4.880 -2.1181 -0.7223  0.2533
  127MOL    H6540637   7.600   6.708   4.746 -0.1458  0.3239  0.1858
  127MOL    C6640638   7.578   6.882   4.440 -0.3977  0.2587  0.6726
  127MOL    C6740639   7.694   6.968   4.381  0.1712  0.1391  0.4961
  127MOL    C6840640   7.812   6.986   4.473 -0.3685 -0.1346  0.0286
  127MOL    C6940641   7.861   7.113   4.502  0.2459 -0.1041  0.2428
  127MOL    C7040642   7.953   7.127   4.610  0.0128 -0.0350 -0.5553
  127MOL    C7140643   8.013   7.014   4.669 -0.4958  0.2196 -0.1861
  127MOL    C7240644   7.974   6.884   4.627 -1.2862 -0.0436  0.0202
  127MOL    C7340645   7.870   6.871   4.532  0.0896  0.1169 -0.0098
  127MOL    H7440646   7.495   6.880   4.370  0.7516  1.7302 -0.7900
  127MOL    H7540647   7.615   6.779   4.443 -1.8615 -0.4267 -2.2859
  127MOL    H7640648   7.654   7.069   4.365 -1.6326 -0.1985  2.6812
  127MOL    H7740649   7.833   7.196   4.438  0.3967  0.1762  0.5434
  127MOL    H7840650   7.985   7.225   4.643  0.2682 -0.5298  0.6645
  127MOL    H7940651   8.087   7.016   4.747  0.0431  1.9448 -0.7019
  127MOL    H8040652   8.012   6.794   4.673  2.2023  0.7740 -1.0872
  127MOL    H8140653   7.836   6.770   4.512  0.7287 -0.8110  3.2636
  127MOL    C8240654   7.749   6.915   4.250 -0.7907 -0.4310 -0.1482
  127MOL    C8340655   7.649   6.946   4.125 -0.1005 -0.4130 -0.9961
  127MOL    C8440656   7.615   7.099   4.102 -0.3047 -0.4221  0.1552
  127MOL    C8540657   7.490   7.121   4.043  0.8532  0.1217 -0.0891
  127MOL    C8640658   7.452   7.251   4.002  0.4126 -0.4829 -0.7135
  127MOL    C8740659   7.540   7.354   4.034  0.1571  0.2065  0.2638
  127MOL    C8840660   7.667   7.333   4.090  0.7995  0.3092  0.0042
  127MOL    C8940661   7.705   7.202   4.127 -0.5003  0.0865  0.6764
  127MOL    H9040662   7.764   6.807   4.252 -1.4248 -0.5141  1.3727
  127MOL    H9140663   7.845   6.955   4.219 -1.6133  0.9656 -0.9367
  127MOL    H9240664   7.559   6.887   4.141  0.3107 -0.7865 -0.0135
  127MOL    H9340665   7.421   7.040   4.025 -0.1797  0.9457  0.1204
  127MOL    H9440666   7.352   7.273   3.970  0.3596  0.6912  0.2477
  127MOL    H9540667   7.519   7.459   4.020  3.0111  0.9359  1.1339
  127MOL    H9640668   7.727   7.418   4.120  0.4107  0.9562 -1.0250
  127MOL    H9740669   7.798   7.180   4.177  0.0810  1.0927  0.0507
  127MOL    C9840670   7.720   6.903   3.991 -0.3406  0.2037 -0.1524
  127MOL    C9940671   7.754   6.750   3.976 -0.4535 -0.4750  0.1844
  127MOL   C10040672   7.633   6.658   3.999  0.2353 -0.1275 -0.6071
  127MOL   C10140673   7.526   6.654   3.909  0.8344 -0.2451 -0.2797
  127MOL   C10240674   7.414   6.564   3.931  0.1790  0.6065  0.5577
  127MOL   C10340675   7.415   6.478   4.044 -0.3761 -0.1672 -0.4690
  127MOL   C10440676   7.521   6.486   4.141 -0.3750  0.5358 -0.0113
  127MOL   C10540677   7.629   6.575   4.120 -0.8059 -0.2031  0.6877
  127MOL   H10640678   7.813   6.958   3.982  1.1575 -1.9434  1.5554
  127MOL   H10740679   7.658   6.929   3.905  0.4183  1.2151 -0.4065
  127MOL   H10840680   7.823   6.722   4.055  1.3105 -1.4724 -1.6672
  127MOL   H10940681   7.538   6.719   3.824  2.0208  0.3551  0.3462
  127MOL   H11040682   7.334   6.570   3.859  2.0797  1.6797 -1.5740
  127MOL   H11140683   7.336   6.404   4.048 -1.3814  0.9144 -0.2601
  127MOL   H11240684   7.519   6.431   4.234 -2.8729 -0.8780 -0.8560
  127MOL   H11340685   7.699   6.577   4.202  0.0765 -0.8122 -0.0444
  127MOL   C11440686   7.825   6.716   3.847 -1.2506 -0.2175  0.3410
  127MOL   C11540687   7.968   6.776   3.832  0.1329  0.9622  0.4058
  127MOL   C11640688   8.064   6.731   3.936 -0.1407 -0.2349 -0.6933
  127MOL   C11740689   8.111   6.822   4.039 -0.4856  0.4090  0.3546
  127MOL   C11840690   0.089   6.769   4.131 -0.5057 -0.2479  0.6796
  127MOL   C11940691   0.143   6.639   4.123  0.0324  0.1536 -0.1311
  127MOL   C12040692   0.086   6.550   4.033  0.6581 -0.0088 -0.2553
  127MOL   C12140693   8.102   6.593   3.938  0.6274 -0.8542 -0.1651
  127MOL   H12240694   7.762   6.731   3.759 -1.1850  1.6113  0.5743
  127MOL   H12340695   7.842   6.609   3.857 -2.0686 -0.3552  0.3456
  127MOL   H12440696   7.957   6.884   3.836  0.4244  0.9194  2.5209
  127MOL   H12540697   8.084   6.926   4.036  1.4920  0.9348 -0.0087
  127MOL   H12640698   0.121   6.835   4.210  3.1326 -1.4168  0.2793
  127MOL   H12740699   0.214   6.603   4.196  1.4879  0.6882 -1.2528
  127MOL   H12840700   0.117   6.447   4.023  3.6334  0.6334  1.7071
  127MOL   H12940701   8.059   6.520   3.871 -0.1311 -3.1109  2.6528
  127MOL   C13040702   8.029   6.756   3.686 -0.3563  0.7064  0.2322
  127MOL   C13140703   7.963   6.832   3.568  0.5942 -0.5209 -0.1806
  127MOL   C13240704   7.981   6.984   3.592 -0.5888  0.0767  0.5932
  127MOL   C13340705   7.866   7.054   3.637 -0.0902 -0.3089  0.0619
  127MOL   C13440706   7.879   7.194   3.663  0.5954 -0.4060 -0.2901
  127MOL   C13540707   8.001   7.259   3.646 -0.1220 -0.0441  0.0974
  127MOL   C13640708   8.114   7.190   3.597  0.7479 -0.6668 -0.2590
  127MOL   C13740709   8.105   7.054   3.577 -0.4735 -0.3077 -0.1741
  127MOL   H13840710   8.033   6.651   3.656  0.1859  0.6981  0.3292
  127MOL   H13940711   0.020   6.779   3.694 -0.0049 -1.3120  1.9436
  127MOL   H14040712   7.855   6.817   3.569  0.6756 -1.1214  1.2280
  127MOL   H14140713   7.767   7.012   3.647 -0.3778  0.7032  1.6936
  127MOL   H14240714   7.797   7.246   3.709 -0.5279 -0.1683 -2.5041
  127MOL   H14340715   7.990   7.365   3.662 -0.1230  0.0870 -0.7310
  127MOL   H14440716   0.096   7.237   3.586  0.4015  0.0546 -0.2529
  127MOL   H14540717   0.081   6.997   3.560 -0.3580  0.0635 -0.7950
  127MOL   C14640718   8.014   6.789   3.428 -0.3768  0.0780 -0.0910
  127MOL   C14740719   7.984   6.648   3.368 -0.0134  0.5213 -0.1096
  127MOL   C14840720   7.833   6.613   3.387  0.2106 -0.3202  0.5168
  127MOL   C14940721   7.792   6.507   3.471 -0.2080  0.7932  0.0728
  127MOL   C15040722   7.657   6.465   3.489 -0.2673  0.2347  0.4780
  127MOL   C15140723   7.557   6.547   3.428 -0.0621 -0.1194  0.0303
  127MOL   C15240724   7.591   6.655   3.348  0.8438  0.4056  1.2132
  127MOL   C15340725   7.726   6.688   3.325  0.3462 -0.9649  0.3931
  127MOL   H15440726   0.004   6.812   3.409 -0.1895  0.3411  1.2128
  127MOL   H15540727   7.954   6.847   3.358  0.0323 -0.2772 -0.7385
  127MOL   H15640728   8.031   6.568   3.427 -0.4002  0.9994  0.8644
  127MOL   H15740729   7.863   6.440   3.520 -0.8776 -0.3363 -0.4742
  127MOL   H15840730   7.638   6.380   3.553 -1.7505  1.2775  1.4536
  127MOL   H15940731   7.454   6.519   3.446 -0.2546  0.4916 -0.1253
  127MOL   H16040732   7.515   6.721   3.309  2.1425  2.1598  1.6441
  127MOL   H16140733   7.760   6.779   3.278 -1.0170 -0.4542  0.3742
  127MOL   C16240734   8.029   6.630   3.218  0.1687  0.0851  0.2215
  127MOL   C16340735   0.060   6.589   3.197 -0.0603  0.4818 -0.0509
  127MOL   C16440736   0.089   6.446   3.250  0.1696  0.4431  0.3715
  127MOL   C16540737   0.221   6.405   3.265  0.1141  0.7789  0.4956
  127MOL   C16640738   0.250   6.271   3.288 -0.1899 -0.1136 -0.1641
  127MOL   C16740739   0.146   6.168   3.297  0.3504  0.0580 -0.6090
  127MOL   C16840740   0.012   6.214   3.280  0.4730  0.3745  0.1330
  127MOL   C16940741   8.103   6.352   3.263  0.1539 -0.2300 -0.3460
  127MOL   H17040742   8.001   6.717   3.157 -3.1705 -0.9108  0.1953
  127MOL   H17140743   7.955   6.563   3.174  1.3308 -0.7055 -0.5299
  127MOL   H17240744   0.128   6.662   3.242  0.8967 -1.1008  1.1324
  127MOL   H17340745   0.310   6.466   3.261  0.4500  0.2888  0.3384
  127MOL   H17440746   0.349   6.233   3.311 -0.1641 -0.4112 -0.7392
  127MOL   H17540747   0.181   6.067   3.312 -0.1522  0.0035  0.2406
  127MOL   H17640748   8.040   6.151   3.271  1.4401 -0.8539 -0.7908
  127MOL   H17740749   8.001   6.374   3.234 -1.1658 -3.1586  1.8369
  127MOL   C17840750   0.106   6.598   3.053 -0.5140 -0.3107  0.0264
  127MOL   C17940751   0.114   6.741   2.985  0.4704 -0.0040 -0.4102
  127MOL   C18040752   0.166   6.846   3.087 -0.4016  0.1520 -0.0714
  127MOL   C18140753   0.068   6.929   3.152 -0.4296 -0.0776  0.1142
  127MOL   C18240754   0.101   7.033   3.242  0.1792 -0.6422  0.4663
  127MOL   C18340755   0.238   7.036   3.283 -0.2293 -0.0623  0.2120
  127MOL   C18440756   0.333   6.951   3.225 -0.4048  0.2713  0.3423
  127MOL   C18540757   0.299   6.858   3.129 -0.2028  0.2827 -0.0837
  127MOL   H18640758   0.040   6.541   2.986 -1.6900  0.7461  0.2739
  127MOL   H18740759   0.204   6.554   3.035 -0.5487 -0.1180 -0.6799
  127MOL   H18840760   0.013   6.776   2.968  0.1513 -0.1338  1.1143
  127MOL   H18940761   8.077   6.914   3.139 -0.6000 -0.3176  1.7358
  127MOL   H19040762   0.024   7.086   3.297 -0.2539 -0.0300 -0.7263
  127MOL   H19140763   0.279   7.102   3.358 -1.1260 -0.6238  1.2036
  127MOL   H19240764   0.439   6.956   3.246  0.0758 -1.3214 -1.5562
  127MOL   H19340765   0.375   6.790   3.092 -0.5012  0.3791 -0.8731
  127MOL   C19440766   0.194   6.738   2.849  0.1722 -0.0001 -0.5012
  127MOL   C19540767   0.171   6.869   2.762  0.0399 -0.4785  0.0475
  127MOL   C19640768   0.305   6.912   2.692 -0.5541 -0.6527  0.3152
  127MOL   C19740769   0.359   7.035   2.726 -0.1314  0.4590  0.7227
  127MOL   C19840770   0.483   7.075   2.678 -0.3281 -0.2883 -0.5461
  127MOL   C19940771   0.544   6.994   2.582  0.2428 -0.2390 -0.6012
  127MOL   C20040772   0.492   6.870   2.539  0.5901  0.5722 -0.6311
  127MOL   C20140773   0.371   6.829   2.596  0.6372  0.2244 -0.4452
  127MOL   H20240774   0.171   6.647   2.793  0.2525 -0.0328 -0.4807
  127MOL   H20340775   0.302   6.726   2.853  0.0299 -1.0168  0.8410
  127MOL   H20440776   0.144   6.947   2.833  2.8381  0.5089  0.0983
  127MOL   H20540777   0.305   7.101   2.792 -1.5913 -0.4076  0.4108
  127MOL   H20640778   0.530   7.170   2.701 -0.9256 -0.1011 -0.0985
  127MOL   H20740779   0.642   7.025   2.548  0.2712 -1.7325 -1.9654
  127MOL   H20840780   0.551   6.814   2.467  0.6653  0.1611 -0.2498
  127MOL   H20940781   0.328   6.733   2.569  0.6103  0.4929 -1.3654
  127MOL   C21040782   0.051   6.849   2.679  0.1718 -0.9323  0.2716
  127MOL   C21140783   0.017   6.964   2.582  0.1970  0.4473 -0.3819
  127MOL   C21240784   8.106   6.926   2.438 -0.8405  0.1486  0.4034
  127MOL   C21340785   0.067   6.989   2.337 -0.2135 -0.0035 -0.0626
  127MOL   C21440786   0.040   6.958   2.203 -0.1576  0.1857  0.3320
  127MOL   C21540787   8.061   6.853   2.175  0.2359 -0.4013  0.2730
  127MOL   C21640788   7.999   6.782   2.279  0.0827 -0.1172 -0.2740
  127MOL   C21740789   8.024   6.821   2.413 -0.2067 -0.3558 -0.5647
  127MOL   H21840790   8.083   6.820   2.745  0.9793  0.7849  2.0870
  127MOL   H21940791   0.062   6.753   2.628 -0.3406 -1.5578  1.3290
  127MOL   H22040792   0.106   7.027   2.585  0.2249  0.4408 -1.0096
  127MOL   H22140793   0.142   7.061   2.365  1.4883 -2.2872  1.3587
  127MOL   H22240794   0.086   7.003   2.116  0.6758  0.2329  0.7941
  127MOL   H22340795   8.049   6.826   2.071  0.5420  0.0095  0.1271
  127MOL   H22440796   7.941   6.694   2.255  1.4775 -1.8985  2.6043
  127MOL   H22540797   7.967   6.773   2.491  3.2205 -1.5775  1.2846
  127MOL   C22640798   8.034   7.064   2.640 -0.0657 -0.3999 -0.7987
  127MOL   C22740799   7.880   7.036   2.651 -0.3423 -0.4857  0.6267
  127MOL   C22840800   7.854   6.928   2.761  0.3029  0.1516  0.4223
  127MOL   C22940801   7.799   6.801   2.724 -0.0315  0.5021  0.4445
  127MOL   C23040802   7.758   6.705   2.818 -0.3255  0.4093  0.4904
  127MOL   C23140803   7.772   6.735   2.957  0.0715  0.4225 -0.5978
  127MOL   C23240804   7.828   6.862   2.995 -0.0052 -0.3202 -0.3835
  127MOL   C23340805   7.873   6.958   2.898  0.3410 -0.0364 -0.1098
  127MOL   H23440806   8.062   7.160   2.598 -1.1229  1.4661  2.5597
  127MOL   H23540807   8.059   7.083   2.745 -0.2631 -0.7767 -0.6811
  127MOL   H23640808   7.847   6.981   2.562  2.2493  0.9226 -1.2678
  127MOL   H23740809   7.803   6.778   2.619  0.9819  1.5317  0.2474
  127MOL   H23840810   7.719   6.609   2.787  0.1725 -0.5630  2.7141
  127MOL   H23940811   7.736   6.667   3.033 -2.7808  2.6173  0.0599
  127MOL   H24040812   7.825   6.887   3.100 -1.2791 -1.4000 -0.1553
  127MOL   H24140813   7.898   7.054   2.941 -2.2865 -0.1438  1.7339
  127MOL   C24240814   7.792   7.158   2.660 -0.2631  0.1819  0.2952
  127MOL   C24340815   7.773   7.238   2.532 -0.2088 -0.1737 -0.2392
  127MOL   C24440816   7.673   7.175   2.431  0.4865  0.1306  0.2775
  127MOL   C24540817   7.719   7.093   2.329  0.3911  0.3243  0.1163
  127MOL   C24640818   7.633   7.049   2.228  0.4640 -0.0722  0.0522
  127MOL   C24740819   7.495   7.059   2.252  0.1022  0.6768  1.1288
  127MOL   C24840820   7.443   7.133   2.363 -0.0087 -0.1042 -0.6149
  127MOL   C24940821   7.530   7.194   2.450 -0.1110 -0.2695 -0.1077
  127MOL   H25040822   7.823   7.217   2.746 -0.3804 -1.6310  1.5917
  127MOL   H25140823   7.692   7.118   2.677 -0.5539  0.5201 -0.5692
  127MOL   H25240824   7.872   7.244   2.487 -0.1039  2.2216  0.2429
  127MOL   H25340825   7.825   7.080   2.310  0.0780 -1.0588 -0.7292
  127MOL   H25440826   7.673   6.996   2.142 -1.7475 -2.4653  0.4385
  127MOL   H25540827   7.428   7.012   2.181  1.3070  1.8021 -0.8279
  127MOL   H25640828   7.336   7.137   2.379  0.6129  1.3215  3.9460
  127MOL   H25740829   7.486   7.249   2.532 -0.0354 -1.6833  0.8869
  127MOL   C25840830   7.732   7.383   2.558  0.2323  0.3049  0.0899
  127MOL   C25940831   7.841   7.481   2.609 -0.9135  0.0599 -0.7905
  127MOL   C26040832   7.990   7.462   2.560 -0.3730  0.2476  0.1135
  127MOL   C26140833   8.104   7.456   2.648  0.2054 -0.1367 -0.1369
  127MOL   C26240834   0.116   7.448   2.592 -0.4911 -0.3081 -0.3246
  127MOL   C26340835   0.139   7.442   2.455 -0.8132  0.1249  0.3269
  127MOL   C26440836   0.032   7.461   2.370 -0.2376  0.2501 -0.0169
  127MOL   C26540837   8.017   7.465   2.422 -0.3541  0.4150  0.9505
  127MOL   H26640838   7.639   7.383   2.614  0.9014  0.4496  1.1973
  127MOL   H26740839   7.713   7.419   2.456  0.5316 -1.9388 -0.7886
  127MOL   H26840840   7.841   7.460   2.716  0.5277 -1.1115 -1.0093
  127MOL   H26940841   8.089   7.460   2.755 -0.5623  0.7402 -0.2760
  127MOL   H27040842   0.204   7.442   2.654  0.4315  0.5103 -1.5373
  127MOL   H27140843   0.239   7.431   2.415 -1.2428 -1.0408 -0.4523
  127MOL   H27240844   0.046   7.472   2.263 -0.5606  0.5814 -0.0295
  127MOL   H27340845   7.948   7.498   2.345 -0.4089 -1.0273  0.3655
  127MOL   C27440846   7.794   7.627   2.594  0.2828  0.4304  0.6740
  127MOL   C27540847   7.871   7.746   2.647  0.3347 -1.1841  0.6649
  127MOL   C27640848   7.836   7.862   2.559 -0.0175 -0.1205 -0.5656
  127MOL   C27740849   7.919   7.886   2.448 -0.1308 -0.2348  0.4263
  127MOL   C27840850   7.885   7.988   2.355 -0.1800 -0.2231 -0.6048
  127MOL   C27940851   7.769   8.063   2.371  0.9349  0.2084 -0.3581
  127MOL   C28040852   7.689   8.040   2.484  0.1776 -0.4641  0.0651
  127MOL   C28140853   7.726   7.941   2.579 -0.5040 -0.1573 -0.4868
  127MOL   H28240854   7.688   7.625   2.619  0.6063 -1.2909  1.9987
  127MOL   H28340855   7.786   7.655   2.489  0.2048 -1.2064  0.2411
  127MOL   H28440856   7.979   7.733   2.633  0.6144  1.7341 -0.2708
  127MOL   H28540857   7.998   7.814   2.435  0.1860  0.0702  0.6578
  127MOL   H28640858   7.936   7.997   2.260 -1.8214 -0.2344 -1.5094
  127MOL   H28740859   7.740   0.020   2.296  0.6228  2.1965  1.6205
  127MOL   H28840860   7.603   8.105   2.490 -0.6531 -1.4431 -1.0573
  127MOL   H28940861   7.661   7.913   2.660 -2.4961  0.3783 -1.8493
  127MOL   C29040862   7.841   7.756   2.799 -0.0588  0.4728  0.5294
  127MOL   C29140863   7.912   7.876   2.875  0.9033  0.4539 -0.0212
  127MOL   C29240864   7.890   7.867   3.025 -0.4244  0.4982 -0.4353
  127MOL   C29340865   7.929   7.754   3.106  0.3914  0.4778  0.0614
  127MOL   C29440866   7.921   7.751   3.246 -0.1539  0.3689  0.3224
  127MOL   C29540867   7.877   7.867   3.311 -0.5581  0.0135  1.0171
  127MOL   C29640868   7.832   7.977   3.239  0.4930 -0.8100  0.5523
  127MOL   C29740869   7.842   7.979   3.099 -1.0622 -0.2458  0.7898
  127MOL   H29840870   7.891   7.666   2.835 -0.1621 -0.0181 -0.5474
  127MOL   H29940871   7.732   7.755   2.812 -0.1682 -1.0784 -0.3654
  127MOL   H30040872   7.860   7.967   2.845 -1.7250 -0.6428  1.0380
  127MOL   H30140873   7.955   7.663   3.056 -0.4207  0.4166 -0.2605
  127MOL   H30240874   7.955   7.666   3.302 -0.0789 -1.9257 -3.0891
  127MOL   H30340875   7.874   7.875   3.419 -2.3894  1.5870  0.8645
  127MOL   H30440876   7.786   8.054   3.298 -1.2899 -0.8336 -0.7688
  127MOL   H30540877   7.840   8.077   3.053 -1.5109 -0.6041  0.0406
  127MOL   C30640878   8.065   7.896   2.840  0.8346  0.1370  0.7780
  127MOL   C30740879   0.049   7.798   2.890  0.0229  0.4914  0.5228
  127MOL   C30840880   0.188   7.841   2.867  0.1032  0.2908  0.4355
  127MOL   C30940881   0.238   7.860   2.736  0.2366  0.8087  0.1458
  127MOL   C31040882   0.369   7.909   2.724 -0.1164  0.3552 -0.3418
  127MOL   C31140883   0.435   7.966   2.832 -0.2996  0.2680 -0.7515
  127MOL   C31240884   0.381   7.951   2.962  0.4311  0.4895 -0.2399
  127MOL   C31340885   0.257   7.886   2.978 -0.4368 -0.1754 -0.2065
  127MOL   H31440886   8.084   7.991   2.891 -0.8683  0.2262  1.2631
  127MOL   H31540887   8.081   7.919   2.735 -4.9662 -1.7148 -0.7098
  127MOL   H31640888   0.022   7.707   2.837 -0.1118  0.1963  1.0873
  127MOL   H31740889   0.181   7.822   2.652 -0.9698  0.5823  1.0409
  127MOL   H31840890   0.414   7.915   2.626  1.9313  0.7029  0.6071
  127MOL   H31940891   0.530   8.011   2.811 -0.3039  0.6522  0.0341
  127MOL   H32040892   0.424   7.990   3.053 -0.6973  1.5113 -0.1277
  127MOL   H32140893   0.215   7.880   3.077 -2.9436  1.5341 -1.1154
  127MOL   H32240894   0.041   7.758   2.992 -3.8573  1.1153  0.5393
  128MOL     C140895   1.560   0.978   1.310  0.1981  0.1197 -0.3555
  128MOL     C240896   1.691   0.903   1.300  0.1513  0.2332 -0.1586
  128MOL     C340897   1.779   0.924   1.426 -0.0318  0.1836  0.0301
  128MOL     C440898   1.919   0.921   1.416  0.0151  0.1035  0.2541
  128MOL     C540899   2.003   0.942   1.531  0.8953  0.0364  0.0761
  128MOL     C640900   1.945   0.967   1.654  0.8521 -0.3548  0.3355
  128MOL     C740901   1.801   0.978   1.671  0.5740 -0.3997 -0.1365
  128MOL     C840902   1.726   0.956   1.555  0.6297 -0.1978  0.5148
  128MOL     H940903   1.482   0.933   1.372 -1.0028  0.8709 -1.2703
  128MOL    H1040904   1.576   1.076   1.355  1.0664  0.1463 -0.7242
  128MOL    H1140905   1.751   0.939   1.217  0.6794  0.1042  0.1629
  128MOL    H1240906   1.961   0.897   1.320 -2.0740  3.7604 -1.6665
  128MOL    H1340907   2.109   0.925   1.519  0.7727  0.4707 -1.8652
  128MOL    H1440908   2.022   0.977   1.729  2.3203  0.9208 -1.3120
  128MOL    H1540909   1.760   1.000   1.768  3.5806  0.1725  1.0673
  128MOL    H1640910   1.619   0.972   1.553  0.4434 -1.1021  2.0902
  128MOL    H1740911   1.517   0.996   1.212  0.0207  1.0052 -0.1220
  128MOL    C1840912   1.671   0.752   1.269 -0.2241 -0.2244 -0.1282
  128MOL    C1940913   1.598   0.733   1.131  0.0672  0.1448 -0.1053
  128MOL    C2040914   1.689   0.796   1.017 -0.7341  0.0111 -0.0521
  128MOL    C2140915   1.813   0.735   0.975 -0.0169 -0.3134  0.4240
  128MOL    C2240916   1.892   0.793   0.880 -0.3860 -0.5818  0.9736
  128MOL    C2340917   1.866   0.926   0.830 -0.0061  0.5862 -0.0073
  128MOL    C2440918   1.754   0.993   0.878  0.2309  0.5063  0.5807
  128MOL    C2540919   1.661   0.925   0.963  0.3852 -0.0870 -0.3625
  128MOL    H2640920   1.622   0.717   1.360 -2.1209  1.6504 -0.3785
  128MOL    H2740921   1.774   0.717   1.269  0.0867  0.6089  2.2447
  128MOL    H2840922   1.499   0.776   1.139  0.1565  0.9453 -2.7651
  128MOL    H2940923   1.852   0.641   1.011  0.8146 -0.3778 -0.6111
  128MOL    H3040924   1.984   0.749   0.843 -0.3854  0.8753 -0.8350
  128MOL    H3140925   1.937   0.978   0.768 -1.2404  1.1757 -0.9513
  128MOL    H3240926   1.730   1.095   0.853  0.2852  0.3334 -0.1620
  128MOL    H3340927   1.564   0.966   0.986 -0.2177 -2.1080  0.8609
  128MOL    C3440928   1.575   0.586   1.109 -0.3979 -0.2438 -0.1631
  128MOL    C3540929   1.483   0.563   0.985  0.4756  0.1980 -0.1553
  128MOL    C3640930   1.568   0.501   0.872  0.7564 -0.8124 -0.0270
  128MOL    C3740931   1.633   0.380   0.886 -0.2334  0.6361 -0.8222
  128MOL    C3840932   1.723   0.327   0.786 -0.1665 -0.1206  0.2094
  128MOL    C3940933   1.752   0.404   0.678 -0.1847  0.1758 -0.3616
  128MOL    C4040934   1.680   0.523   0.658  0.3997 -0.0483  0.1227
  128MOL    C4140935   1.592   0.566   0.754  0.2169 -0.2306  0.0962
  128MOL    H4240936   1.537   0.537   1.199 -2.5360  0.4581 -0.6536
  128MOL    H4340937   1.670   0.535   1.092  1.6619  3.0012  1.2313
  128MOL    H4440938   1.449   0.656   0.941  4.6654  1.3215 -1.2952
  128MOL    H4540939   1.617   0.325   0.978  1.3304  2.1766  0.4103
  128MOL    H4640940   1.778   0.235   0.797  0.9988  0.4512 -0.7722
  128MOL    H4740941   1.822   0.378   0.599 -0.5623  0.4243 -0.7769
  128MOL    H4840942   1.696   0.591   0.575 -0.2094  0.3401  0.3159
  128MOL    H4940943   1.541   0.658   0.729 -0.2558 -0.6105 -0.3323
  128MOL    C5040944   1.353   0.479   1.003  0.1354 -0.2014 -1.1789
  128MOL    C5140945   1.226   0.554   0.953  0.3934 -0.3829  1.0638
  128MOL    C5240946   1.110   0.458   0.933 -0.0840 -0.2933 -0.3043
  128MOL    C5340947   1.086   0.422   0.798  0.1819 -0.0072 -0.1509
  128MOL    C5440948   0.984   0.323   0.775 -0.4422 -0.0724 -0.2912
  128MOL    C5540949   0.905   0.273   0.877  0.2030 -1.0584  0.4708
  128MOL    C5640950   0.927   0.319   1.007 -0.1408  0.5053 -0.0838
  128MOL    C5740951   1.038   0.402   1.043 -0.8382  0.8372  0.0214
  128MOL    H5840952   1.340   0.458   1.109 -1.3018 -0.6387 -1.4270
  128MOL    H5940953   1.361   0.385   0.948  0.5664 -1.1272  0.4469
  128MOL    H6040954   1.249   0.599   0.857 -1.8288  1.5195  1.3752
  128MOL    H6140955   1.146   0.456   0.715  2.0842  0.0155  1.1992
  128MOL    H6240956   0.970   0.300   0.670 -0.4206 -3.0459  0.3322
  128MOL    H6340957   0.822   0.209   0.852 -0.2645 -0.1540 -0.2949
  128MOL    H6440958   0.854   0.277   1.074  1.6595 -1.8421  0.4618
  128MOL    H6540959   1.047   0.427   1.148 -0.6847  1.0521 -0.0417
  128MOL    C6640960   1.180   0.669   1.055  0.3285  0.4840  0.2103
  128MOL    C6740961   1.059   0.747   1.014  0.0461  0.0942 -0.1446
  128MOL    C6840962   0.992   0.807   1.130 -0.0656  0.2937 -0.1274
  128MOL    C6940963   0.892   0.737   1.191  0.0967  0.6878 -0.1133
  128MOL    C7040964   0.809   0.784   1.298 -0.9282 -0.1015 -0.6753
  128MOL    C7140965   0.834   0.915   1.347  0.4173  0.0472  0.2363
  128MOL    C7240966   0.943   0.988   1.292 -0.0439  0.4236  0.3825
  128MOL    C7340967   1.030   0.927   1.194  0.3667 -0.2530  0.5314
  128MOL    H7440968   1.262   0.738   1.069  0.1031  0.3218  2.5404
  128MOL    H7540969   1.154   0.620   1.149 -2.4441  0.0421 -0.7406
  128MOL    H7640970   0.984   0.677   0.975 -1.4422  1.7251 -0.2749
  128MOL    H7740971   0.874   0.638   1.150 -0.9146  0.3416  1.1269
  128MOL    H7840972   0.722   0.729   1.329 -1.4171  1.9761  1.8636
  128MOL    H7940973   0.776   0.965   1.423 -0.2520 -2.3554  1.3480
  128MOL    H8040974   0.971   1.088   1.322  0.1119  0.2747  0.7331
  128MOL    H8140975   1.109   0.989   1.154 -0.6161  1.3891  1.0892
  128MOL    C8240976   1.096   0.846   0.901  0.5193 -0.2251 -0.2839
  128MOL    C8340977   0.978   0.912   0.837 -0.1640  1.1083  0.2075
  128MOL    C8440978   0.984   1.062   0.872 -0.2886 -0.4905 -0.1958
  128MOL    C8540979   0.876   1.102   0.960 -0.0395 -0.7064 -0.8109
  128MOL    C8640980   0.866   1.236   1.002  0.2029  0.5309 -0.0545
  128MOL    C8740981   0.948   1.336   0.945  0.0885  0.0717 -0.4758
  128MOL    C8840982   1.041   1.303   0.843 -0.8651 -0.0173  0.6920
  128MOL    C8940983   1.066   1.164   0.808 -0.1449  0.3022  0.0589
  128MOL    H9040984   1.143   0.788   0.821  1.3210  1.0535 -0.7531
  128MOL    H9140985   1.168   0.921   0.932  1.1812  0.7565 -4.0463
  128MOL    H9240986   0.891   0.865   0.882  0.4264  0.1747  0.3956
  128MOL    H9340987   0.822   1.034   1.024  0.4082 -1.3030 -1.0682
  128MOL    H9440988   0.791   1.259   1.077 -0.6104 -0.5556 -0.5143
  128MOL    H9540989   0.930   1.438   0.977  1.8859  0.8091 -1.7335
  128MOL    H9640990   1.086   1.380   0.781  0.2348 -0.7527  0.5695
  128MOL    H9740991   1.138   1.138   0.733  0.1839  0.9813  0.1317
  128MOL    C9840992   0.975   0.901   0.681  0.2817  0.3903 -0.0670
  128MOL    C9940993   0.938   0.760   0.622  0.4115 -1.0941 -0.7993
  128MOL   C10040994   0.785   0.729   0.655 -0.2151 -0.6075  0.2306
  128MOL   C10140995   0.674   0.800   0.597  0.7756  0.6494 -0.5193
  128MOL   C10240996   0.545   0.782   0.646  0.0231  0.3840 -0.3444
  128MOL   C10340997   0.524   0.682   0.749  0.2806  0.0034 -0.1284
  128MOL   C10440998   0.630   0.610   0.804  0.4426 -0.6309 -0.1455
  128MOL   C10540999   0.762   0.638   0.759  0.2784 -0.1970 -0.1905
  128MOL   H10641000   1.072   0.926   0.640 -0.2636  1.9426 -0.4548
  128MOL   H10741001   0.896   0.967   0.646 -2.0980 -1.5215  1.4569
  128MOL   H10841002   0.998   0.693   0.683 -0.5054 -1.0673  0.1476
  128MOL   H10941003   0.692   0.863   0.512  2.9295  0.0267 -0.5570
  128MOL   H11041004   0.463   0.841   0.610 -0.0425  0.6043  0.1634
  128MOL   H11141005   0.426   0.673   0.794  0.8499 -0.6506  0.9886
  128MOL   H11241006   0.614   0.541   0.885  0.7723 -0.4302  0.0904
  128MOL   H11341007   0.845   0.590   0.809  1.0325  2.8474  1.5872
  128MOL   C11441008   0.975   0.743   0.472 -0.3613  0.0581 -0.2489
  128MOL   C11541009   1.131   0.726   0.448  0.2967 -0.1235 -0.7651
  128MOL   C11641010   1.179   0.579   0.461  1.2324  0.3990 -0.0833
  128MOL   C11741011   1.121   0.477   0.386  0.2674 -0.1360 -0.1050
  128MOL   C11841012   1.176   0.346   0.390 -0.1781  0.2707 -0.0285
  128MOL   C11941013   1.287   0.315   0.469  0.1912 -0.0283 -0.4439
  128MOL   C12041014   1.350   0.421   0.533  0.0505 -0.6520 -0.2857
  128MOL   C12141015   1.300   0.548   0.521  0.1673 -0.2983 -0.2872
  128MOL   H12241016   0.934   0.829   0.419 -0.1661 -0.4962 -1.3045
  128MOL   H12341017   0.925   0.648   0.449 -1.4398  0.9660 -1.7597
  128MOL   H12441018   1.185   0.769   0.532 -0.7401 -0.9856  0.3644
  128MOL   H12541019   1.036   0.504   0.326 -0.1455 -0.9761  0.0889
  128MOL   H12641020   1.125   0.267   0.335  0.6676  0.8859 -1.7355
  128MOL   H12741021   1.323   0.213   0.478 -2.2997 -0.8017  1.1332
  128MOL   H12841022   1.440   0.405   0.590 -1.0287  0.1029  1.6713
  128MOL   H12941023   1.362   0.628   0.559  1.4583 -1.5387  0.2752
  128MOL   C13041024   1.168   0.779   0.314 -0.1096 -0.4916 -0.4342
  128MOL   C13141025   1.184   0.928   0.303  0.4390 -0.8944 -0.1447
  128MOL   C13241026   1.284   0.987   0.398  0.5526  0.1921 -0.1292
  128MOL   C13341027   1.245   1.099   0.470  0.2229  0.0646  0.0425
  128MOL   C13441028   1.324   1.152   0.567  0.0912 -0.4866 -0.7722
  128MOL   C13541029   1.438   1.088   0.608  0.4900 -0.1752  0.0055
  128MOL   C13641030   1.484   0.973   0.536  0.2254 -0.0112 -0.3500
  128MOL   C13741031   1.406   0.921   0.429  0.4000  0.2086 -0.5933
  128MOL   H13841032   1.099   0.733   0.243 -1.2594 -0.2416  0.4964
  128MOL   H13941033   1.259   0.728   0.281  0.4190 -1.0658  1.8400
  128MOL   H14041034   1.092   0.976   0.337  1.7869  3.0314 -1.8146
  128MOL   H14141035   1.156   1.155   0.446  0.0244  0.6473  2.0079
  128MOL   H14241036   1.310   1.241   0.627 -0.4236 -1.0781  0.0067
  128MOL   H14341037   1.501   1.127   0.687 -0.9389 -0.1688  1.1706
  128MOL   H14441038   1.574   0.923   0.570 -0.6556 -1.9005 -0.7558
  128MOL   H14541039   1.445   0.837   0.374  0.9565 -1.1005  1.7521
  128MOL   C14641040   1.194   0.983   0.158 -0.7745 -0.3431 -0.1859
  128MOL   C14741041   1.054   0.998   0.091  0.1654 -0.0999 -0.7408
  128MOL   C14841042   0.955   1.089   0.166 -0.3347 -0.1446  0.8565
  128MOL   C14941043   1.004   1.220   0.195  0.4128  0.4660  0.0450
  128MOL   C15041044   0.920   1.313   0.268 -0.4566  0.4800  0.4903
  128MOL   C15141045   0.793   1.269   0.302  0.1395 -0.6818  0.1903
  128MOL   C15241046   0.744   1.138   0.271 -0.6781 -0.4802 -0.1517
  128MOL   C15341047   0.829   1.044   0.204 -0.2915 -0.6979 -0.9186
  128MOL   H15441048   1.268   0.930   0.098 -0.1521 -1.6239  1.6373
  128MOL   H15541049   1.241   1.080   0.174  0.0918 -0.8658  0.5646
  128MOL   H15641050   0.997   0.905   0.100 -0.5465  0.4482  0.4592
  128MOL   H15741051   1.107   1.247   0.176  0.4001 -0.7770 -1.8583
  128MOL   H15841052   0.955   1.411   0.297 -3.9708  2.5760 -1.9454
  128MOL   H15941053   0.718   1.324   0.356  0.9136  1.4065 -0.8137
  128MOL   H16041054   0.644   1.111   0.302 -1.4197  2.4600  0.1422
  128MOL   H16141055   0.783   0.951   0.173 -1.2210 -1.1790  1.7073
  128MOL   C16241056   1.052   1.051   8.061  0.4627  0.2998  0.1506
  128MOL   C16341057   0.934   0.995   7.971  0.0314 -0.0734  0.6040
  128MOL   C16441058   0.886   1.086   7.859  0.8721 -0.4570  0.2255
  128MOL   C16541059   0.748   1.093   7.824 -0.2441  0.1760  0.8373
  128MOL   C16641060   0.699   1.174   7.724  0.0774 -0.0697  0.7787
  128MOL   C16741061   0.788   1.245   7.640 -0.3770  0.9449 -0.2056
  128MOL   C16841062   0.931   1.230   7.662  0.5644  0.2817  1.2077
  128MOL   C16941063   0.974   1.143   7.765 -0.5649  0.0347 -0.0144
  128MOL   H17041064   1.148   1.016   8.023  0.1898 -1.5902  1.1321
  128MOL   H17141065   1.057   1.159   8.057  1.6132  0.2212 -0.5440
  128MOL   H17241066   0.842   0.975   8.026  0.5986  0.9567  1.9301
  128MOL   H17341067   0.675   1.044   7.886 -0.4735  0.0154  0.4385
  128MOL   H17441068   0.592   1.178   7.709  0.0043 -0.7011  1.1331
  128MOL   H17541069   0.766   1.315   7.561  0.5633  0.6754 -0.7126
  128MOL   H17641070   0.999   1.273   7.591 -1.5010 -0.9864 -1.6521
  128MOL   H17741071   1.079   1.132   7.784 -0.1338  1.7546 -1.2780
  128MOL   C17841072   0.969   0.863   7.903  0.1001  0.2665 -0.1678
  128MOL   C17941073   0.980   0.751   8.004  0.1796 -0.2147  0.1357
  128MOL   C18041074   0.852   0.710   8.079  0.3162  0.5063  0.1981
  128MOL   C18141075   0.862   0.644   0.086 -0.2199  0.1925  0.2003
  128MOL   C18241076   0.749   0.612   0.167  0.1734 -0.3312  0.0295
  128MOL   C18341077   0.621   0.650   0.121  0.2878 -0.4663 -0.2088
  128MOL   C18441078   0.609   0.709   8.114 -0.5402  0.1221 -0.5645
  128MOL   C18541079   0.721   0.736   8.031 -0.0044 -0.2078 -0.1185
  128MOL   H18641080   1.062   0.884   7.849 -0.0882 -0.8659 -0.9588
  128MOL   H18741081   0.891   0.835   7.832 -0.2689 -0.9039  0.6876
  128MOL   H18841082   1.059   0.769   8.077 -0.9332  0.1176  1.2861
  128MOL   H18941083   0.957   0.608   0.124  1.0467  2.2247 -1.0014
  128MOL   H19041084   0.771   0.553   0.254  3.1538 -0.9912 -1.1218
  128MOL   H19141085   0.535   0.628   0.182  1.3091 -0.6828  1.1961
  128MOL   H19241086   0.522   0.743   8.060 -0.1044  1.0049 -0.7218
  128MOL   H19341087   0.703   0.782   7.935  0.4518 -0.5555 -0.3670
  128MOL   C19441088   1.017   0.626   7.927  0.4127  0.0178 -0.1751
  128MOL   C19541089   1.154   0.614   7.868 -0.0423  0.3081  0.3609
  128MOL   C19641090   1.269   0.660   7.959  0.6543  0.6019 -0.2077
  128MOL   C19741091   1.301   0.584   8.070  0.2401 -0.4374 -0.4817
  128MOL   C19841092   1.389   0.628   0.055  0.5332  0.0337  0.4956
  128MOL   C19941093   1.458   0.750   0.036 -0.4510  0.6602  0.2586
  128MOL   C20041094   1.430   0.828   8.037  0.1594  0.1838 -0.2243
  128MOL   C20141095   1.333   0.785   7.944 -0.0019  0.6042  0.1122
  128MOL   H20241096   0.948   0.616   7.843  2.3488  1.0245 -1.9146
  128MOL   H20341097   1.001   0.534   7.984 -1.7101 -0.0012 -0.7436
  128MOL   H20441098   1.168   0.680   7.782 -1.7130 -0.6372 -0.6649
  128MOL   H20541099   1.238   0.500   8.091 -0.5393  0.0167 -0.9919
  128MOL   H20641100   1.407   0.563   0.139  1.2537 -0.1278  0.2244
  128MOL   H20741101   1.536   0.785   0.102  0.4029  0.6662 -0.7360
  128MOL   H20841102   1.489   0.916   8.013  1.4926 -0.3501  0.9745
  128MOL   H20941103   1.317   0.845   7.856 -1.8648  1.3230  0.9208
  128MOL   C21041104   1.176   0.480   7.789 -0.3301  0.1428 -0.3008
  128MOL   C21141105   1.320   0.440   7.761 -0.1959 -0.1188 -0.3978
  128MOL   C21241106   1.330   0.301   7.706 -0.0959  0.0834  0.4936
  128MOL   C21341107   1.356   0.194   7.791 -0.1995 -0.9652  0.3843
  128MOL   C21441108   1.364   0.065   7.737 -0.0578 -0.1734  0.1902
  128MOL   C21541109   1.350   0.045   7.600 -0.1276  0.5880 -0.0635
  128MOL   C21641110   1.316   0.148   7.511 -0.0650  0.0118  0.6087
  128MOL   C21741111   1.304   0.279   7.563 -0.3554  0.3599  0.2391
  128MOL   H21841112   1.113   0.472   7.699  1.0550  1.7023 -1.4406
  128MOL   H21941113   1.126   0.402   7.846  1.0272  0.8322  1.8649
  128MOL   H22041114   1.371   0.438   7.857 -0.7175  1.5504 -0.0741
  128MOL   H22141115   1.369   0.207   7.897  0.0618  0.4388  0.1980
  128MOL   H22241116   1.382   8.098   7.806 -0.1318 -0.1970  0.1817
  128MOL   H22341117   1.360   8.061   7.558 -0.0069  1.3918 -1.9774
  128MOL   H22441118   1.312   0.130   7.405  5.0644  2.7006 -0.2152
  128MOL   H22541119   1.275   0.363   7.502 -0.8137  0.4890  0.6302
  128MOL   C22641120   1.408   0.532   7.679 -0.4315  0.2886  0.0359
  128MOL   C22741121   1.559   0.497   7.673  0.3427  0.2667 -0.2061
  128MOL   C22841122   1.627   0.520   7.541 -0.5320 -0.6014  0.0973
  128MOL   C22941123   1.615   0.639   7.472 -0.1636  0.2476 -0.8252
  128MOL   C23041124   1.671   0.657   7.338 -0.2435 -0.0556 -0.0928
  128MOL   C23141125   1.746   0.547   7.280  0.0249 -0.3814 -0.3830
  128MOL   C23241126   1.758   0.427   7.356  0.3358  0.2902  0.3872
  128MOL   C23341127   1.698   0.411   7.481  0.8875  0.1259 -0.1595
  128MOL   H23441128   1.392   0.637   7.705  0.7948  0.4421  0.1930
  128MOL   H23541129   1.379   0.543   7.574  1.4728  2.7687 -0.2956
  128MOL   H23641130   1.580   0.393   7.698  0.7675  0.0579 -1.4205
  128MOL   H23741131   1.566   0.722   7.521  1.5007 -1.0641  3.2905
  128MOL   H23841132   1.653   0.748   7.282 -1.9789  0.3035  1.0077
  128MOL   H23941133   1.780   0.550   7.178 -1.2440  3.6488 -0.7736
  128MOL   H24041134   1.812   0.349   7.304  0.4015 -0.2029  1.1789
  128MOL   H24141135   1.713   0.321   7.538 -0.8207  0.9166  1.6144
  128MOL   C24241136   1.629   0.571   7.787 -0.2896  0.0547 -0.0459
  128MOL   C24341137   1.727   0.486   7.877  0.5997  0.3733 -0.3991
  128MOL   C24441138   1.841   0.573   7.934  0.9564  0.1275 -0.0735
  128MOL   C24541139   1.974   0.544   7.916  0.0042  0.4648  0.3458
  128MOL   C24641140   2.072   0.623   7.979  0.0866  0.5926 -0.2778
  128MOL   C24741141   2.038   0.734   8.061  0.0409 -0.1893 -0.4115
  128MOL   C24841142   1.902   0.775   8.068 -0.2079  0.7507  0.3204
  128MOL   C24941143   1.803   0.693   8.004 -0.0156 -0.6772 -0.0629
  128MOL   H25041144   1.561   0.621   7.856 -2.4317  1.6086 -3.1393
  128MOL   H25141145   1.683   0.654   7.740  0.8664 -0.9646 -0.5594
  128MOL   H25241146   1.776   0.412   7.814  0.5582  1.2994 -1.5367
  128MOL   H25341147   1.998   0.471   7.840  0.0046  1.2281 -0.3831
  128MOL   H25441148   2.177   0.600   7.966  0.0489  0.6013 -0.5927
  128MOL   H25541149   2.112   0.791   8.114 -3.4727  2.4996  1.8062
  128MOL   H25641150   1.880   0.866   0.007 -0.0353  0.7721  0.3536
  128MOL   H25741151   1.699   0.719   8.008  0.1704  0.2047 -0.7489
  128MOL   C25841152   1.650   0.407   7.982 -0.7055 -0.2744  0.3735
  128MOL   C25941153   1.736   0.326   8.087  0.3104 -0.0038  0.8379
  128MOL   C26041154   1.762   0.411   0.096 -0.7910  0.2758  1.2192
  128MOL   C26141155   1.658   0.452   0.178 -0.4721 -0.0830 -0.3750
  128MOL   C26241156   1.687   0.550   0.278 -0.3791 -0.0463  0.2804
  128MOL   C26341157   1.818   0.594   0.306 -0.9145 -0.1853  0.1547
  128MOL   C26441158   1.922   0.539   0.229  0.9409 -0.1572  0.0522
  128MOL   C26541159   1.896   0.452   0.120 -0.2190  0.2349  0.2743
  128MOL   H26641160   1.595   0.328   7.930  0.6029 -1.3502  0.5976
  128MOL   H26741161   1.585   0.481   8.030 -1.6103 -1.5344  1.1097
  128MOL   H26841162   1.831   0.311   8.037 -0.7153 -0.6622 -0.9431
  128MOL   H26941163   1.555   0.421   0.170  0.0901 -1.4428 -2.4838
  128MOL   H27041164   1.604   0.587   0.337 -1.1620 -3.3038  1.3369
  128MOL   H27141165   1.835   0.668   0.383  0.6036 -0.3018 -0.0476
  128MOL   H27241166   2.021   0.576   0.248  0.6231 -0.0125  1.5024
  128MOL   H27341167   1.984   0.429   0.062 -0.0192 -1.9882  1.4070
  128MOL   C27441168   1.669   0.191   0.010 -0.5576 -0.2373  0.1400
  128MOL   C27541169   1.671   0.072   8.030  0.5614 -0.6676  0.7781
  128MOL   C27641170   1.796   0.070   7.944  0.6992 -0.9829 -0.8211
  128MOL   C27741171   1.790   0.124   7.815 -0.3065  0.1538 -0.3450
  128MOL   C27841172   1.901   0.133   7.732  0.3931  0.2408  0.6076
  128MOL   C27941173   2.025   0.084   7.779 -0.0195  0.3799 -0.4026
  128MOL   C28041174   2.031   0.022   7.906 -0.8773 -0.2597  0.8882
  128MOL   C28141175   1.921   0.021   7.991 -0.3759 -0.7758  0.8608
  128MOL   H28241176   1.564   0.202   0.039 -0.8314  0.0074 -0.9178
  128MOL   H28341177   1.732   0.168   0.095 -0.3398 -1.1176 -0.2600
  128MOL   H28441178   1.585   0.087   7.966 -0.2626 -2.6811  1.3616
  128MOL   H28541179   1.699   0.167   7.778  1.2028  1.8418 -2.1976
  128MOL   H28641180   1.893   0.179   7.635  1.3404 -0.9966 -0.0793
  128MOL   H28741181   2.113   0.071   7.718 -2.0983 -1.7884 -3.0670
  128MOL   H28841182   2.126   8.102   7.945 -0.1181  1.2658  0.4345
  128MOL   H28941183   1.929   8.087   8.087  0.7790 -1.1700  0.5818
  128MOL   C29041184   1.642   8.054   8.105 -0.0204  0.2193  0.2425
  128MOL   C29141185   1.597   7.932   8.024  0.0592 -0.2620  0.8232
  128MOL   C29241186   1.711   7.863   7.946 -0.0774  0.0842 -0.2567
  128MOL   C29341187   1.732   7.891   7.811 -0.3893 -0.3043 -0.0134
  128MOL   C29441188   1.830   7.822   7.744  0.4210  0.7002  0.7496
  128MOL   C29541189   1.921   7.734   7.805 -0.0516  0.1949 -0.8095
  128MOL   C29641190   1.907   7.708   7.943  0.3347 -0.2342 -0.0164
  128MOL   C29741191   1.801   7.771   8.011  0.4782 -0.2334  0.7529
  128MOL   H29841192   1.564   8.066   0.065 -0.7730 -1.3968 -0.2598
  128MOL   H29941193   1.730   8.023   0.047  0.5173 -1.4211 -1.4183
  128MOL   H30041194   1.529   7.967   7.947  1.9628 -1.2770 -1.3880
  128MOL   H30141195   1.671   7.959   7.753  1.3006 -0.5316 -2.1348
  128MOL   H30241196   1.849   7.843   7.640 -0.7324 -2.4724 -0.1643
  128MOL   H30341197   1.997   7.679   7.752  0.3475 -0.2427  0.2154
  128MOL   H30441198   1.977   7.636   7.982 -0.4684 -2.9863 -3.4219
  128MOL   H30541199   1.782   7.745   8.114  0.0366  0.3813  0.8358
  128MOL   C30641200   1.516   7.824   8.113 -0.2268 -0.4672 -0.5740
  128MOL   C30741201   1.462   7.695   8.040 -0.5907 -0.0270 -0.0261
  128MOL   C30841202   1.348   7.717   7.945  0.6148  0.1698  0.5207
  128MOL   C30941203   1.216   7.751   7.994  0.8214 -0.6635 -0.1249
  128MOL   C31041204   1.115   7.794   7.903  0.6243  0.3761  0.1693
  128MOL   C31141205   1.159   7.815   7.769 -0.0820  0.2733  0.5443
  128MOL   C31241206   1.289   7.778   7.724  0.4868  0.2912 -0.0072
  128MOL   C31341207   1.384   7.715   7.812  0.2866  0.6453  0.4383
  128MOL   H31441208   1.428   7.870   0.043 -0.6845 -0.5988 -1.3323
  128MOL   H31541209   1.583   7.782   0.073 -1.0974 -1.0545 -0.1158
  128MOL   H31641210   1.420   7.629   0.000 -0.4789 -0.2856 -0.1890
  128MOL   H31741211   1.195   7.740   8.099 -2.4696 -2.5539 -0.9350
  128MOL   H31841212   1.014   7.807   7.940  1.3844  0.9147  2.0950
  128MOL   H31941213   1.086   7.861   7.704  3.5317  2.4319 -2.1885
  128MOL   H32041214   1.312   7.792   7.619 -1.5410  0.2982 -0.4581
  128MOL   H32141215   1.479   7.679   7.774 -0.2081 -0.3385  0.0989
  128MOL   H32241216   1.543   7.632   8.001 -0.8539  1.3559 -2.9416
  129MOL     C141217   3.594   7.508   5.447  0.1931 -0.7517  0.3334
  129MOL     C241218   3.559   7.621   5.548  0.0693  0.1988  0.1683
  129MOL     C341219   3.545   7.577   5.691 -0.2376  0.9275  0.2985
  129MOL     C441220   3.615   7.471   5.743 -0.1265 -0.2162 -0.9995
  129MOL     C541221   3.601   7.428   5.874  0.1737  0.8147  0.2889
  129MOL     C641222   3.507   7.494   5.951  0.0630 -0.2539 -0.6297
  129MOL     C741223   3.429   7.601   5.899  0.3600  0.3788 -0.0442
  129MOL     C841224   3.447   7.641   5.768 -0.3753  0.0369 -0.0706
  129MOL     H941225   3.522   7.426   5.446 -0.3594 -0.2804 -2.0811
  129MOL    H1041226   3.607   7.534   5.342 -0.2037 -0.7787  0.2795
  129MOL    H1141227   3.459   7.639   5.510 -0.7492 -1.7137  1.3731
  129MOL    H1241228   3.697   7.424   5.691  1.3213  0.6091  0.4860
  129MOL    H1341229   3.656   7.344   5.913  0.5310  0.5806 -0.6956
  129MOL    H1441230   3.493   7.459   6.052 -0.1320 -1.3133 -1.0172
  129MOL    H1541231   3.353   7.644   5.962 -0.2839 -2.1249  0.9727
  129MOL    H1641232   3.374   7.702   5.718 -1.1726 -0.3067  0.6631
  129MOL    H1741233   3.691   7.465   5.474  0.0040 -0.2683  1.8203
  129MOL    C1841234   3.650   7.738   5.540 -0.0309 -0.6492  0.7571
  129MOL    C1941235   3.623   7.844   5.438  0.9247 -0.1998 -0.6960
  129MOL    C2041236   3.472   7.882   5.427  0.1867  0.1506  0.3069
  129MOL    C2141237   3.406   7.854   5.302 -0.2929  0.4471  0.1141
  129MOL    C2241238   3.276   7.898   5.285 -0.7070 -0.9580 -0.4895
  129MOL    C2341239   3.208   7.968   5.395 -0.7589 -0.2822  0.1509
  129MOL    C2441240   3.275   8.000   5.512 -0.1982  0.1585 -0.1962
  129MOL    C2541241   3.407   7.954   5.528 -1.0332 -0.0415  0.6139
  129MOL    H2641242   3.753   7.703   5.537  0.2274  0.1237  0.5834
  129MOL    H2741243   3.622   7.784   5.635  1.9239 -0.4235  1.2385
  129MOL    H2841244   3.645   7.805   5.338  1.1275  0.9035 -1.0861
  129MOL    H2941245   3.460   7.801   5.224  0.0595  1.9553 -0.6826
  129MOL    H3041246   3.214   7.883   5.198  0.4365 -1.3772 -1.2410
  129MOL    H3141247   3.115   8.017   5.371 -1.2095 -1.2156 -0.0549
  129MOL    H3241248   3.222   8.044   5.595  0.9079 -2.3703  1.9467
  129MOL    H3341249   3.456   7.977   5.621 -0.8252  0.8437  0.2869
  129MOL    C3441250   3.698   7.976   5.463 -0.7392  0.2744 -0.1968
  129MOL    C3541251   3.850   7.974   5.477  0.4829 -0.0287 -0.1345
  129MOL    C3641252   3.913   7.951   5.335  0.2223 -0.1933 -0.1809
  129MOL    C3741253   3.935   8.047   5.232  0.0714 -0.1131 -0.2543
  129MOL    C3841254   4.001   8.011   5.113  0.0197 -0.2499 -0.0261
  129MOL    C3941255   4.047   7.877   5.090  0.5697 -0.0207  0.3201
  129MOL    C4041256   4.033   7.782   5.191  0.2005  0.6728  0.8141
  129MOL    C4141257   3.973   7.820   5.312  0.2661  0.4386 -0.2896
  129MOL    H4241258   3.649   8.030   5.544  0.4842 -0.2187  0.8918
  129MOL    H4341259   3.671   8.039   5.378  0.7770  0.1837 -0.7578
  129MOL    H4441260   3.877   7.889   5.540 -2.5427 -0.8417  0.1568
  129MOL    H4541261   3.894   0.030   5.254  1.8162  0.6300 -0.1950
  129MOL    H4641262   4.003   8.083   5.033 -0.2015  0.1619  0.3334
  129MOL    H4741263   4.095   7.844   4.999  0.0257  0.4259 -0.1296
  129MOL    H4841264   4.070   7.683   5.169  0.4039  0.9066  0.0730
  129MOL    H4941265   3.956   7.740   5.381 -0.8468 -1.0605 -2.2290
  129MOL    C5041266   3.913   8.098   5.542 -0.2149  0.3012 -0.3726
  129MOL    C5141267   3.879   0.021   5.687 -0.5440  0.0777  0.4187
  129MOL    C5241268   3.825   8.028   5.767  0.3470  0.0541 -0.8139
  129MOL    C5341269   3.697   8.036   5.819 -0.1025  0.6428 -0.3850
  129MOL    C5441270   3.644   7.924   5.892  0.4755  0.3233 -0.0498
  129MOL    C5541271   3.726   7.808   5.919 -0.0916  0.7310  0.8757
  129MOL    C5641272   3.855   7.805   5.856 -0.0019  0.2885  0.3377
  129MOL    C5741273   3.896   7.916   5.779  0.1476 -0.2550  0.5397
  129MOL    H5841274   3.894   0.067   5.475 -1.2228  0.3339 -0.0642
  129MOL    H5941275   4.019   8.075   5.540 -0.3963 -0.5862 -0.1380
  129MOL    H6041276   3.800   0.096   5.679 -0.5331 -0.0008 -0.4265
  129MOL    H6141277   3.632   0.007   5.807 -1.6061 -0.5273 -0.8354
  129MOL    H6241278   3.539   7.909   5.911 -0.0488  0.9193 -2.3236
  129MOL    H6341279   3.687   7.724   5.975 -0.3628  0.7073  0.6489
  129MOL    H6441280   3.922   7.721   5.864 -0.4784 -0.0748  0.5286
  129MOL    H6541281   4.000   7.918   5.748  0.1763  0.9120  0.6843
  129MOL    C6641282   3.991   0.092   5.768 -0.4253  0.0936  0.0861
  129MOL    C6741283   4.025   0.240   5.725  0.6606  0.1355 -0.3173
  129MOL    C6841284   3.908   0.335   5.745  0.7181  0.3004  0.0353
  129MOL    C6941285   3.873   0.380   5.873  0.1511  0.2885 -0.1399
  129MOL    C7041286   3.743   0.438   5.887  0.2761  0.6628 -0.6989
  129MOL    C7141287   3.652   0.449   5.779  0.1172 -0.2158  0.4603
  129MOL    C7241288   3.701   0.424   5.649 -0.2990  0.0483 -0.7688
  129MOL    C7341289   3.830   0.359   5.628 -0.1743 -0.3835  0.1437
  129MOL    H7441290   4.079   0.027   5.764 -0.2847  0.2108  1.1694
  129MOL    H7541291   3.949   0.100   5.868  1.8464  2.0078  0.9317
  129MOL    H7641292   4.030   0.238   5.617 -3.0919 -3.3736 -0.5835
  129MOL    H7741293   3.935   0.359   5.959 -0.8465 -1.0919  0.2595
  129MOL    H7841294   3.715   0.474   5.985 -1.4951 -0.9609 -0.5992
  129MOL    H7941295   3.551   0.484   5.789 -0.1914  1.0091 -5.0541
  129MOL    H8041296   3.644   0.442   5.559  2.4771 -0.9212 -2.8134
  129MOL    H8141297   3.848   0.331   5.526  2.3377  0.4238  0.3057
  129MOL    C8241298   4.158   0.312   5.768  0.9420 -0.1766  0.0650
  129MOL    C8341299   4.185   0.435   5.692  0.4757 -0.2247  0.3104
  129MOL    C8441300   4.197   0.559   5.774  0.4033  0.0159  0.1073
  129MOL    C8541301   4.324   0.599   5.831 -0.5836 -0.8744  0.3616
  129MOL    C8641302   4.332   0.726   5.886 -0.3534  0.0512 -0.3167
  129MOL    C8741303   4.228   0.816   5.889  0.0613 -0.6373 -0.1765
  129MOL    C8841304   4.102   0.772   5.849  0.1407 -0.0688  0.0296
  129MOL    C8941305   4.084   0.648   5.783  0.7708 -0.0499  0.1425
  129MOL    H9041306   4.240   0.241   5.755 -0.7503 -1.9119 -1.3731
  129MOL    H9141307   4.153   0.349   5.871  1.4611 -1.2496  0.4857
  129MOL    H9241308   4.104   0.459   5.622  1.6485 -0.3050 -1.1025
  129MOL    H9341309   4.406   0.532   5.808  1.5583  1.8542 -0.2219
  129MOL    H9441310   4.428   0.765   5.917 -1.3153  1.9366  0.3674
  129MOL    H9541311   4.233   0.918   5.923  1.7125 -0.7611 -0.0365
  129MOL    H9641312   4.023   0.845   5.854 -0.6052 -0.8865  0.5357
  129MOL    H9741313   3.993   0.610   5.739  1.2468 -0.9220 -0.1001
  129MOL    C9841314   4.310   0.417   5.601  0.5834  0.1091  0.3061
  129MOL    C9941315   4.291   0.327   5.477 -0.2936  0.1157  0.1329
  129MOL   C10041316   4.184   0.371   5.374  0.0003  0.0033 -0.1516
  129MOL   C10141317   4.192   0.498   5.315 -0.0813 -0.1318  0.0685
  129MOL   C10241318   4.084   0.543   5.235  0.8880 -0.4734 -0.0047
  129MOL   C10341319   3.973   0.463   5.218  0.1264 -0.1186  0.5920
  129MOL   C10441320   3.976   0.329   5.267  0.1241 -1.6354 -0.1670
  129MOL   C10541321   4.075   0.283   5.342  0.3859 -0.5276 -0.6616
  129MOL   H10641322   4.387   0.388   5.672 -1.4353 -0.0193  2.5153
  129MOL   H10741323   4.343   0.511   5.555 -0.6482 -0.6069 -2.1366
  129MOL   H10841324   4.245   0.234   5.510  0.2561 -0.8053 -1.5906
  129MOL   H10941325   4.274   0.564   5.343  0.5903  0.0123 -2.0864
  129MOL   H11041326   4.078   0.645   5.199  0.3491  0.0140  1.4604
  129MOL   H11141327   3.890   0.492   5.155  0.9632  0.3801 -0.2848
  129MOL   H11241328   3.897   0.262   5.236 -0.2081 -1.3074 -0.0231
  129MOL   H11341329   4.078   0.179   5.370  1.7995  0.2973  2.4546
  129MOL   C11441330   4.422   0.297   5.404 -0.0029  0.1238 -0.2511
  129MOL   C11541331   4.511   0.186   5.463  0.1075 -0.0094 -0.2538
  129MOL   C11641332   4.434   0.058   5.509 -0.0090  0.3082  0.0667
  129MOL   C11741333   4.439   0.006   5.646 -0.1761 -0.9812 -0.4256
  129MOL   C11841334   4.377   8.005   5.679  0.1568 -0.0491  0.1402
  129MOL   C11941335   4.316   7.929   5.571  0.2057  0.4508 -0.1362
  129MOL   C12041336   4.296   7.973   5.445 -0.4382  0.6709  0.0738
  129MOL   C12141337   4.355   8.098   5.420  0.6291  0.6046  0.0306
  129MOL   H12241338   4.476   0.391   5.389  2.0511 -1.0624 -0.5588
  129MOL   H12341339   4.399   0.262   5.303 -0.4216  1.9605 -0.8194
  129MOL   H12441340   4.547   0.238   5.552  0.2844 -0.9678  0.2415
  129MOL   H12541341   4.491   0.052   5.728  0.4137 -0.7477 -0.9260
  129MOL   H12641342   4.386   7.957   5.775 -0.8425  0.5941  0.5636
  129MOL   H12741343   4.282   7.828   5.587 -1.6710  0.7112 -2.2032
  129MOL   H12841344   4.249   7.925   5.360 -2.2636  0.6180  1.0949
  129MOL   H12941345   4.322   0.030   5.328  1.4332 -1.5959 -1.4015
  129MOL   C13041346   4.630   0.150   5.378  0.0914  0.0421 -0.2812
  129MOL   C13141347   4.743   0.065   5.445 -0.4698  0.2275 -0.0568
  129MOL   C13241348   4.838   0.003   5.341  0.0801 -0.0572  0.2265
  129MOL   C13341349   4.900   0.075   5.244  0.0038  0.4223 -0.4427
  129MOL   C13441350   5.003   0.016   5.161  0.2738  0.1998 -0.2467
  129MOL   C13541351   5.008   7.988   5.158  0.2709  0.2390 -0.0872
  129MOL   C13641352   4.932   7.910   5.252 -0.6342 -0.9259  0.2524
  129MOL   C13741353   4.856   7.977   5.352  0.1338 -0.1730 -0.3414
  129MOL   H13841354   4.671   0.245   5.343 -0.2681 -0.6560 -2.6645
  129MOL   H13941355   4.589   0.103   5.289  1.7061 -0.1939 -0.9012
  129MOL   H14041356   4.695   8.098   5.498 -1.1676  1.2124  0.8525
  129MOL   H14141357   4.872   0.179   5.239  0.8466  0.6474 -0.5281
  129MOL   H14241358   5.055   0.072   5.084  0.1124 -0.0625 -0.5442
  129MOL   H14341359   5.091   7.944   5.103  1.4302 -1.4486  2.8900
  129MOL   H14441360   4.949   7.803   5.255  0.7215 -0.6811  1.6071
  129MOL   H14541361   4.793   7.914   5.412  1.7095 -2.8373 -1.3671
  129MOL   C14641362   4.813   0.154   5.544  0.9695 -0.8121  0.7024
  129MOL   C14741363   4.923   0.089   5.622 -0.0567  0.6803 -0.8644
  129MOL   C14841364   4.991   0.200   5.702 -0.4481  0.3024  0.8828
  129MOL   C14941365   5.124   0.241   5.670 -0.2156 -0.0025  0.4202
  129MOL   C15041366   5.188   0.351   5.735 -0.0592 -0.2284  0.8510
  129MOL   C15141367   5.116   0.412   5.840  0.1355  0.2548 -0.6391
  129MOL   C15241368   4.995   0.363   5.889 -0.2205  0.2843  0.4918
  129MOL   C15341369   4.931   0.260   5.817  0.7011  0.3897 -0.1352
  129MOL   H15441370   4.736   0.189   5.613 -2.5630  0.6096 -3.6911
  129MOL   H15541371   4.852   0.243   5.494 -1.4176 -0.4429 -0.5864
  129MOL   H15641372   4.987   0.051   5.543  1.0414 -0.2936  0.4814
  129MOL   H15741373   5.180   0.191   5.592 -0.8100  0.4502 -0.3021
  129MOL   H15841374   5.289   0.376   5.705 -1.0654  0.3561 -2.2833
  129MOL   H15941375   5.149   0.494   5.903 -0.3942 -0.8008  1.0680
  129MOL   H16041376   4.942   0.406   5.973 -3.5511  1.2251 -2.0208
  129MOL   H16141377   4.835   0.232   5.859  1.5138 -0.7135  1.0319
  129MOL   C16241378   4.882   8.087   5.722 -0.2157  0.3808 -0.2648
  129MOL   C16341379   4.991   7.992   5.773  0.1777  0.3143 -0.6260
  129MOL   C16441380   4.955   7.936   5.911 -0.2154  0.1693 -0.1615
  129MOL   C16541381   4.844   7.853   5.933 -0.4792  0.1436  0.4057
  129MOL   C16641382   4.836   7.786   6.058  0.3014  0.0550  1.2707
  129MOL   C16741383   4.924   7.822   6.165  0.3213  0.0598  0.6675
  129MOL   C16841384   5.030   7.916   6.141 -0.1612 -0.4671 -0.7788
  129MOL   C16941385   5.047   7.965   6.013  0.7582 -0.2497  0.0902
  129MOL   H17041386   4.803   8.028   5.676  0.1974 -0.0284 -0.4523
  129MOL   H17141387   4.834   0.010   5.812  1.2418 -1.2992  1.2413
  129MOL   H17241388   5.078   8.054   5.794 -0.9370  1.7466 -0.2013
  129MOL   H17341389   4.773   7.840   5.852  0.4346 -1.8497 -0.1000
  129MOL   H17441390   4.758   7.716   6.082  0.3594 -0.2854  0.4803
  129MOL   H17541391   4.917   7.773   6.261  0.4370 -1.0060  0.1446
  129MOL   H17641392   5.100   7.938   6.220 -2.3940 -0.3405  1.2301
  129MOL   H17741393   5.125   8.039   6.003  0.8660  0.1816  3.4564
  129MOL   C17841394   5.030   7.885   5.670 -0.3466  0.1104  0.7550
  129MOL   C17941395   5.150   7.797   5.708 -0.5902 -0.0145 -0.3655
  129MOL   C18041396   5.127   7.664   5.632 -0.9743  0.1925  0.3307
  129MOL   C18141397   5.142   7.543   5.699  0.2281  0.5783  0.7487
  129MOL   C18241398   5.141   7.418   5.630  0.5165 -0.3649 -0.2552
  129MOL   C18341399   5.130   7.414   5.488  0.0247 -0.2027 -0.1161
  129MOL   C18441400   5.127   7.541   5.419 -0.0311  0.1439  0.3095
  129MOL   C18541401   5.128   7.667   5.492  0.1360 -0.2780  0.2179
  129MOL   H18641402   5.033   7.939   5.575 -0.1161 -0.0479  0.6716
  129MOL   H18741403   4.939   7.825   5.662  1.0072 -1.9044  0.0366
  129MOL   H18841404   5.140   7.779   5.815  0.5136 -0.5392 -0.3411
  129MOL   H18941405   5.144   7.542   5.807 -2.3914  2.5920  0.8857
  129MOL   H19041406   5.163   7.329   5.688  0.6802 -0.2277 -0.1055
  129MOL   H19141407   5.136   7.316   5.442 -1.4140 -0.2830 -0.1725
  129MOL   H19241408   5.134   7.543   5.311 -2.3862  0.8893  0.1278
  129MOL   H19341409   5.139   7.757   5.434 -0.3633 -0.8302 -0.7459
  129MOL   C19441410   5.288   7.867   5.696 -1.1456  0.2650 -0.6870
  129MOL   C19541411   5.360   7.873   5.839 -0.3421  0.1713 -0.1101
  129MOL   C19641412   5.374   7.740   5.911  0.3591  0.2397  0.2343
  129MOL   C19741413   5.334   7.721   6.046 -0.5978 -0.1591  1.1550
  129MOL   C19841414   5.372   7.604   6.119 -0.3608  0.7155 -0.0241
  129MOL   C19941415   5.423   7.496   6.045 -0.6718  0.1141  0.3621
  129MOL   C20041416   5.462   7.509   5.906 -0.1603 -0.0500 -0.1459
  129MOL   C20141417   5.432   7.629   5.845 -0.4143 -0.8302 -0.0183
  129MOL   H20241418   5.271   7.971   5.668 -2.4917 -0.4535 -2.5500
  129MOL   H20341419   5.350   7.824   5.617 -0.9552  2.3808 -1.7350
  129MOL   H20441420   5.296   7.925   5.911  0.3256  2.0682 -0.8475
  129MOL   H20541421   5.289   7.798   6.106 -1.3961 -0.5476  1.0715
  129MOL   H20641422   5.356   7.581   6.223  0.3167 -3.2300 -0.6986
  129MOL   H20741423   5.463   7.410   6.097  0.1463  0.9585  1.1554
  129MOL   H20841424   5.503   7.426   5.850 -1.7101 -2.3345  1.9958
  129MOL   H20941425   5.460   7.641   5.741 -2.5173  1.4892 -0.3656
  129MOL   C21041426   5.494   7.950   5.837  0.1120 -0.1314 -0.4291
  129MOL   C21141427   5.479   8.106   5.852 -0.3151  0.3006 -0.1440
  129MOL   C21241428   5.433   0.038   5.987  0.4245  0.1859 -0.1230
  129MOL   C21341429   5.314   0.116   6.002 -0.0038  0.5094 -0.1917
  129MOL   C21441430   5.277   0.157   6.131  0.1022 -0.7807 -0.5495
  129MOL   C21541431   5.340   0.116   6.249 -0.3765 -0.0822  0.1627
  129MOL   C21641432   5.453   0.032   6.232  0.1783  0.1818 -0.1088
  129MOL   C21741433   5.500   8.110   6.103  0.0812 -0.0743 -0.0632
  129MOL   H21841434   5.538   7.930   5.739 -1.3714 -1.6110 -0.8367
  129MOL   H21941435   5.556   7.911   5.918  1.9866  0.2303 -1.6563
  129MOL   H22041436   5.407   0.023   5.777 -1.3080  2.8072  1.8137
  129MOL   H22141437   5.247   0.136   5.920  0.7882 -0.6656 -1.1229
  129MOL   H22241438   5.186   0.215   6.146  1.5821  1.0270  1.7402
  129MOL   H22341439   5.302   0.135   6.348 -1.1513 -1.7277  0.2032
  129MOL   H22441440   5.502   8.103   6.317 -0.7926  1.6073  1.2161
  129MOL   H22541441   5.585   8.047   6.081 -0.1246 -0.5529  0.4854
  129MOL   C22641442   5.610   0.072   5.811 -0.0739 -0.4615 -0.3634
  129MOL   C22741443   5.664   0.045   5.667 -0.0538 -0.3422  0.2427
  129MOL   C22841444   5.568   0.122   5.571 -0.3253  0.4675  0.1294
  129MOL   C22941445   5.474   0.046   5.496  0.8223 -0.0360  0.2350
  129MOL   C23041446   5.388   0.113   5.410 -0.3808  0.4756 -0.3333
  129MOL   C23141447   5.400   0.248   5.386  0.1479 -0.0810 -0.6391
  129MOL   C23241448   5.496   0.324   5.455  0.5658  0.1410  0.1160
  129MOL   C23341449   5.574   0.264   5.558 -0.2552  0.4798  0.1139
  129MOL   H23441450   5.685   0.032   5.879 -0.4266  0.4415  0.5718
  129MOL   H23541451   5.602   0.177   5.838 -2.2557 -0.5564 -0.5316
  129MOL   H23641452   5.653   8.057   5.633  0.1216 -1.1330  2.4316
  129MOL   H23741453   5.453   8.055   5.497  0.4416  0.0424  1.5215
  129MOL   H23841454   5.314   0.052   5.360 -3.9139  2.3276  2.3952
  129MOL   H23941455   5.333   0.300   5.319  0.2190 -0.4689 -1.0188
  129MOL   H24041456   5.507   0.425   5.418  1.0334  0.0330 -0.0380
  129MOL   H24141457   5.642   0.324   5.618  0.1014 -1.5162  1.7691
  129MOL   C24241458   5.816   0.093   5.656 -0.3175  0.4505 -0.6162
  129MOL   C24341459   5.912   0.010   5.738  0.2180  0.6237  0.2681
  129MOL   C24441460   5.890   7.981   5.711  0.2619  0.1004  0.6674
  129MOL   C24541461   5.863   7.895   5.819  0.4314  0.0262  0.2208
  129MOL   C24641462   5.838   7.757   5.802  0.8320  0.7589  0.2263
  129MOL   C24741463   5.850   7.699   5.674 -0.8460  0.0762 -0.3966
  129MOL   C24841464   5.881   7.786   5.563  0.7160  0.0460 -0.4220
  129MOL   C24941465   5.903   7.923   5.580 -0.0394  0.5985  0.1176
  129MOL   H25041466   5.819   0.197   5.689 -2.1175 -0.0449  1.1786
  129MOL   H25141467   5.839   0.087   5.549 -2.8277 -0.7135 -1.1439
  129MOL   H25241468   5.898   0.038   5.842  2.2423 -0.1440  0.7645
  129MOL   H25341469   5.851   7.947   5.912 -0.3726  0.0689  0.0940
  129MOL   H25441470   5.809   7.696   5.886 -2.9497  0.1640 -1.4197
  129MOL   H25541471   5.821   7.595   5.666  0.2201 -0.3624  1.1011
  129MOL   H25641472   5.883   7.746   5.462 -0.7721 -1.5578  0.1581
  129MOL   H25741473   5.922   7.993   5.499  1.1107  0.4038  0.2151
  129MOL   C25841474   6.058   0.048   5.711  0.2721 -0.0394 -0.1024
  129MOL   C25941475   6.121   0.165   5.789 -0.3262  0.7880  0.0871
  129MOL   C26041476   6.274   0.170   5.773  0.1143 -0.2144  0.5726
  129MOL   C26141477   6.351   0.132   5.877 -0.1468  0.6079  0.0709
  129MOL   C26241478   6.488   0.114   5.866  0.7085  0.6538 -0.0596
  129MOL   C26341479   6.550   0.126   5.739 -0.1601 -0.1453  0.5556
  129MOL   C26441480   6.470   0.166   5.626  0.9816 -0.3943 -0.7049
  129MOL   C26541481   6.330   0.192   5.650 -0.1306 -0.7260 -1.0536
  129MOL   H26641482   6.080   0.061   5.605  1.8348 -2.5506 -0.1368
  129MOL   H26741483   6.118   8.074   5.728  0.0208 -0.1915 -0.0166
  129MOL   H26841484   6.100   0.144   5.894 -2.6419  2.5862  0.0234
  129MOL   H26941485   6.317   0.114   5.977  0.6884  0.0623  0.2701
  129MOL   H27041486   6.548   0.074   5.946  0.9682 -1.1956 -1.1438
  129MOL   H27141487   6.652   0.097   5.723 -0.5250 -1.6230  0.8198
  129MOL   H27241488   6.504   0.188   5.526 -1.2120  2.9701 -0.7949
  129MOL   H27341489   6.265   0.223   5.569 -0.7710  1.2401  0.1820
  129MOL   C27441490   6.053   0.305   5.763 -0.4823  0.0954  0.7933
  129MOL   C27541491   5.966   0.351   5.880 -0.1780  0.3464  0.6180
  129MOL   C27641492   6.027   0.337   6.011 -0.3934  1.2106  0.2841
  129MOL   C27741493   5.958   0.266   6.115 -0.0414 -0.0666  0.4451
  129MOL   C27841494   6.017   0.245   6.235  0.1889 -0.5715  0.2238
  129MOL   C27941495   6.141   0.303   6.263 -0.2241 -0.1465  0.0896
  129MOL   C28041496   6.209   0.388   6.168 -0.2716 -0.4405  0.7263
  129MOL   C28141497   6.151   0.398   6.042  0.0348 -0.2652 -0.6896
  129MOL   H28241498   5.993   0.305   5.672  2.6040  0.3807 -1.3059
  129MOL   H28341499   6.132   0.376   5.739  0.0649 -0.6726  0.2997
  129MOL   H28441500   5.879   0.286   5.874 -0.2178  0.5434 -1.1625
  129MOL   H28541501   5.862   0.217   6.106  0.1589 -0.4312  0.2647
  129MOL   H28641502   5.966   0.198   6.318  1.8790 -0.3446  1.4129
  129MOL   H28741503   6.194   0.298   6.356  1.5210 -0.3366 -0.8967
  129MOL   H28841504   6.306   0.433   6.186 -0.0647 -0.0317 -1.2885
  129MOL   H28941505   6.192   0.463   5.966  0.2379  2.3855  1.5973
  129MOL   C29041506   5.926   0.495   5.867 -0.9185 -0.2933 -0.8523
  129MOL   C29141507   5.826   0.546   5.979 -0.2904  0.3378  0.4743
  129MOL   C29241508   5.823   0.693   5.978  0.7188 -0.7672  0.8225
  129MOL   C29341509   5.897   0.764   6.072 -0.0322  0.2701 -0.4141
  129MOL   C29441510   5.898   0.904   6.067 -0.2905 -0.0334  0.2024
  129MOL   C29541511   5.819   0.982   5.974 -0.0487  0.3985 -0.0153
  129MOL   C29641512   5.737   0.910   5.887  0.2020 -0.0701  0.3736
  129MOL   C29741513   5.738   0.772   5.893 -0.0318  0.6072 -0.1504
  129MOL   H29841514   5.891   0.516   5.766 -0.9695 -0.1122 -0.7954
  129MOL   H29941515   6.015   0.557   5.872 -0.3386 -1.2774  2.0166
  129MOL   H30041516   5.877   0.527   6.073  0.1602 -1.3796 -0.0891
  129MOL   H30141517   5.956   0.713   6.147 -2.3448 -1.6967  0.1287
  129MOL   H30241518   5.955   0.954   6.144  1.5151 -2.2574  0.3188
  129MOL   H30341519   5.817   1.090   5.976  1.9927  0.4524  0.9592
  129MOL   H30441520   5.669   0.942   5.810  0.0268  0.2405  0.6565
  129MOL   H30541521   5.662   0.728   5.830  0.6526  1.6224 -1.7168
  129MOL   C30641522   5.690   0.471   5.988  0.0024  0.5267  0.0329
  129MOL   C30741523   5.603   0.519   6.105 -0.3990 -0.0211 -0.0865
  129MOL   C30841524   5.643   0.465   6.239  0.4873 -0.7983  0.0897
  129MOL   C30941525   5.682   0.554   6.343 -0.5036 -0.2827 -0.1797
  129MOL   C31041526   5.725   0.499   6.464  0.0187 -0.2237 -0.3554
  129MOL   C31141527   5.719   0.359   6.489 -0.4577  0.7835 -0.3780
  129MOL   C31241528   5.676   0.272   6.391  0.0080 -0.2278  0.0069
  129MOL   C31341529   5.643   0.327   6.267 -0.2340  0.1480  0.4251
  129MOL   H31441530   5.706   0.364   6.001 -0.0358  0.4073 -0.8548
  129MOL   H31541531   5.629   0.477   5.898 -3.7611 -0.0449  2.4467
  129MOL   H31641532   5.502   0.479   6.087 -0.2186 -0.2934 -0.5155
  129MOL   H31741533   5.691   0.659   6.319 -0.1896 -0.8226 -2.5468
  129MOL   H31841534   5.754   0.567   6.542  0.2289 -1.5228  0.7048
  129MOL   H31941535   5.760   0.321   6.581  0.9270  0.2266 -1.2136
  129MOL   H32041536   5.667   0.167   6.412 -1.3742  0.0507  0.8332
  129MOL   H32141537   5.612   0.256   6.192  0.8262  1.3093 -1.1464
  129MOL   H32241538   5.602   0.627   6.111  0.0247  0.2154 -3.0982
  130MOL     C141539   8.068   2.742   1.553  0.0378  0.2325  0.2294
  130MOL     C241540   7.930   2.690   1.611 -0.1914  0.2693 -0.4456
  130MOL     C341541   7.910   2.754   1.751 -0.5560  0.7978  0.3987
  130MOL     C441542   7.940   2.687   1.872 -0.1487  0.0857  0.2389
  130MOL     C541543   7.956   2.763   1.992 -0.7750  0.2594 -0.1250
  130MOL     C641544   7.945   2.903   1.991  0.4706  0.9434 -0.1680
  130MOL     C741545   7.902   2.969   1.874 -0.0600  0.9645  0.3212
  130MOL     C841546   7.887   2.897   1.752  0.2283  0.7152  0.6986
  130MOL     H941547   8.077   2.698   1.454  0.2812 -0.3299  0.5032
  130MOL    H1041548   8.061   2.849   1.531  0.0111  0.5503  1.7398
  130MOL    H1141549   7.939   2.585   1.637  0.4602  0.4870  0.2280
  130MOL    H1241550   7.954   2.581   1.860  0.4378 -0.0677  2.0792
  130MOL    H1341551   7.979   2.720   2.088 -0.0654  2.3519  0.6712
  130MOL    H1441552   7.955   2.964   2.080 -1.0645  0.4734  0.3501
  130MOL    H1541553   7.896   3.076   1.884  1.0721  1.0091  0.6300
  130MOL    H1641554   7.873   2.941   1.654 -0.6482 -1.6995 -0.3079
  130MOL    H1741555   0.041   2.728   1.616 -0.6829 -1.9767  0.7900
  130MOL    C1841556   7.802   2.709   1.524  0.0535 -0.2871  0.3055
  130MOL    C1941557   7.756   2.593   1.437 -0.2175  0.5958  0.1941
  130MOL    C2041558   7.605   2.593   1.422  0.7568  0.1208 -0.3394
  130MOL    C2141559   7.540   2.703   1.360 -0.6851  0.3583  0.0677
  130MOL    C2241560   7.405   2.704   1.339  0.0973  0.5392  0.5555
  130MOL    C2341561   7.319   2.601   1.388 -0.4518  0.4528 -0.1952
  130MOL    C2441562   7.385   2.489   1.450  0.1713 -0.6856  0.7423
  130MOL    C2541563   7.527   2.484   1.464  0.0177 -0.7691 -0.6885
  130MOL    H2641564   7.804   2.812   1.487  2.7413  0.7247  3.0388
  130MOL    H2741565   7.721   2.716   1.598 -0.7376 -2.0428 -0.3705
  130MOL    H2841566   7.778   2.502   1.493 -0.8235  1.6500  2.2165
  130MOL    H2941567   7.601   2.777   1.311 -1.7523 -0.3568 -2.4507
  130MOL    H3041568   7.356   2.791   1.297  1.1245  0.9426  0.1821
  130MOL    H3141569   7.214   2.593   1.365 -0.8352  0.1553  1.5924
  130MOL    H3241570   7.326   2.400   1.463  1.1253 -1.5372 -0.5647
  130MOL    H3341571   7.580   2.400   1.508  1.2210 -1.5598 -3.5740
  130MOL    C3441572   7.816   2.590   1.295  0.4228 -0.3598  0.3198
  130MOL    C3541573   7.798   2.460   1.210  0.3269  0.9139 -0.1110
  130MOL    C3641574   7.836   2.481   1.067  0.1980 -0.4080  0.8823
  130MOL    C3741575   7.740   2.466   0.965 -0.0825 -0.0610 -0.4134
  130MOL    C3841576   7.761   2.492   0.829 -0.4619  0.2340 -0.1230
  130MOL    C3941577   7.895   2.518   0.790  0.5767 -0.1376 -0.0046
  130MOL    C4041578   7.998   2.518   0.887 -0.0752  0.0459  0.6134
  130MOL    C4141579   7.966   2.513   1.028 -0.5245  0.9151 -0.0088
  130MOL    H4241580   7.924   2.590   1.312  0.4364 -1.8572  0.3144
  130MOL    H4341581   7.791   2.678   1.236 -1.1927 -2.0871 -1.6770
  130MOL    H4441582   7.693   2.432   1.218  1.1756 -1.8130  2.0778
  130MOL    H4541583   7.639   2.446   0.996 -0.5809  0.3967 -1.6969
  130MOL    H4641584   7.693   2.470   0.748  0.0176  1.2737 -0.8078
  130MOL    H4741585   7.914   2.522   0.684  1.0138  2.3891  0.1438
  130MOL    H4841586   8.101   2.528   0.855 -1.0061  0.8135 -2.2372
  130MOL    H4941587   8.045   2.509   1.101 -0.9661  2.0030  0.5537
  130MOL    C5041588   7.856   2.329   1.280  0.1528 -0.3198  0.6003
  130MOL    C5141589   7.772   2.196   1.253 -0.3912 -0.0343  0.0479
  130MOL    C5241590   7.763   2.165   1.106  0.6021  0.1914  0.1183
  130MOL    C5341591   7.878   2.132   1.026  0.0657  0.2394  0.1542
  130MOL    C5441592   7.863   2.121   0.891 -0.0011  0.2361  0.7613
  130MOL    C5541593   7.736   2.123   0.829 -0.3239 -0.9053 -0.5144
  130MOL    C5641594   7.622   2.149   0.905 -0.1987 -0.2547 -0.0996
  130MOL    C5741595   7.639   2.173   1.046  0.2169 -0.2194 -0.1253
  130MOL    H5841596   7.866   2.346   1.387 -1.6227  2.8882  0.3103
  130MOL    H5941597   7.959   2.328   1.245  0.1983 -0.4210  0.7344
  130MOL    H6041598   7.672   2.213   1.293 -0.6298 -0.0682 -0.5378
  130MOL    H6141599   7.971   2.129   1.080 -0.9571  1.0425  2.0220
  130MOL    H6241600   7.952   2.098   0.834 -2.2046 -2.4213 -1.7157
  130MOL    H6341601   7.737   2.101   0.723 -0.5029 -0.3076 -0.6395
  130MOL    H6441602   7.520   2.147   0.871 -0.4682  0.2414  0.6759
  130MOL    H6541603   7.549   2.181   1.105  0.2005 -1.6699  0.0633
  130MOL    C6641604   7.837   2.078   1.328  0.7459 -0.0615  0.4251
  130MOL    C6741605   7.777   2.036   1.466  0.3942 -0.4715  0.2108
  130MOL    C6841606   7.631   2.017   1.461  0.3018 -0.6899  0.3196
  130MOL    C6941607   7.570   1.913   1.386 -0.2077  0.2494 -0.1560
  130MOL    C7041608   7.427   1.908   1.371  0.8790  0.3228 -0.2174
  130MOL    C7141609   7.346   2.003   1.434  0.1924  0.1974  0.6575
  130MOL    C7241610   7.404   2.085   1.527  0.1782 -0.1675 -0.4415
  130MOL    C7341611   7.546   2.096   1.543  0.2748 -0.2639 -0.1791
  130MOL    H7441612   7.945   2.069   1.341  0.8259 -0.0142 -0.1882
  130MOL    H7541613   7.819   1.992   1.264  1.9074 -0.9448  1.2681
  130MOL    H7641614   7.802   2.119   1.532 -0.9259  0.3927 -0.3673
  130MOL    H7741615   7.630   1.846   1.326 -0.4895 -2.9650  2.9650
  130MOL    H7841616   7.378   1.831   1.313 -1.0362  0.8145  0.6906
  130MOL    H7941617   7.238   1.997   1.437  0.1303  1.9044  1.7986
  130MOL    H8041618   7.342   2.152   1.585 -2.2029 -1.4488 -1.4452
  130MOL    H8141619   7.586   2.170   1.610  3.6608 -2.9443  0.9284
  130MOL    C8241620   7.839   1.914   1.545 -0.5286 -0.1289  0.0498
  130MOL    C8341621   7.809   1.921   1.697  0.5025  0.9190 -0.5038
  130MOL    C8441622   7.771   1.785   1.754  0.0669  0.3107  0.3475
  130MOL    C8541623   7.639   1.757   1.795  0.1839 -0.6839  0.6335
  130MOL    C8641624   7.606   1.622   1.833 -0.6633 -0.1865  0.3817
  130MOL    C8741625   7.705   1.524   1.835  0.0672  0.3226  0.8138
  130MOL    C8841626   7.838   1.558   1.796  0.2919 -0.0911 -0.1942
  130MOL    C8941627   7.873   1.686   1.760  0.0740  0.2542 -0.2256
  130MOL    H9041628   7.946   1.894   1.532 -0.2737  1.8162 -1.0858
  130MOL    H9141629   7.795   1.827   1.498 -0.7639 -1.4586  2.6809
  130MOL    H9241630   7.722   1.982   1.720  1.9770  2.1960  1.8128
  130MOL    H9341631   7.562   1.831   1.775  1.0662  0.0366 -0.1675
  130MOL    H9441632   7.504   1.600   1.859 -0.2777 -1.5997  0.7273
  130MOL    H9541633   7.681   1.420   1.850  1.4727  0.2700  2.8446
  130MOL    H9641634   7.915   1.482   1.803  2.4473  1.7388 -2.9635
  130MOL    H9741635   7.975   1.708   1.734 -0.2125 -0.5159 -2.1382
  130MOL    C9841636   7.918   1.988   1.782  0.2791  1.0560 -0.3318
  130MOL    C9941637   7.918   2.145   1.787  0.3272 -0.1225  0.8157
  130MOL   C10041638   7.787   2.217   1.827 -0.3601 -0.4438  0.2334
  130MOL   C10141639   7.746   2.340   1.770 -0.4817  0.4391 -0.4699
  130MOL   C10241640   7.618   2.395   1.806 -0.1969  0.4089  0.5862
  130MOL   C10341641   7.534   2.326   1.897 -0.0225  0.6553  0.3067
  130MOL   C10441642   7.579   2.207   1.956  0.2865  0.0113  0.4560
  130MOL   C10541643   7.707   2.157   1.923  0.9319 -0.4800 -0.2019
  130MOL   H10641644   8.011   1.942   1.748 -0.3593 -0.8423  0.4454
  130MOL   H10741645   7.908   1.955   1.886  0.5583  1.3781 -0.2004
  130MOL   H10841646   7.954   2.186   1.693  0.6694  1.5746  1.6772
  130MOL   H10941647   7.815   2.387   1.703 -1.0528 -0.9650 -2.0813
  130MOL   H11041648   7.591   2.493   1.769  2.7944  0.2341 -2.2609
  130MOL   H11141649   7.434   2.363   1.915 -0.0903  0.7183 -0.1856
  130MOL   H11241650   7.513   2.150   2.019  1.9309 -2.2588  0.2017
  130MOL   H11341651   7.739   2.074   1.984 -1.2942  0.7264  2.7172
  130MOL   C11441652   8.028   2.189   1.888  0.0070  0.2200  0.1951
  130MOL   C11541653   0.058   2.167   1.841  0.4837 -0.6268  0.4480
  130MOL   C11641654   0.090   2.232   1.707 -0.1936  0.6833  0.1838
  130MOL   C11741655   0.064   2.167   1.584  0.4473  0.6186  0.3044
  130MOL   C11841656   0.094   2.228   1.463  0.2860  0.1008 -0.2648
  130MOL   C11941657   0.152   2.355   1.461 -0.1768  0.5163  0.1952
  130MOL   C12041658   0.180   2.420   1.582  0.2965 -0.2394 -0.2778
  130MOL   C12141659   0.144   2.364   1.703  0.2964  0.6312 -0.1262
  130MOL   H12241660   8.010   2.137   1.982 -0.2950  2.4512  1.4151
  130MOL   H12341661   8.007   2.295   1.905  0.1134  0.4164 -0.8499
  130MOL   H12441662   0.084   2.063   1.821  1.9885 -0.4466  1.2881
  130MOL   H12541663   0.017   2.070   1.587 -2.1219  1.7785 -0.8061
  130MOL   H12641664   0.063   2.178   1.372  0.3709  0.7090 -0.6335
  130MOL   H12741665   0.186   2.397   1.367 -2.6364 -1.1225 -1.4867
  130MOL   H12841666   0.229   2.516   1.579 -0.5901  0.2696  0.9755
  130MOL   H12941667   0.156   2.420   1.795  1.5297 -0.5670  0.4511
  130MOL   C13041668   0.151   2.206   1.956 -0.6508  0.0053  0.0312
  130MOL   C13141669   0.153   2.110   2.077 -0.2387 -0.3054  0.0320
  130MOL   C13241670   0.189   1.968   2.035  0.0779  0.2608 -0.1560
  130MOL   C13341671   0.089   1.873   2.049 -0.2254  1.1935  0.1440
  130MOL   C13441672   0.103   1.740   2.002  0.1806  0.7128  0.0344
  130MOL   C13541673   0.220   1.701   1.936  0.4730 -0.6451 -0.1120
  130MOL   C13641674   0.315   1.800   1.910  0.2660 -0.5198 -0.4349
  130MOL   C13741675   0.304   1.924   1.968 -0.9422  0.9619  0.4616
  130MOL   H13841676   0.131   2.311   1.979  1.4441  0.2215  0.9673
  130MOL   H13941677   0.253   2.210   1.920 -0.4794 -0.7957  0.4355
  130MOL   H14041678   0.051   2.129   2.111  0.1425  0.4375  0.7802
  130MOL   H14141679   8.107   1.898   2.089 -1.3525 -1.0892 -1.0649
  130MOL   H14241680   0.024   1.666   2.012 -0.8488  1.6954 -0.7121
  130MOL   H14341681   0.242   1.600   1.907  2.7116 -0.1976 -0.0449
  130MOL   H14441682   0.408   1.773   1.861  1.8628  1.1075  1.5968
  130MOL   H14541683   0.384   1.995   1.948  0.4731 -0.6601  0.2329
  130MOL   C14641684   0.242   2.164   2.190 -0.4246  0.0022 -0.2833
  130MOL   C14741685   0.258   2.082   2.318  0.1609 -0.7135 -0.4055
  130MOL   C14841686   0.396   2.097   2.381 -0.6391  0.3836  0.7221
  130MOL   C14941687   0.501   2.012   2.340 -0.1737 -0.2418 -0.1717
  130MOL   C15041688   0.629   2.039   2.386 -0.3372  0.0803 -0.2100
  130MOL   C15141689   0.658   2.142   2.467 -0.0747 -0.2460 -0.4941
  130MOL   C15241690   0.554   2.220   2.513  0.1086 -0.6125  0.6069
  130MOL   C15341691   0.427   2.204   2.467 -0.1053  0.0821 -0.3035
  130MOL   H15441692   0.213   2.266   2.215 -3.5553 -0.5371 -1.4658
  130MOL   H15541693   0.342   2.175   2.147 -0.8134  1.6911 -0.7679
  130MOL   H15641694   0.270   1.975   2.299  0.1577 -1.0866  1.6559
  130MOL   H15741695   0.479   1.937   2.266  2.2112  0.3111 -1.4927
  130MOL   H15841696   0.702   1.972   2.343  1.6868  1.9024  0.3185
  130MOL   H15941697   0.759   2.171   2.492 -0.8749  0.9241  1.4934
  130MOL   H16041698   0.574   2.311   2.567  0.9555  1.1114 -2.4616
  130MOL   H16141699   0.350   2.270   2.507  0.8209  0.7580  0.3985
  130MOL   C16241700   0.137   2.096   2.420 -0.9996 -0.0666 -0.4638
  130MOL   C16341701   0.061   1.966   2.440  1.0261 -0.0170  0.1543
  130MOL   C16441702   0.139   1.854   2.510 -0.0573 -0.7355 -0.6985
  130MOL   C16541703   0.174   1.737   2.447 -0.0989 -0.1157 -0.2501
  130MOL   C16641704   0.216   1.627   2.524  0.3484 -0.1558 -0.4404
  130MOL   C16741705   0.220   1.638   2.664 -0.0983  0.2709  0.9481
  130MOL   C16841706   0.189   1.763   2.724  0.3823  0.5648 -0.6746
  130MOL   C16941707   0.144   1.867   2.654  0.1406 -0.0348  0.1645
  130MOL   H17041708   0.076   2.184   2.400  0.2784  0.8958 -0.2173
  130MOL   H17141709   0.171   2.131   2.518  1.3859  2.0447 -1.9806
  130MOL   H17241710   0.036   1.915   2.347  0.0932  2.1934 -0.8315
  130MOL   H17341711   0.157   1.710   2.344  0.0822  1.4870 -0.7154
  130MOL   H17441712   0.248   1.537   2.474  0.4145 -0.9277  0.9541
  130MOL   H17541713   0.254   1.555   2.724  1.1251 -0.0053 -0.1215
  130MOL   H17641714   0.193   1.759   2.831 -0.1371 -0.6388 -0.6926
  130MOL   H17741715   0.109   1.952   2.711  1.0053  0.1638  0.4025
  130MOL   C17841716   8.043   2.005   2.514 -0.0974  0.0152  0.2927
  130MOL   C17941717   7.918   2.056   2.427 -0.7081 -0.5379  0.7419
  130MOL   C18041718   7.852   1.941   2.344  0.4772 -0.3300  0.4498
  130MOL   C18141719   7.787   1.837   2.417  0.5331  0.1859  0.5471
  130MOL   C18241720   7.714   1.740   2.349  0.0201  0.4509 -0.7420
  130MOL   C18341721   7.714   1.732   2.208  0.3650  0.2095  0.4360
  130MOL   C18441722   7.786   1.828   2.130 -0.5455  0.6268 -0.6159
  130MOL   C18541723   7.855   1.935   2.198 -0.2834 -0.8144 -1.5242
  130MOL   H18641724   8.064   2.081   2.588  0.6335  0.1815 -0.0824
  130MOL   H18741725   8.008   1.916   2.567  0.8230  0.5702  1.8550
  130MOL   H18841726   7.954   2.134   2.359 -0.8036  0.0972  1.4129
  130MOL   H18941727   7.794   1.822   2.524 -0.3793 -0.7192  0.4892
  130MOL   H19041728   7.675   1.659   2.408 -1.1504  2.4135  1.2618
  130MOL   H19141729   7.668   1.654   2.149  0.5266 -0.2946  0.9810
  130MOL   H19241730   7.801   1.819   2.023 -2.7435  0.0989 -0.9131
  130MOL   H19341731   7.907   2.014   2.147 -1.0240  0.9585  0.4254
  130MOL   C19441732   7.818   2.120   2.520  0.0341 -0.0303  0.2348
  130MOL   C19541733   7.826   2.267   2.556  0.0481  0.1202  0.1632
  130MOL   C19641734   7.811   2.352   2.432  0.2389 -0.3189  0.6363
  130MOL   C19741735   7.911   2.442   2.393  0.6242  0.0911 -0.2468
  130MOL   C19841736   7.900   2.515   2.276  0.2524  0.5189  0.1062
  130MOL   C19941737   7.788   2.497   2.193 -0.4324  0.0224  0.1384
  130MOL   C20041738   7.684   2.418   2.241 -0.3368  0.1698 -0.0699
  130MOL   C20141739   7.699   2.340   2.355 -0.8420 -0.1947  0.3799
  130MOL   H20241740   7.812   2.062   2.612  1.0452 -2.2575 -1.0580
  130MOL   H20341741   7.715   2.111   2.486 -0.7451 -2.9330  3.1999
  130MOL   H20441742   7.928   2.286   2.588 -0.2641  0.6155  0.8829
  130MOL   H20541743   8.000   2.461   2.452 -0.4880  1.7610  0.9368
  130MOL   H20641744   7.979   2.583   2.249 -0.5419  0.5662 -2.1412
  130MOL   H20741745   7.786   2.549   2.099  1.7360 -0.5396 -0.2590
  130MOL   H20841746   7.591   2.416   2.186 -0.9928  0.9281  1.0060
  130MOL   H20941747   7.628   2.265   2.387 -0.6545  0.9240  3.5576
  130MOL   C21041748   7.722   2.307   2.663  0.6598  0.2724  0.1504
  130MOL   C21141749   7.665   2.454   2.676  0.2443  0.1465  0.2338
  130MOL   C21241750   7.537   2.468   2.760 -0.1205 -0.5649  0.7979
  130MOL   C21341751   7.422   2.533   2.708 -0.0358 -0.0002  0.5138
  130MOL   C21441752   7.308   2.542   2.786 -0.2935  0.2852 -0.3712
  130MOL   C21541753   7.298   2.472   2.904 -0.0492 -0.9718  0.2415
  130MOL   C21641754   7.405   2.400   2.956  0.0765  0.2870  0.3498
  130MOL   C21741755   7.530   2.409   2.888  0.0316  0.2264 -0.0594
  130MOL   H21841756   7.766   2.293   2.761  0.0985  1.9910  0.6672
  130MOL   H21941757   7.636   2.241   2.657  1.3768 -0.7101  0.5925
  130MOL   H22041758   7.627   2.482   2.577  0.1431 -1.3751 -0.1678
  130MOL   H22141759   7.430   2.581   2.611 -1.4684 -2.0469 -0.6640
  130MOL   H22241760   7.224   2.599   2.749  0.7925  2.0491 -0.2038
  130MOL   H22341761   7.199   2.474   2.947 -0.3761 -0.6890 -0.5156
  130MOL   H22441762   7.385   2.344   3.046  0.0884 -0.2445  0.0197
  130MOL   H22541763   7.611   2.348   2.924  1.2762 -1.0917 -4.7000
  130MOL   C22641764   7.771   2.549   2.723 -0.6465 -0.2000 -0.0709
  130MOL   C22741765   7.731   2.699   2.723  0.7990 -1.0885  0.3293
  130MOL   C22841766   7.752   2.768   2.861  0.4039 -1.3994 -0.1245
  130MOL   C22941767   7.641   2.769   2.953 -0.6658  0.3533 -0.2751
  130MOL   C23041768   7.658   2.827   3.080 -0.2520  0.8152 -0.6866
  130MOL   C23141769   7.783   2.878   3.121 -0.3105 -0.5070 -0.0942
  130MOL   C23241770   7.887   2.888   3.026  0.5866  0.2276  0.5827
  130MOL   C23341771   7.876   2.830   2.898 -0.2926  0.2627 -0.1794
  130MOL   H23441772   7.857   2.540   2.657 -0.7792  0.5012 -0.3486
  130MOL   H23541773   7.788   2.512   2.824  2.2641  0.1290 -0.4079
  130MOL   H23641774   7.624   2.712   2.708  1.0291 -0.4922 -0.8551
  130MOL   H23741775   7.548   2.734   2.912 -1.7593  2.9916 -0.1414
  130MOL   H23841776   7.579   2.838   3.153 -0.5277 -0.7788 -0.7220
  130MOL   H23941777   7.799   2.935   3.210  0.4070 -1.6337  0.5112
  130MOL   H24041778   7.983   2.931   3.049  0.0584  1.8173 -0.0979
  130MOL   H24141779   7.960   2.824   2.830  0.6418  0.9356  0.9098
  130MOL   C24241780   7.807   2.774   2.605 -0.3005  0.3284 -0.9276
  130MOL   C24341781   7.787   2.925   2.581  0.4435  0.2971 -0.5343
  130MOL   C24441782   7.906   2.985   2.499  0.2326 -0.2637 -0.1292
  130MOL   C24541783   7.955   2.900   2.397 -0.1469 -0.4615 -0.3166
  130MOL   C24641784   8.067   2.944   2.321 -0.2451 -0.3100 -0.5975
  130MOL   C24741785   0.010   3.065   2.356  0.7801  0.3306 -0.3251
  130MOL   C24841786   8.074   3.146   2.459  0.3790 -0.1757  0.3913
  130MOL   C24941787   7.957   3.114   2.527 -0.4373 -0.1255  0.7965
  130MOL   H25041788   7.783   2.715   2.517  0.3304 -2.7879  0.9174
  130MOL   H25141789   7.911   2.746   2.619 -0.6566  0.1940  1.8663
  130MOL   H25241790   7.801   2.973   2.678 -0.6100 -0.1245 -0.1666
  130MOL   H25341791   7.906   2.806   2.377 -0.0034 -0.1433 -2.1969
  130MOL   H25441792   8.101   2.892   2.234 -1.3993 -1.8153 -0.1665
  130MOL   H25541793   0.090   3.097   2.291 -0.1069  0.2671 -1.4629
  130MOL   H25641794   8.106   3.249   2.469  0.4485 -0.2312  0.7529
  130MOL   H25741795   7.918   3.190   2.594  0.3942  0.6172  0.4511
  130MOL   C25841796   7.660   2.949   2.498  0.4232 -0.6070 -0.8753
  130MOL   C25941797   7.523   2.983   2.567 -0.4004 -0.4947 -0.4414
  130MOL   C26041798   7.538   3.091   2.675 -0.6820 -0.0900  0.2972
  130MOL   C26141799   7.542   3.060   2.810 -0.2358  0.2177  0.5784
  130MOL   C26241800   7.551   3.157   2.910 -0.4392 -0.3323 -0.3799
  130MOL   C26341801   7.564   3.295   2.878 -0.5229  0.1114  0.0499
  130MOL   C26441802   7.570   3.327   2.737 -0.9642 -0.8346 -0.5724
  130MOL   C26541803   7.547   3.230   2.643 -0.6246 -0.1875 -0.3355
  130MOL   H26641804   7.645   2.860   2.436 -0.8956  0.5290 -2.2181
  130MOL   H26741805   7.682   3.033   2.432  0.3454 -0.3874 -0.6213
  130MOL   H26841806   7.478   2.903   2.626  0.5929  0.1411  1.2200
  130MOL   H26941807   7.518   2.957   2.834 -0.9072  0.2047 -0.1466
  130MOL   H27041808   7.542   3.137   3.016 -1.6622  0.8908 -0.2337
  130MOL   H27141809   7.581   3.375   2.948  0.6386 -0.6265  0.6283
  130MOL   H27241810   7.561   3.430   2.705  3.6566 -0.2935 -0.4093
  130MOL   H27341811   7.543   3.243   2.536 -1.5757 -1.7691 -0.5164
  130MOL   C27441812   7.404   3.021   2.473  0.3486 -0.2205 -0.2561
  130MOL   C27541813   7.338   2.906   2.393  0.0076 -0.0887  1.1824
  130MOL   C27641814   7.188   2.928   2.381 -0.2818  0.4013  0.9047
  130MOL   C27741815   7.098   2.852   2.455 -0.3252 -0.0242 -0.1373
  130MOL   C27841816   6.961   2.873   2.447  0.6264  0.8466  0.6255
  130MOL   C27941817   6.913   2.973   2.367  0.2695 -0.5816 -0.7295
  130MOL   C28041818   7.003   3.051   2.289 -0.4123  0.3847 -0.5585
  130MOL   C28141819   7.146   3.033   2.294  0.2949 -0.1157 -0.0506
  130MOL   H28241820   7.426   3.109   2.413 -2.3870 -0.4204 -1.6100
  130MOL   H28341821   7.324   3.059   2.536 -0.4149 -0.1572 -1.2536
  130MOL   H28441822   7.348   2.809   2.441  0.3388 -1.0289 -0.7316
  130MOL   H28541823   7.140   2.783   2.527 -0.9281 -2.4703 -2.0703
  130MOL   H28641824   6.896   2.805   2.499  1.1841 -0.8514 -0.8419
  130MOL   H28741825   6.811   3.006   2.360  1.0106  1.5128 -2.3921
  130MOL   H28841826   6.956   3.123   2.224  2.2293 -0.0188 -3.0610
  130MOL   H28941827   7.217   3.091   2.237 -0.1367 -0.4053 -0.8879
  130MOL   C29041828   7.398   2.875   2.249 -0.8484 -0.1276  0.4856
  130MOL   C29141829   7.324   2.760   2.170 -0.4715  0.4586  0.3839
  130MOL   C29241830   7.367   2.748   2.025  0.4638  0.3063  0.9974
  130MOL   C29341831   7.500   2.774   1.984  0.6622  0.2897 -0.1095
  130MOL   C29441832   7.542   2.758   1.846 -0.3262 -0.1534 -0.0442
  130MOL   C29541833   7.446   2.739   1.747  0.3864  1.1115  1.7846
  130MOL   C29641834   7.316   2.708   1.785  0.3475  0.2782 -0.5617
  130MOL   C29741835   7.278   2.707   1.925 -0.4260 -0.1005  0.7560
  130MOL   H29841836   7.506   2.862   2.255 -0.6279  0.6871 -1.4328
  130MOL   H29941837   7.394   2.964   2.186  2.4588  0.4625  1.0193
  130MOL   H30041838   7.218   2.784   2.172 -0.8962 -1.2625 -0.2761
  130MOL   H30141839   7.576   2.786   2.060 -0.1000 -0.4914  0.8001
  130MOL   H30241840   7.642   2.779   1.813 -0.0465 -0.3182  0.6956
  130MOL   H30341841   7.474   2.734   1.643  1.8640  1.3566  2.1595
  130MOL   H30441842   7.248   2.681   1.705  0.8473 -0.4576 -0.7501
  130MOL   H30541843   7.174   2.687   1.949 -0.1098 -1.5582  0.9894
  130MOL   C30641844   7.350   2.614   2.230  0.0097  0.8777  0.3278
  130MOL   C30741845   7.233   2.516   2.216  0.7554 -0.0525 -0.2441
  130MOL   C30841846   7.260   2.383   2.290  0.8453 -0.9048 -0.0905
  130MOL   C30941847   7.274   2.267   2.217  0.8979  0.0246 -0.0347
  130MOL   C31041848   7.336   2.153   2.278 -0.5433 -0.1304  0.1736
  130MOL   C31141849   7.354   2.156   2.415 -0.5260  0.2819  0.2384
  130MOL   C31241850   7.330   2.272   2.491  0.4283 -0.6071  0.0810
  130MOL   C31341851   7.289   2.390   2.425  0.4975  0.4710 -0.8579
  130MOL   H31441852   7.348   2.612   2.339 -1.6973 -2.3710  0.3155
  130MOL   H31541853   7.442   2.564   2.203 -1.2563 -0.2776 -1.9909
  130MOL   H31641854   7.210   2.492   2.113 -2.4303 -0.6409  0.5514
  130MOL   H31741855   7.236   2.273   2.116  0.9988 -0.1956 -0.0842
  130MOL   H31841856   7.363   2.066   2.220  0.1693  0.5503 -0.5401
  130MOL   H31941857   7.381   2.069   2.473 -0.8356  0.9416  1.3891
  130MOL   H32041858   7.334   2.269   2.599 -2.5934 -0.0268  0.2591
  130MOL   H32141859   7.271   2.482   2.479  1.8239 -0.2724  0.8714
  130MOL   H32241860   7.135   2.547   2.253  0.4627 -2.2346  0.8643
  131MOL     C141861   1.147   1.776   2.881 -0.6632  0.3225  0.4857
  131MOL     C241862   1.024   1.765   2.969 -0.0585  0.5785  0.4625
  131MOL     C341863   0.899   1.725   2.890 -0.2827 -0.7326  0.1697
  131MOL     C441864   0.881   1.593   2.851  0.1721  0.5299  0.5853
  131MOL     C541865   0.768   1.561   2.774  0.4466  0.4079 -0.6170
  131MOL     C641866   0.661   1.647   2.742 -0.2550  0.2392  0.2015
  131MOL     C741867   0.684   1.775   2.783 -0.0499 -0.2164  0.6293
  131MOL     C841868   0.795   1.814   2.856 -0.0392  0.6416 -0.4945
  131MOL     H941869   1.184   1.675   2.866  0.7942  1.0360 -0.9660
  131MOL    H1041870   1.116   1.808   2.781 -0.4236 -3.3602 -0.8203
  131MOL    H1141871   1.001   1.868   2.994 -0.1023  0.6611  0.0821
  131MOL    H1241872   0.943   1.507   2.871 -1.4677 -1.2541 -1.5394
  131MOL    H1341873   0.764   1.457   2.744 -0.1452  1.0019 -2.6673
  131MOL    H1441874   0.571   1.626   2.686 -0.0780  0.5299 -0.1934
  131MOL    H1541875   0.616   1.856   2.760  0.9779  0.9880  1.6593
  131MOL    H1641876   0.794   1.912   2.900  1.2052 -0.4709  2.1735
  131MOL    H1741877   1.241   1.815   2.921  0.0604 -0.1177 -0.7565
  131MOL    C1841878   1.045   1.683   3.094  0.5215  0.7545  0.3329
  131MOL    C1941879   1.126   1.747   3.214  0.1000 -0.2628 -0.1975
  131MOL    C2041880   1.076   1.879   3.260  0.1128 -0.3929  0.3889
  131MOL    C2141881   0.939   1.911   3.242  0.0167 -0.8546 -0.2228
  131MOL    C2241882   0.878   2.024   3.292  0.2025 -0.1783 -0.1314
  131MOL    C2341883   0.959   2.121   3.354 -0.7031 -0.1808 -0.3436
  131MOL    C2441884   1.099   2.094   3.371  0.1403 -0.1447 -0.7692
  131MOL    C2541885   1.157   1.972   3.330  0.0750 -0.3653  0.8409
  131MOL    H2641886   1.106   1.597   3.064 -0.8486  0.0269 -0.4235
  131MOL    H2741887   0.952   1.638   3.129  1.8322 -0.8432  1.8416
  131MOL    H2841888   1.220   1.787   3.175 -0.2371  0.2652 -0.4888
  131MOL    H2941889   0.874   1.839   3.195 -0.5890 -0.5599  0.1534
  131MOL    H3041890   0.775   2.047   3.271  0.5272  1.5256  0.0453
  131MOL    H3141891   0.909   2.208   3.393 -0.0594  0.5434 -1.1168
  131MOL    H3241892   1.160   2.169   3.418 -0.4901 -1.2492  1.9630
  131MOL    H3341893   1.264   1.953   3.327 -0.1655 -1.6522  0.3561
  131MOL    C3441894   1.152   1.639   3.322 -0.3429 -0.4411  0.4245
  131MOL    C3541895   1.249   1.523   3.283  0.3784  0.8739 -0.1650
  131MOL    C3641896   1.377   1.591   3.231 -0.2220  0.0885  0.6096
  131MOL    C3741897   1.417   1.571   3.101 -0.3999  0.1913  0.3953
  131MOL    C3841898   1.532   1.635   3.052 -0.5242  0.3374  0.6914
  131MOL    C3941899   1.610   1.716   3.133  0.1112 -0.5642 -0.3348
  131MOL    C4041900   1.577   1.730   3.270 -0.2356 -0.3603  0.2320
  131MOL    C4141901   1.457   1.674   3.321  0.1679 -0.2190  0.4207
  131MOL    H4241902   1.063   1.589   3.359 -0.3221  0.1345  1.2674
  131MOL    H4341903   1.197   1.680   3.413  1.2777  0.2828 -0.6812
  131MOL    H4441904   1.197   1.470   3.203  0.6226 -2.0564  1.5504
  131MOL    H4541905   1.350   1.517   3.036 -0.8010  2.1456 -0.8492
  131MOL    H4641906   1.555   1.632   2.946  0.6002 -0.3443  0.9395
  131MOL    H4741907   1.696   1.776   3.108 -0.6313  1.3187  1.4176
  131MOL    H4841908   1.632   1.803   3.326  1.2868  0.4572 -2.2323
  131MOL    H4941909   1.437   1.683   3.426 -1.8370 -0.6331  0.0973
  131MOL    C5041910   1.260   1.416   3.391 -0.4043  0.3984 -0.2037
  131MOL    C5141911   1.353   1.300   3.361  0.1092  0.2374  0.2923
  131MOL    C5241912   1.365   1.217   3.490  0.4253  0.4720 -0.0649
  131MOL    C5341913   1.257   1.143   3.527  0.1588 -0.0461 -0.2763
  131MOL    C5441914   1.253   1.063   3.642  0.1870 -0.4003  0.0439
  131MOL    C5541915   1.370   1.059   3.725 -0.3442  0.3419  0.1520
  131MOL    C5641916   1.477   1.141   3.687 -0.1736 -0.3080  0.4461
  131MOL    C5741917   1.475   1.216   3.570  0.9601  0.0852  0.3700
  131MOL    H5841918   1.166   1.368   3.417 -0.1479 -0.2557 -0.4572
  131MOL    H5941919   1.299   1.469   3.479  1.7435  1.0845 -1.5114
  131MOL    H6041920   1.454   1.342   3.366  0.3477 -0.3967  0.8000
  131MOL    H6141921   1.171   1.154   3.462 -0.8689 -2.0833  0.7315
  131MOL    H6241922   1.173   0.992   3.657  0.2303 -0.1405  1.6025
  131MOL    H6341923   1.384   0.986   3.803  1.8434 -0.2201 -0.7301
  131MOL    H6441924   1.565   1.145   3.750 -1.3833  1.9329  2.0450
  131MOL    H6541925   1.559   1.282   3.549  0.2013  0.9314 -0.0639
  131MOL    C6641926   1.337   1.216   3.232 -0.3004  0.0618 -0.2582
  131MOL    C6741927   1.439   1.089   3.219  0.9611 -0.5505 -0.5432
  131MOL    C6841928   1.396   0.963   3.296  0.0402 -0.0418  0.0006
  131MOL    C6941929   1.493   0.903   3.387  0.5788  0.0244 -0.0944
  131MOL    C7041930   1.453   0.785   3.463  0.9889  0.0900 -0.1154
  131MOL    C7141931   1.316   0.741   3.451  0.2207 -0.5132 -0.2805
  131MOL    C7241932   1.221   0.801   3.372  0.0487 -0.0629  0.3635
  131MOL    C7341933   1.269   0.905   3.286 -0.1697 -0.5540 -0.0600
  131MOL    H7441934   1.378   1.280   3.153  0.9592 -0.7485 -0.2761
  131MOL    H7541935   1.231   1.195   3.217 -0.4399  0.1502  0.5633
  131MOL    H7641936   1.529   1.125   3.268 -0.6164 -1.6378  3.4115
  131MOL    H7741937   1.588   0.952   3.396 -0.2613  1.5946  0.4542
  131MOL    H7841938   1.521   0.722   3.518 -0.2015 -1.3691 -0.2602
  131MOL    H7941939   1.285   0.658   3.513  1.0052 -1.0192 -0.5632
  131MOL    H8041940   1.117   0.771   3.383 -0.0107 -0.0320 -0.0968
  131MOL    H8141941   1.199   0.952   3.218  0.4252  0.0294 -0.2684
  131MOL    C8241942   1.468   1.052   3.069  0.0923 -0.7201  0.8671
  131MOL    C8341943   1.558   1.141   2.985 -0.5456 -0.1197  0.1212
  131MOL    C8441944   1.686   1.172   3.065  0.2636 -0.2208  0.3726
  131MOL    C8541945   1.788   1.077   3.090 -0.3427  0.2957  0.0394
  131MOL    C8641946   1.897   1.113   3.175  0.1859 -0.0949 -0.4697
  131MOL    C8741947   1.904   1.245   3.233 -0.3940 -0.0942 -0.9637
  131MOL    C8841948   1.799   1.335   3.203 -1.1827  0.0876 -0.0410
  131MOL    C8941949   1.691   1.300   3.118 -0.4675  0.0785 -0.0785
  131MOL    H9041950   1.379   1.024   3.013  1.7370 -0.8750 -1.7463
  131MOL    H9141951   1.519   0.957   3.074  0.1739 -0.8200 -1.2800
  131MOL    H9241952   1.505   1.236   2.974  0.4067  0.4230  0.1324
  131MOL    H9341953   1.780   0.976   3.051  1.0493  0.3806 -0.4926
  131MOL    H9441954   1.977   1.043   3.194  0.3515  0.2493  0.1162
  131MOL    H9541955   1.986   1.280   3.294  0.0284 -1.1941 -0.8868
  131MOL    H9641956   1.810   1.434   3.244 -1.0571 -0.2034  0.6326
  131MOL    H9741957   1.604   1.362   3.104  0.7562  1.7731 -0.2741
  131MOL    C9841958   1.591   1.088   2.842  0.1462 -0.5912  0.0395
  131MOL    C9941959   1.475   1.106   2.740 -0.1688 -0.1447  0.1477
  131MOL   C10041960   1.430   1.247   2.727 -0.6916 -0.5630 -0.1399
  131MOL   C10141961   1.514   1.349   2.680  0.2170 -0.3585  1.1260
  131MOL   C10241962   1.469   1.480   2.666  0.3618 -0.5791  0.3585
  131MOL   C10341963   1.333   1.507   2.701  0.8988 -0.2157  0.0721
  131MOL   C10441964   1.253   1.404   2.743 -0.4169 -0.4191  0.3473
  131MOL   C10541965   1.296   1.278   2.759 -0.8911  0.0577  0.2747
  131MOL   H10641966   1.613   0.982   2.840 -0.4847 -0.7620  1.7339
  131MOL   H10741967   1.682   1.136   2.805  0.0336  1.0713  1.8350
  131MOL   H10841968   1.389   1.047   2.774 -0.7975 -0.1402 -1.3974
  131MOL   H10941969   1.613   1.334   2.639 -0.2038  0.4435 -0.2276
  131MOL   H11041970   1.542   1.553   2.634 -0.6164  0.6957  0.9354
  131MOL   H11141971   1.303   1.610   2.705  1.2707 -0.1481  1.3017
  131MOL   H11241972   1.152   1.425   2.775 -0.3271  0.6176 -0.0268
  131MOL   H11341973   1.220   1.210   2.796 -1.0762 -1.0859 -2.1397
  131MOL   C11441974   1.518   1.044   2.603 -0.1551  0.1982  0.0204
  131MOL   C11541975   1.425   0.930   2.555 -0.4929 -0.0050  0.2211
  131MOL   C11641976   1.281   0.971   2.550  1.0153 -0.3039 -0.2987
  131MOL   C11741977   1.232   1.097   2.507 -0.1721 -0.1505  0.5259
  131MOL   C11841978   1.097   1.128   2.509  0.3825 -0.1700 -0.4074
  131MOL   C11941979   1.000   1.033   2.552  0.5715  0.0870  0.1007
  131MOL   C12041980   1.047   0.901   2.591  0.0797  0.2455 -0.5078
  131MOL   C12141981   1.186   0.878   2.600 -0.2918  0.1361  0.1543
  131MOL   H12241982   1.621   1.010   2.606  0.0250  0.6523 -0.9520
  131MOL   H12341983   1.527   1.122   2.527  1.4157 -0.0642 -0.0702
  131MOL   H12441984   1.428   0.858   2.638  1.7248 -2.0773 -1.6105
  131MOL   H12541985   1.305   1.168   2.471 -0.2512 -0.6290 -0.5782
  131MOL   H12641986   1.059   1.225   2.480 -0.2193 -0.1856  0.3326
  131MOL   H12741987   0.896   1.057   2.540  0.5744  0.3004  0.4737
  131MOL   H12841988   0.972   0.834   2.630  0.0421 -0.8485 -2.4431
  131MOL   H12941989   1.225   0.783   2.633  0.8681  0.3966 -0.4364
  131MOL   C13041990   1.454   0.860   2.423  0.8134  0.5964  0.1412
  131MOL   C13141991   1.593   0.790   2.418 -0.3305  0.1162 -0.2463
  131MOL   C13241992   1.624   0.724   2.550 -0.3053 -0.2624 -0.3701
  131MOL   C13341993   1.530   0.634   2.615 -0.4699  0.1670 -0.0243
  131MOL   C13441994   1.564   0.565   2.728  0.4013 -0.0101  0.0298
  131MOL   C13541995   1.692   0.585   2.784  0.2253 -0.2749  0.2622
  131MOL   C13641996   1.786   0.675   2.717  0.6522  0.2723 -0.3036
  131MOL   C13741997   1.752   0.743   2.599 -0.0750 -0.2085 -0.3316
  131MOL   H13841998   1.444   0.932   2.342  0.2455 -1.6281 -1.8221
  131MOL   H13941999   1.383   0.781   2.396  1.8209 -0.4689  0.5651
  131MOL   H14042000   1.661   0.874   2.407 -0.6743  0.6038  1.2893
  131MOL   H14142001   1.433   0.616   2.571 -1.4278  0.0858  2.0490
  131MOL   H14242002   1.493   0.496   2.771 -0.5825  0.2775 -1.0978
  131MOL   H14342003   1.727   0.538   2.875  0.0228 -1.6907 -0.3742
  131MOL   H14442004   1.879   0.700   2.767  1.8832 -1.0403 -1.8904
  131MOL   H14542005   1.830   0.797   2.548  2.2582 -2.0280  1.2233
  131MOL   C14642006   1.608   0.700   2.300 -0.3707  0.1081  0.7582
  131MOL   C14742007   1.599   0.768   2.160  0.4105  0.5162  0.0191
  131MOL   C14842008   1.704   0.877   2.144  0.0494 -0.4571  0.6931
  131MOL   C14942009   1.841   0.843   2.129  0.3849 -0.5814  0.5971
  131MOL   C15042010   1.940   0.939   2.103 -0.1033  0.2509  0.3841
  131MOL   C15142011   1.906   1.071   2.101  0.1355  0.0334 -0.6850
  131MOL   C15242012   1.767   1.111   2.107  0.6941  0.5813  0.5580
  131MOL   C15342013   1.670   1.010   2.120  0.5457  0.0018  0.1338
  131MOL   H15442014   1.541   0.614   2.304 -0.1099 -0.0840  1.0042
  131MOL   H15542015   1.710   0.661   2.299 -0.8592 -1.2268 -1.3253
  131MOL   H15642016   1.500   0.813   2.160 -0.1981 -0.7912  1.1537
  131MOL   H15742017   1.865   0.740   2.154  1.9625 -0.0434  1.3718
  131MOL   H15842018   2.042   0.906   2.107 -0.4847 -0.9429  0.2979
  131MOL   H15942019   1.982   1.148   2.096 -0.1524  0.4202  0.6473
  131MOL   H16042020   1.738   1.212   2.083  1.6529  0.7261 -0.0412
  131MOL   H16142021   1.566   1.035   2.111  0.7785  0.8266 -0.3632
  131MOL   C16242022   1.602   0.667   2.048 -0.2635 -0.2045  0.4147
  131MOL   C16342023   1.595   0.711   1.904 -0.2534 -0.0759  0.0522
  131MOL   C16442024   1.615   0.593   1.803  0.2839 -0.2034  0.3624
  131MOL   C16542025   1.562   0.463   1.820 -0.4939 -0.1839  0.3166
  131MOL   C16642026   1.604   0.354   1.737  0.4897  0.0951  0.3847
  131MOL   C16742027   1.703   0.379   1.642 -0.3055  0.5451  0.4037
  131MOL   C16842028   1.749   0.508   1.616 -0.2565 -0.2209 -0.1224
  131MOL   C16942029   1.712   0.618   1.706  0.1487  0.2313 -0.5659
  131MOL   H17042030   1.521   0.595   2.059 -0.1199 -0.5268 -0.5777
  131MOL   H17142031   1.693   0.613   2.075 -0.7456 -0.6828  1.1300
  131MOL   H17242032   1.670   0.789   1.886 -2.6050  2.0593 -0.7345
  131MOL   H17342033   1.481   0.444   1.889 -1.8163 -0.2125 -1.2169
  131MOL   H17442034   1.567   0.253   1.748  1.1887 -0.3178 -0.9178
  131MOL   H17542035   1.730   0.295   1.579  3.2958  0.2613  2.2075
  131MOL   H17642036   1.801   0.512   1.522 -0.5302 -1.1816 -0.3236
  131MOL   H17742037   1.750   0.717   1.689  1.9929 -0.2519  0.5852
  131MOL   C17842038   1.465   0.795   1.879 -0.1503 -0.5068 -0.8109
  131MOL   C17942039   1.331   0.722   1.858 -0.2346  0.5647  0.0014
  131MOL   C18042040   1.270   0.669   1.983 -0.9944  0.2241  0.1273
  131MOL   C18142041   1.242   0.532   1.995 -0.1057 -0.2323 -0.1004
  131MOL   C18242042   1.168   0.483   2.103  0.2295 -0.0579 -0.4909
  131MOL   C18342043   1.113   0.574   2.196 -0.3005 -0.1253  0.0407
  131MOL   C18442044   1.146   0.713   2.189 -0.3970  0.2877  0.1421
  131MOL   C18542045   1.219   0.760   2.077  0.7491 -0.4291 -0.2646
  131MOL   H18642046   1.505   0.835   1.786  3.0258 -1.5443  0.0285
  131MOL   H18742047   1.444   0.881   1.942  0.4727 -0.5228 -0.5768
  131MOL   H18842048   1.345   0.630   1.801 -3.4115 -0.7912  1.2616
  131MOL   H18942049   1.269   0.470   1.910  0.4592  1.4675 -1.1926
  131MOL   H19042050   1.149   0.378   2.115 -0.4215  0.0968 -0.1493
  131MOL   H19142051   1.060   0.534   2.281  0.7947  1.8276  1.6895
  131MOL   H19242052   1.122   0.786   2.265  1.2180  2.4766 -1.4315
  131MOL   H19342053   1.244   0.865   2.073 -0.1078 -0.2587 -1.3026
  131MOL   C19442054   1.221   0.799   1.786 -0.7116  0.3789  0.3014
  131MOL   C19542055   1.250   0.825   1.639  0.5681 -0.3993 -0.0033
  131MOL   C19642056   1.238   0.696   1.557 -0.3579 -0.0903  0.0089
  131MOL   C19742057   1.120   0.653   1.494  0.0277 -0.0330 -0.4054
  131MOL   C19842058   1.123   0.528   1.427  0.1235 -0.5401  0.3240
  131MOL   C19942059   1.235   0.444   1.423 -0.2366 -0.5643 -0.0442
  131MOL   C20042060   1.360   0.500   1.465 -0.1250  0.3082  0.2046
  131MOL   C20142061   1.358   0.622   1.530  0.1189 -0.7150 -0.5013
  131MOL   H20242062   1.198   0.884   1.851 -1.2120  1.7774 -1.6887
  131MOL   H20342063   1.132   0.738   1.796 -0.3329  0.0295  1.6722
  131MOL   H20442064   1.358   0.842   1.635  0.3190  1.4764  0.7878
  131MOL   H20542065   1.027   0.706   1.505  0.3823  0.4183  0.4574
  131MOL   H20642066   1.028   0.487   1.394 -0.4735  1.3905 -0.4286
  131MOL   H20742067   1.221   0.343   1.389 -2.0871 -0.4089  0.1832
  131MOL   H20842068   1.457   0.455   1.448 -0.1670 -0.2562  1.3763
  131MOL   H20942069   1.449   0.666   1.568 -0.6497  0.8882 -0.4592
  131MOL   C21042070   1.156   0.939   1.593 -0.2528  0.8208 -0.0215
  131MOL   C21142071   1.150   1.077   1.660 -0.7482  0.5636 -0.6159
  131MOL   C21242072   1.289   1.142   1.682  0.7956  0.0518  0.4712
  131MOL   C21342073   1.344   1.143   1.815 -0.0623  0.0495  0.4544
  131MOL   C21442074   1.477   1.179   1.822  0.3673  0.4036  0.2007
  131MOL   C21542075   1.548   1.228   1.713  0.6065  0.2867  0.8726
  131MOL   C21642076   1.488   1.235   1.587  0.1035 -0.4311 -1.0326
  131MOL   C21742077   1.363   1.179   1.570 -0.6446 -0.4080 -0.3059
  131MOL   H21842078   1.054   0.901   1.587  0.1373 -0.4660  1.5283
  131MOL   H21942079   1.188   0.949   1.489 -0.4694 -2.2104 -0.4060
  131MOL   H22042080   1.099   1.059   1.754 -2.6836 -2.3224 -2.1543
  131MOL   H22142081   1.289   1.104   1.900  0.4313  0.5095  0.9924
  131MOL   H22242082   1.530   1.170   1.916  1.0335 -1.1769 -0.3257
  131MOL   H22342083   1.654   1.248   1.722  0.6083  0.1944  1.0474
  131MOL   H22442084   1.547   1.280   1.509  1.7515 -3.2825 -1.4980
  131MOL   H22542085   1.320   1.168   1.471  0.4567  1.5089 -1.0214
  131MOL   C22642086   1.055   1.160   1.575  0.0084  0.3638  0.3191
  131MOL   C22742087   0.990   1.286   1.634 -0.1209  0.2082  0.5821
  131MOL   C22842088   0.978   1.397   1.533  0.5157  0.0419 -0.4973
  131MOL   C22942089   0.893   1.382   1.417  0.6888  0.1983  0.9725
  131MOL   C23042090   0.888   1.477   1.315 -0.5240 -0.9378  0.1051
  131MOL   C23142091   0.940   1.608   1.348  0.4412 -0.4353 -0.3234
  131MOL   C23242092   0.994   1.636   1.473 -0.3502  0.5514  0.0239
  131MOL   C23342093   1.025   1.527   1.560  0.7693  0.0955 -0.6821
  131MOL   H23442094   0.969   1.104   1.538 -0.9726  1.6999  0.5360
  131MOL   H23542095   1.101   1.193   1.482  2.0580  1.9222  1.8365
  131MOL   H23642096   1.061   1.321   1.709 -0.0012  3.0232 -0.7750
  131MOL   H23742097   0.839   1.292   1.392 -1.2980  1.8475 -0.7668
  131MOL   H23842098   0.844   1.460   1.218  0.6950  0.7438 -0.7650
  131MOL   H23942099   0.947   1.687   1.275  2.3344 -0.5484 -0.2653
  131MOL   H24042100   1.028   1.736   1.496 -1.8733  0.5281  2.6636
  131MOL   H24142101   1.070   1.554   1.655 -0.9272  0.4843  0.0270
  131MOL   C24242102   0.853   1.259   1.700 -0.1094  0.2094  0.2578
  131MOL   C24342103   0.841   1.169   1.823  0.1901  0.2896  0.6365
  131MOL   C24442104   0.933   1.217   1.940 -0.3957  0.0991 -0.3710
  131MOL   C24542105   0.913   1.347   1.999 -0.1699 -0.6875  0.3620
  131MOL   C24642106   0.989   1.378   2.114  0.2579  0.4069  0.2506
  131MOL   C24742107   1.071   1.282   2.174 -0.7060  0.0121  0.2641
  131MOL   C24842108   1.085   1.155   2.115 -0.4160 -0.2597  0.7498
  131MOL   C24942109   1.022   1.119   1.996 -0.0103 -0.0552 -0.2834
  131MOL   H25042110   0.795   1.212   1.620 -1.7593  2.1640  0.2741
  131MOL   H25142111   0.798   1.352   1.715 -3.5696 -1.9473  1.6212
  131MOL   H25242112   0.881   1.071   1.796 -1.1828 -0.0364 -0.2604
  131MOL   H25342113   0.840   1.418   1.963 -1.0489 -0.7490  1.9533
  131MOL   H25442114   0.959   1.468   2.165 -0.5947 -0.0828  0.6352
  131MOL   H25542115   1.113   1.304   2.271  0.5730 -0.1830 -0.2347
  131MOL   H25642116   1.153   1.079   2.150 -0.5167  0.1145  1.7737
  131MOL   H25742117   1.034   1.022   1.949 -0.5838  0.3525 -1.3091
  131MOL   C25842118   0.686   1.144   1.848 -0.7774 -0.0307 -0.1174
  131MOL   C25942119   0.619   1.020   1.776 -0.4905  0.1330 -0.7017
  131MOL   C26042120   0.697   0.889   1.815  0.7132 -0.4769  0.1791
  131MOL   C26142121   0.778   0.824   1.720  0.2021 -0.0977  0.7316
  131MOL   C26242122   0.859   0.716   1.754  0.3727 -0.8394  0.1470
  131MOL   C26342123   0.857   0.668   1.884 -0.0754  0.1939 -0.4272
  131MOL   C26442124   0.785   0.736   1.983 -0.5265 -0.1563  0.0819
  131MOL   C26542125   0.706   0.846   1.949  0.3235 -0.0688 -0.0790
  131MOL   H26642126   0.631   1.236   1.831  1.5085  0.7680 -3.5630
  131MOL   H26742127   0.675   1.128   1.956  3.6016 -0.4298  0.3390
  131MOL   H26842128   0.633   1.040   1.669 -3.4959 -0.7961 -1.3066
  131MOL   H26942129   0.782   0.859   1.618 -0.2834  0.4158  0.8825
  131MOL   H27042130   0.918   0.661   1.682  1.4181 -0.7869  0.9532
  131MOL   H27142131   0.912   0.579   1.907 -1.2229 -0.0612  1.4095
  131MOL   H27242132   0.796   0.711   2.087 -0.1718  0.4190  0.1883
  131MOL   H27342133   0.655   0.891   2.032  1.6749  0.7698  0.3035
  131MOL   C27442134   0.469   0.992   1.799 -0.2499 -0.0990  0.5691
  131MOL   C27542135   0.378   1.110   1.768  0.3287 -0.0475 -0.0221
  131MOL   C27642136   0.402   1.168   1.630  0.1539 -0.0569  1.1043
  131MOL   C27742137   0.400   1.309   1.615 -0.7533  0.0239  1.0510
  131MOL   C27842138   0.427   1.365   1.487 -0.3853  0.3666  0.0311
  131MOL   C27942139   0.447   1.278   1.377  0.1497  0.6184  0.0564
  131MOL   C28042140   0.438   1.139   1.391 -0.4205 -0.4303  0.2631
  131MOL   C28142141   0.418   1.083   1.515  0.0984 -0.2863 -0.1565
  131MOL   H28242142   0.454   0.962   1.902 -1.6041  0.4772  0.5428
  131MOL   H28342143   0.442   0.907   1.736  1.0051 -0.8325  1.0036
  131MOL   H28442144   0.419   1.188   1.833  0.3763 -1.3105  1.4978
  131MOL   H28542145   0.405   1.373   1.702  2.7270  0.5392  0.5534
  131MOL   H28642146   0.424   1.473   1.488  0.3385  0.3941  1.3837
  131MOL   H28742147   0.456   1.323   1.279 -1.0680 -1.9456 -1.2732
  131MOL   H28842148   0.466   1.073   1.310 -0.0305  1.0510 -0.8305
  131MOL   H28942149   0.422   0.976   1.529  0.7579 -0.0835  1.2959
  131MOL   C29042150   0.231   1.092   1.808  0.3255  0.0383  0.9302
  131MOL   C29142151   0.201   1.078   1.961  0.3186 -0.1024  0.3215
  131MOL   C29242152   0.287   1.147   2.062  0.4478  0.1749  0.0462
  131MOL   C29342153   0.367   1.076   2.153  0.2988 -0.6093  0.2796
  131MOL   C29442154   0.443   1.146   2.246  0.5069 -0.4720  0.3669
  131MOL   C29542155   0.422   1.288   2.259 -0.0220 -0.4894  0.2988
  131MOL   C29642156   0.355   1.359   2.157  0.0743 -0.5656 -0.1508
  131MOL   C29742157   0.286   1.285   2.058  0.0098  0.2227 -0.3964
  131MOL   H29842158   0.193   1.009   1.748  0.8548  0.0779  0.5325
  131MOL   H29942159   0.177   1.178   1.768  0.1463 -0.2956  0.4572
  131MOL   H30042160   0.213   0.971   1.975 -1.6856 -0.5417 -1.1540
  131MOL   H30142161   0.361   0.968   2.146  0.8246 -0.4891 -2.9014
  131MOL   H30242162   0.513   1.098   2.313 -0.3306 -1.0167  0.8584
  131MOL   H30342163   0.472   1.336   2.342 -1.2496 -1.9059  1.8913
  131MOL   H30442164   0.355   1.466   2.172  1.0788 -0.4090 -1.2057
  131MOL   H30542165   0.223   1.335   1.985 -1.9924 -0.1351  1.0342
  131MOL   C30642166   0.045   1.087   1.978 -0.1082  0.0820  0.0376
  131MOL   C30742167   8.106   1.092   2.125  0.0942  0.3771  0.3308
  131MOL   C30842168   8.045   1.229   2.166  1.2177  0.0030 -0.1216
  131MOL   C30942169   7.930   1.276   2.100  0.4621  0.7711  0.4561
  131MOL   C31042170   7.883   1.399   2.125 -0.1092 -0.3093 -0.3780
  131MOL   C31142171   7.947   1.489   2.214 -0.0892 -0.0632 -0.5958
  131MOL   C31242172   8.066   1.443   2.279 -0.3663 -0.2619 -0.6157
  131MOL   C31342173   8.111   1.310   2.259  0.0668 -0.2618 -0.5100
  131MOL   H31442174   0.007   0.993   1.940  2.3720 -0.1468 -2.0564
  131MOL   H31542175   0.011   1.171   1.918  0.4883 -0.2229 -0.7419
  131MOL   H31642176   0.066   1.071   2.202 -0.6599 -0.2619  0.8911
  131MOL   H31742177   7.885   1.217   2.022  2.9358  1.7018 -1.6978
  131MOL   H31842178   7.800   1.444   2.073 -1.4596 -1.3970  0.7715
  131MOL   H31942179   7.919   1.593   2.226 -0.0067 -0.2013  0.7970
  131MOL   H32042180   8.111   1.507   2.354  0.7507 -0.0747 -1.4213
  131MOL   H32142181   0.087   1.282   2.309  0.4562 -0.9366 -1.5889
  131MOL   H32242182   8.027   1.017   2.130 -0.0911  0.5909  0.6612
  132MOL     C142183   2.221   0.808   0.556 -0.4527  0.5176 -0.5516
  132MOL     C242184   2.203   0.895   0.432  0.2193 -0.3822 -0.0640
  132MOL     C342185   2.064   0.951   0.422  0.5888  0.2911 -0.3087
  132MOL     C442186   1.978   0.898   0.327 -0.1986  0.3926 -0.0041
  132MOL     C542187   1.852   0.960   0.310  0.1616  0.5045  0.2550
  132MOL     C642188   1.807   1.074   0.380  0.1883  0.0367  0.2095
  132MOL     C742189   1.888   1.110   0.490  0.5396  0.7295  0.5829
  132MOL     C842190   2.016   1.055   0.508 -0.6876  0.1103 -0.1408
  132MOL     H942191   2.220   0.865   0.649  1.6475  0.2061 -0.3140
  132MOL    H1042192   2.141   0.734   0.567 -0.6870  1.0803  1.9156
  132MOL    H1142193   2.216   0.826   0.348 -1.6824 -1.0510  0.1720
  132MOL    H1242194   2.005   0.813   0.267 -0.2323  1.6637 -1.8758
  132MOL    H1342195   1.786   0.917   0.236 -2.5791  0.1040  2.8511
  132MOL    H1442196   1.716   1.124   0.350 -0.3911 -2.3145 -2.1147
  132MOL    H1542197   1.861   1.189   0.559  1.5794 -0.6544  2.6078
  132MOL    H1642198   2.068   1.096   0.594 -0.2148  1.6326 -1.1459
  132MOL    H1742199   2.312   0.748   0.563 -1.2886 -0.6714  0.5243
  132MOL    C1842200   2.319   1.003   0.423  0.9491 -0.4057  0.3793
  132MOL    C1942201   2.362   1.046   0.280  0.3360 -0.3301  0.9044
  132MOL    C2042202   2.246   1.098   0.195 -0.0227 -0.5489  0.4740
  132MOL    C2142203   2.175   1.217   0.234 -0.0232 -0.1983  0.1902
  132MOL    C2242204   2.062   1.260   0.166 -0.2477 -0.5389 -0.7443
  132MOL    C2342205   2.016   1.187   0.054 -0.3588  0.1807  0.2995
  132MOL    C2442206   2.094   1.075   0.011  0.4281 -0.1344 -0.1660
  132MOL    C2542207   2.208   1.032   0.084 -0.8248  0.1338 -0.3707
  132MOL    H2642208   2.408   0.946   0.448  0.7339 -0.7061  0.4574
  132MOL    H2742209   2.307   1.087   0.491  1.5495 -1.0659  1.3102
  132MOL    H2842210   2.410   0.955   0.243  1.6460  1.0320 -0.7909
  132MOL    H2942211   2.215   1.278   0.313 -0.2365  0.0911  0.0755
  132MOL    H3042212   2.005   1.342   0.207 -1.7015 -0.9271 -1.9723
  132MOL    H3142213   1.926   1.215   0.002 -0.2433  2.5895  1.3177
  132MOL    H3242214   2.060   1.020   8.040  0.2550 -0.3501  0.0414
  132MOL    H3342215   2.264   0.947   0.047 -0.3644  0.8422 -1.3022
  132MOL    C3442216   2.478   1.147   0.292  0.3705  0.2382 -0.2848
  132MOL    C3542217   2.559   1.179   0.169  0.7888  0.2967 -0.1363
  132MOL    C3642218   2.641   1.302   0.195  0.3864  0.4142 -0.2524
  132MOL    C3742219   2.626   1.416   0.118 -0.1044 -0.1191 -0.3837
  132MOL    C3842220   2.693   1.535   0.142  0.5857  0.6355  0.1664
  132MOL    C3942221   2.789   1.535   0.248 -0.0873 -0.4641 -0.1021
  132MOL    C4042222   2.807   1.420   0.329 -0.2786 -0.0545 -0.7412
  132MOL    C4142223   2.726   1.303   0.306 -0.1239  0.1660 -0.2379
  132MOL    H4242224   2.553   1.110   0.362  0.2073 -0.2171 -0.3511
  132MOL    H4342225   2.433   1.236   0.337 -2.3965 -1.1093 -0.3075
  132MOL    H4442226   2.486   1.195   0.090 -1.7927 -3.4390  1.3774
  132MOL    H4542227   2.552   1.412   0.040 -0.6502 -0.6816  0.1531
  132MOL    H4642228   2.671   1.621   0.080 -0.2802  0.1873 -0.1580
  132MOL    H4742229   2.856   1.618   0.267 -0.8399 -0.0453  0.7293
  132MOL    H4842230   2.873   1.414   0.414 -1.7588  0.5538  0.4726
  132MOL    H4942231   2.743   1.217   0.369  1.2650  1.6001  1.4054
  132MOL    C5042232   2.648   1.062   0.127 -0.4336  0.2920 -0.9233
  132MOL    C5142233   2.683   1.043   8.089  0.6495  0.7006  0.2633
  132MOL    C5242234   2.559   0.981   8.021  0.0099 -0.3263 -1.0050
  132MOL    C5342235   2.467   1.056   7.942  0.3267 -0.6016  0.0867
  132MOL    C5442236   2.354   1.000   7.869 -0.6676  0.2576 -0.9675
  132MOL    C5542237   2.335   0.862   7.890 -0.8214  0.5092 -1.1113
  132MOL    C5642238   2.426   0.784   7.965  0.3266  0.1478 -0.8071
  132MOL    C5742239   2.543   0.842   8.027  0.2702 -0.0707 -0.1963
  132MOL    H5842240   2.599   0.966   0.146 -0.1624 -0.0312 -1.7798
  132MOL    H5942241   2.736   1.060   0.190  1.3920  0.6205 -3.3652
  132MOL    H6042242   2.760   0.966   8.084 -1.2525 -1.1835 -0.7105
  132MOL    H6142243   2.485   1.162   7.929 -1.7974 -0.2628 -0.2931
  132MOL    H6242244   2.283   1.058   7.812 -0.7107  1.3244  0.1503
  132MOL    H6342245   2.247   0.820   7.843 -1.1428 -0.5300  0.3705
  132MOL    H6442246   2.399   0.679   7.974 -0.3341  0.3917  0.1524
  132MOL    H6542247   2.612   0.778   8.080 -0.0795 -0.9145 -0.7574
  132MOL    C6642248   2.738   1.176   8.026  0.0968  0.1534 -0.3647
  132MOL    C6742249   2.776   1.174   7.880 -0.1762  0.6052  0.2493
  132MOL    C6842250   2.748   1.309   7.807 -0.8531 -0.1984  0.0462
  132MOL    C6942251   2.813   1.426   7.854  0.5203  0.2502  0.2241
  132MOL    C7042252   2.785   1.555   7.803  0.3353 -0.3297 -0.0818
  132MOL    C7142253   2.690   1.566   7.698  0.0088 -0.6875  1.4861
  132MOL    C7242254   2.611   1.454   7.658  0.3903 -0.1317 -0.6165
  132MOL    C7342255   2.649   1.328   7.710  1.4563 -0.4478 -0.0842
  132MOL    H7442256   2.821   1.215   8.084  0.8231  0.6940 -1.7275
  132MOL    H7542257   2.659   1.250   8.037  1.5228  1.5086  1.0368
  132MOL    H7642258   2.696   1.113   7.839 -1.9370  3.3810 -0.6066
  132MOL    H7742259   2.888   1.418   7.931  0.5863  1.9646  0.3522
  132MOL    H7842260   2.842   1.645   7.822  1.0691 -0.6431 -0.7916
  132MOL    H7942261   2.683   1.667   7.661 -2.1864 -1.3324  0.0427
  132MOL    H8042262   2.542   1.461   7.576  3.0653 -0.5547 -2.9866
  132MOL    H8142263   2.608   1.232   7.681  0.4277 -0.2822  0.7575
  132MOL    C8242264   2.909   1.102   7.856  0.1260  0.1242 -0.9952
  132MOL    C8342265   2.950   1.081   7.709 -0.0850  0.3569  0.2508
  132MOL    C8442266   3.090   1.025   7.690  0.0978 -0.1554  0.2979
  132MOL    C8542267   3.184   1.110   7.623 -0.6431  0.5997  0.3389
  132MOL    C8642268   3.320   1.069   7.613  0.1330  0.8141 -0.0796
  132MOL    C8742269   3.365   0.949   7.666 -0.3092  0.5541 -0.7217
  132MOL    C8842270   3.271   0.862   7.727 -0.1992  0.0325 -0.8107
  132MOL    C8942271   3.136   0.901   7.747  0.1695 -0.6678 -0.2093
  132MOL    H9042272   2.893   1.003   7.899  0.0009  1.0067  1.0397
  132MOL    H9142273   2.993   1.149   7.906 -0.7240 -0.4754  1.0883
  132MOL    H9242274   2.954   1.177   7.658  0.8303 -0.9064 -2.1582
  132MOL    H9342275   3.156   1.205   7.579 -1.1094  0.6825  0.8060
  132MOL    H9442276   3.391   1.135   7.566  2.1314 -0.8006  0.5639
  132MOL    H9542277   3.469   0.920   7.660  0.1577  0.9675  3.6808
  132MOL    H9642278   3.300   0.766   7.765  0.7723 -0.3706 -2.5233
  132MOL    H9742279   3.054   0.843   7.786 -0.2787  1.1176  1.5799
  132MOL    C9842280   2.841   0.995   7.636 -0.2329  0.6185  0.8390
  132MOL    C9942281   2.866   0.912   7.511  0.2758  0.2629  0.9799
  132MOL   C10042282   2.743   0.822   7.483  0.2116  0.1716 -0.0642
  132MOL   C10142283   2.619   0.882   7.461 -0.6026  0.1751 -0.2130
  132MOL   C10242284   2.506   0.804   7.457 -0.2627 -0.0239  0.1005
  132MOL   C10342285   2.513   0.665   7.468  0.3578 -0.6135 -0.4376
  132MOL   C10442286   2.637   0.603   7.496 -0.4190  0.4282 -0.7675
  132MOL   C10542287   2.756   0.683   7.499 -0.7790  0.3979 -0.0623
  132MOL   H10642288   2.770   1.073   7.610  0.8639  1.0673 -0.8556
  132MOL   H10742289   2.800   0.924   7.709  0.1055  0.5485  0.9647
  132MOL   H10842290   2.938   0.836   7.543 -0.4136 -0.2598  1.3148
  132MOL   H10942291   2.613   0.989   7.450  1.3380  0.3761  0.4132
  132MOL   H11042292   2.410   0.851   7.440 -0.6548 -0.9333 -0.2062
  132MOL   H11142293   2.420   0.610   7.456 -0.9994  1.0779  1.9219
  132MOL   H11242294   2.644   0.496   7.500 -0.1706  0.5192  1.9384
  132MOL   H11342295   2.854   0.637   7.508 -0.8704 -0.3384 -2.4094
  132MOL   C11442296   2.913   0.995   7.388 -0.6134 -0.2770 -0.2637
  132MOL   C11542297   2.975   0.921   7.264 -0.0394  0.4221 -0.6710
  132MOL   C11642298   3.110   0.861   7.306  0.7034  0.6501  0.1794
  132MOL   C11742299   3.225   0.942   7.291  0.7372  0.1603 -0.8894
  132MOL   C11842300   3.352   0.892   7.324 -0.9003  0.1366 -0.1480
  132MOL   C11942301   3.367   0.763   7.376  0.1816 -0.2599 -0.1008
  132MOL   C12042302   3.254   0.692   7.416  0.0696  0.4338  0.4304
  132MOL   C12142303   3.128   0.742   7.380 -0.0305  0.1511  0.2229
  132MOL   H12242304   2.986   1.066   7.424 -1.7163 -0.3215  2.1196
  132MOL   H12342305   2.831   1.058   7.353  1.9951  2.5571 -1.5124
  132MOL   H12442306   2.996   0.993   7.186 -0.2536 -0.6199 -1.7022
  132MOL   H12542307   3.211   1.038   7.242  0.9377  1.3687  1.3736
  132MOL   H12642308   3.429   0.967   7.314 -1.3594  0.6906  0.4307
  132MOL   H12742309   3.464   0.725   7.406 -0.4630 -1.3775  0.6128
  132MOL   H12842310   3.253   0.592   7.458 -0.2648 -0.1313 -0.9051
  132MOL   H12942311   3.040   0.687   7.409  1.0778 -1.4434  0.6481
  132MOL   C13042312   2.889   0.807   7.190 -0.1068  0.3291  0.0636
  132MOL   C13142313   2.750   0.856   7.122  0.1089  0.3214  0.0740
  132MOL   C13242314   2.759   0.978   7.039 -1.0155  0.2653 -0.2519
  132MOL   C13342315   2.697   1.094   7.081  0.2584  0.7030  0.5848
  132MOL   C13442316   2.715   1.216   7.008 -0.3772 -0.1356  0.1027
  132MOL   C13542317   2.796   1.212   6.888 -0.9180  0.0903 -0.5306
  132MOL   C13642318   2.856   1.098   6.842 -0.7429 -0.4379  0.2835
  132MOL   C13742319   2.840   0.980   6.920 -0.3030 -0.3045 -0.5379
  132MOL   H13842320   2.856   0.728   7.258  1.1632  0.1257  0.4637
  132MOL   H13942321   2.960   0.753   7.127  1.0827  2.1404 -0.1791
  132MOL   H14042322   2.681   0.893   7.199  1.2139 -1.2888  1.8899
  132MOL   H14142323   2.648   1.108   7.176 -0.9789  3.3794 -0.3648
  132MOL   H14242324   2.668   1.310   7.033 -1.1968 -0.0482 -1.6741
  132MOL   H14342325   2.810   1.310   6.844  0.7754 -0.2548 -0.7983
  132MOL   H14442326   2.916   1.099   6.752 -0.1341 -0.8993  0.6852
  132MOL   H14542327   2.878   0.886   6.883  1.2650  0.4418 -0.8711
  132MOL   C14642328   2.685   0.744   7.044  0.0256 -0.4057  0.2741
  132MOL   C14742329   2.539   0.759   6.996  0.1281  0.0194  0.3011
  132MOL   C14842330   2.515   0.655   6.885  0.2413 -1.1475  0.2814
  132MOL   C14942331   2.521   0.691   6.749 -0.0316  0.2759 -0.1916
  132MOL   C15042332   2.496   0.598   6.651 -0.0876  0.0008  0.3116
  132MOL   C15142333   2.480   0.462   6.690 -0.0352 -0.0299  0.3824
  132MOL   C15242334   2.473   0.421   6.824  0.2974  0.2869  0.0289
  132MOL   C15342335   2.484   0.521   6.921  0.2624 -0.5637  0.2741
  132MOL   H15442336   2.685   0.663   7.117  0.4604  1.6978  2.6995
  132MOL   H15542337   2.746   0.722   6.957 -0.3388 -1.7354  0.3470
  132MOL   H15642338   2.529   0.849   6.936 -1.8617 -0.3018  0.1015
  132MOL   H15742339   2.537   0.794   6.723  0.6739 -0.1560 -1.5424
  132MOL   H15842340   2.483   0.625   6.547 -1.2327  0.1467  0.4897
  132MOL   H15942341   2.456   0.384   6.620 -0.5594 -0.4753  1.0503
  132MOL   H16042342   2.477   0.318   6.854  0.2870 -0.1486 -1.4176
  132MOL   H16142343   2.476   0.489   7.024  0.8695 -0.6353  0.3011
  132MOL   C16242344   2.424   0.754   7.109  0.2044  0.1858  0.1352
  132MOL   C16342345   2.280   0.761   7.064  0.4539 -0.3174  1.0178
  132MOL   C16442346   2.208   0.630   7.087  0.2533  0.1500  0.4583
  132MOL   C16542347   2.173   0.557   6.973  0.0170  0.2927 -0.2180
  132MOL   C16642348   2.105   0.433   6.997 -0.4722 -1.0488  0.0057
  132MOL   C16742349   2.063   0.384   7.127 -0.7661 -0.5283 -0.2032
  132MOL   C16842350   2.113   0.455   7.243 -0.2969 -0.2707  0.8601
  132MOL   C16942351   2.187   0.569   7.213  0.6112 -0.5537 -0.2187
  132MOL   H17042352   2.442   0.842   7.171  2.2377 -0.1862  0.1234
  132MOL   H17142353   2.445   0.671   7.176  1.0108  1.3192  1.3220
  132MOL   H17242354   2.278   0.777   6.956  0.8410 -1.6522  0.7987
  132MOL   H17342355   2.195   0.596   6.875  1.6027 -1.1531 -0.4605
  132MOL   H17442356   2.064   0.378   6.913 -1.6610 -0.4021  0.1423
  132MOL   H17542357   2.010   0.291   7.141 -1.8072  0.2497  1.2636
  132MOL   H17642358   2.104   0.418   7.344 -1.8835 -2.9732 -0.1944
  132MOL   H17742359   2.225   0.610   7.306  0.9800 -1.3851 -0.0033
  132MOL   C17842360   2.203   0.877   7.125 -0.1603 -0.4552  0.3402
  132MOL   C17942361   2.216   1.012   7.054  0.3499  0.4216 -0.5267
  132MOL   C18042362   2.188   0.999   6.906 -0.4959  0.0066  0.1214
  132MOL   C18142363   2.294   0.994   6.821 -0.6002  0.6332 -0.8543
  132MOL   C18242364   2.276   0.969   6.691 -0.2105 -0.9092 -0.2097
  132MOL   C18342365   2.144   0.956   6.639  0.7770 -0.3155 -0.6890
  132MOL   C18442366   2.030   0.953   6.722 -0.4786 -0.6425 -0.4442
  132MOL   C18542367   2.057   0.978   6.860 -0.3070  0.1881  0.6725
  132MOL   H18642368   2.238   0.886   7.227 -2.2292 -3.1160  1.3606
  132MOL   H18742369   2.098   0.848   7.132 -0.7394  0.6126 -2.9594
  132MOL   H18842370   2.320   1.043   7.069  0.9308 -2.1952  1.1469
  132MOL   H18942371   2.392   1.005   6.867 -1.0149  0.5850  0.0499
  132MOL   H19042372   2.363   0.963   6.626 -1.7674  0.8681 -2.5376
  132MOL   H19142373   2.121   0.947   6.534 -2.6735 -1.8636  0.1219
  132MOL   H19242374   1.932   0.939   6.678 -0.8631  1.9069 -0.4378
  132MOL   H19342375   1.972   0.990   6.925 -1.6102  1.0613 -1.1533
  132MOL   C19442376   2.117   1.111   7.117  0.9491 -0.1414 -0.9307
  132MOL   C19542377   2.134   1.164   7.257  0.5424 -0.2452  0.2662
  132MOL   C19642378   2.267   1.234   7.275 -0.2477 -0.3248  0.4695
  132MOL   C19742379   2.370   1.186   7.359  0.2649  0.0614  0.9517
  132MOL   C19842380   2.488   1.254   7.371 -0.7403  0.0571  0.2547
  132MOL   C19942381   2.509   1.377   7.303 -0.0084  0.3115  0.5653
  132MOL   C20042382   2.409   1.422   7.218 -0.0259 -0.5597 -0.1362
  132MOL   C20142383   2.289   1.352   7.206  0.5225 -0.7670  0.1955
  132MOL   H20242384   2.019   1.067   7.101  1.5506 -1.6374 -0.5464
  132MOL   H20342385   2.123   1.201   7.055  0.8152  1.5026  1.3720
  132MOL   H20442386   2.156   1.074   7.314 -0.1749 -0.0187  0.9054
  132MOL   H20542387   2.359   1.101   7.425  0.6433  1.8249  3.3516
  132MOL   H20642388   2.570   1.216   7.430  1.1880  0.7749 -1.8828
  132MOL   H20742389   2.597   1.438   7.312 -0.2656  0.7222  0.2881
  132MOL   H20842390   2.413   1.518   7.169 -0.5963 -1.0243 -1.0848
  132MOL   H20942391   2.217   1.403   7.144  0.2218 -0.2781  0.9412
  132MOL   C21042392   2.010   1.235   7.316 -0.3129  0.1638 -0.1351
  132MOL   C21142393   1.896   1.134   7.360  0.6362  0.7172 -0.1328
  132MOL   C21242394   1.944   1.049   7.479  0.2996  0.1172 -0.3184
  132MOL   C21342395   1.931   0.909   7.483  0.4670 -0.6909  0.7040
  132MOL   C21442396   1.969   0.836   7.596 -0.1311  1.1243  0.5728
  132MOL   C21542397   2.019   0.894   7.708 -0.1829 -0.2359 -0.4986
  132MOL   C21642398   2.036   1.039   7.708 -0.3668 -0.3676  0.4353
  132MOL   C21742399   1.997   1.111   7.596  0.4388 -0.1109  0.1027
  132MOL   H21842400   1.973   1.310   7.247 -1.1201 -2.1611 -2.2991
  132MOL   H21942401   2.043   1.285   7.407  1.6707 -0.4295 -0.5069
  132MOL   H22042402   1.878   1.058   7.284 -0.8014 -1.1039  1.9687
  132MOL   H22142403   1.887   0.854   7.401 -0.6331 -1.3646  1.7405
  132MOL   H22242404   1.941   0.732   7.590 -0.2874  1.3198 -3.2075
  132MOL   H22342405   2.037   0.825   7.790 -1.7064  0.2810  0.2969
  132MOL   H22442406   2.076   1.094   7.792  0.4157 -2.5331  1.5398
  132MOL   H22542407   1.991   1.219   7.603 -3.4704 -0.2704  0.2655
  132MOL   C22642408   1.765   1.209   7.395  0.3479 -0.3258  0.8664
  132MOL   C22742409   1.624   1.140   7.363 -0.4032 -0.6826  0.1183
  132MOL   C22842410   1.535   1.135   7.489  0.0419 -0.0023 -0.0006
  132MOL   C22942411   1.552   1.032   7.587  0.5153  0.1414 -0.1691
  132MOL   C23042412   1.465   1.027   7.699  0.0719 -0.1861 -0.7264
  132MOL   C23142413   1.364   1.125   7.708 -0.3136  0.1104  0.2993
  132MOL   C23242414   1.346   1.229   7.611 -0.6013  0.8805 -0.1988
  132MOL   C23342415   1.431   1.225   7.497  0.0132 -0.0312 -0.9107
  132MOL   H23442416   1.761   1.301   7.337  1.7409 -1.3902 -1.0051
  132MOL   H23542417   1.757   1.243   7.498 -2.8760 -0.4196  0.7047
  132MOL   H23642418   1.649   1.035   7.347  0.3927 -0.5090  0.2070
  132MOL   H23742419   1.624   0.951   7.579 -0.5652 -1.1767  2.8444
  132MOL   H23842420   1.476   0.957   7.780  0.0009 -2.1099 -2.3523
  132MOL   H23942421   1.313   1.135   7.802  0.5975 -0.7578  0.8998
  132MOL   H24042422   1.272   1.306   7.628 -1.1732  0.0187  1.2260
  132MOL   H24142423   1.410   1.300   7.422  1.8343  0.5943 -0.8089
  132MOL   C24242424   1.550   1.197   7.237 -0.2847 -0.3840  0.6763
  132MOL   C24342425   1.604   1.137   7.102  0.0449  0.7044  0.1727
  132MOL   C24442426   1.591   0.988   7.083 -0.7539 -0.1744 -0.0775
  132MOL   C24542427   1.495   0.909   7.142  0.4068  0.3640  0.4363
  132MOL   C24642428   1.472   0.778   7.100 -0.6721  0.2049  0.0841
  132MOL   C24742429   1.538   0.733   6.986 -0.7175  0.0430 -0.1970
  132MOL   C24842430   1.649   0.805   6.936  0.6526  0.5430  0.2719
  132MOL   C24942431   1.669   0.934   6.980  0.0132 -1.0102 -0.4932
  132MOL   H25042432   1.569   1.305   7.234  2.0246 -0.8046 -2.5062
  132MOL   H25142433   1.444   1.175   7.243 -0.6817  1.4155  0.6500
  132MOL   H25242434   1.712   1.153   7.106  0.0324  0.8890 -0.2431
  132MOL   H25342435   1.434   0.949   7.222  0.3233 -1.1121  1.1447
  132MOL   H25442436   1.390   0.720   7.138  0.7504 -1.4126  0.7625
  132MOL   H25542437   1.510   0.641   6.938 -0.5201  0.3039 -0.8222
  132MOL   H25642438   1.698   0.768   6.847 -1.2213 -2.0862  0.2699
  132MOL   H25742439   1.749   0.988   6.931 -0.4183 -1.4687 -1.7095
  132MOL   C25842440   1.544   1.210   6.981  0.0738 -0.1715  0.0879
  132MOL   C25942441   1.639   1.299   6.901 -0.0052  0.7069  0.0796
  132MOL   C26042442   1.574   1.345   6.770 -0.2082 -0.3225 -0.9873
  132MOL   C26142443   1.599   1.276   6.645  0.6772 -0.4059  0.1988
  132MOL   C26242444   1.536   1.328   6.530  0.2584  0.4246 -0.2016
  132MOL   C26342445   1.459   1.450   6.539 -0.3461  0.4156 -0.0759
  132MOL   C26442446   1.436   1.505   6.666 -0.1955 -0.2285 -0.3124
  132MOL   C26542447   1.488   1.456   6.780 -0.2425  0.5691  0.0655
  132MOL   H26642448   1.462   1.275   7.012  1.6791  1.6808  0.5735
  132MOL   H26742449   1.499   1.146   6.905 -1.4877  1.3875 -0.3444
  132MOL   H26842450   1.718   1.232   6.868  1.8308  1.7384  2.2848
  132MOL   H26942451   1.667   1.192   6.639  0.2236 -0.7609  0.0270
  132MOL   H27042452   1.556   1.294   6.429  0.4294  3.0054 -1.0979
  132MOL   H27142453   1.414   1.482   6.446 -1.4950  1.3684  0.7816
  132MOL   H27242454   1.370   1.590   6.676  0.4764  0.2105  0.4850
  132MOL   H27342455   1.471   1.506   6.874 -0.0770  0.2456  0.2647
  132MOL   C27442456   1.698   1.408   6.992  0.2907  0.6252  0.0974
  132MOL   C27542457   1.808   1.497   6.924  0.5088 -0.2047 -0.5051
  132MOL   C27642458   1.821   1.642   6.985 -0.4413  0.4528  0.4566
  132MOL   C27742459   1.716   1.730   6.949 -0.1643 -0.4280 -0.1233
  132MOL   C27842460   1.701   1.855   7.016  0.5539  0.0595 -0.0424
  132MOL   C27942461   1.799   1.898   7.109 -0.2585 -0.5198  0.4988
  132MOL   C28042462   1.911   1.814   7.140  0.2170 -0.8165  0.3139
  132MOL   C28142463   1.919   1.680   7.087 -0.1157 -0.1542  0.0499
  132MOL   H28242464   1.735   1.373   7.088  0.9377 -0.8492 -0.6823
  132MOL   H28342465   1.607   1.462   7.018  0.0095 -0.2163  0.8656
  132MOL   H28442466   1.757   1.512   6.828 -1.5764 -2.2630  0.2369
  132MOL   H28542467   1.638   1.704   6.878  0.7907 -1.3314 -0.8504
  132MOL   H28642468   1.612   1.912   6.993  1.6217  2.8379  2.4305
  132MOL   H28742469   1.796   2.000   7.143  1.8419  0.5343 -2.3729
  132MOL   H28842470   1.993   1.855   7.198  1.0588 -1.5091 -0.3732
  132MOL   H28942471   2.001   1.617   7.117  0.0524 -0.6647 -1.4302
  132MOL   C29042472   1.947   1.429   6.909  0.3442  0.0249  0.7271
  132MOL   C29142473   2.035   1.498   6.812 -0.4670 -0.2259 -0.3583
  132MOL   C29242474   2.189   1.485   6.831  0.5466 -0.4908 -0.7479
  132MOL   C29342475   2.266   1.607   6.838  0.0818 -0.0566 -0.2198
  132MOL   C29442476   2.407   1.590   6.849 -1.1057 -0.3410 -0.1087
  132MOL   C29542477   2.467   1.458   6.869  0.1032 -0.1909  0.5311
  132MOL   C29642478   2.382   1.344   6.870 -0.6273  0.0060 -0.0389
  132MOL   C29742479   2.245   1.362   6.845 -0.2206  0.0491 -0.5047
  132MOL   H29842480   1.930   1.328   6.870  1.3855  0.4398 -0.8802
  132MOL   H29942481   1.995   1.413   7.005 -0.3808  2.3409  1.5142
  132MOL   H30042482   2.018   1.604   6.831  0.4859 -0.1876  0.2929
  132MOL   H30142483   2.221   1.705   6.837  0.0621 -0.0217  1.7053
  132MOL   H30242484   2.470   1.677   6.853  0.6097 -1.6286  1.9845
  132MOL   H30342485   2.573   1.438   6.874  0.3517  1.2937  1.6510
  132MOL   H30442486   2.423   1.247   6.892 -2.6335 -0.4763  1.7926
  132MOL   H30542487   2.188   1.271   6.851 -0.9102  0.3966 -1.7277
  132MOL   C30642488   1.997   1.485   6.665  0.3716 -0.0117 -0.4377
  132MOL   C30742489   2.035   1.354   6.589 -0.2498  0.0796 -0.2391
  132MOL   C30842490   1.954   1.336   6.458 -0.2763  0.3001  0.3089
  132MOL   C30942491   1.902   1.214   6.432  0.5250  0.4684  0.5282
  132MOL   C31042492   1.810   1.196   6.330  0.3008 -0.3532 -0.7189
  132MOL   C31142493   1.786   1.298   6.238 -0.0775 -0.0341  0.3817
  132MOL   C31242494   1.835   1.427   6.263  0.2628 -0.6140  0.1137
  132MOL   C31342495   1.917   1.446   6.374  0.1271  0.4707 -0.5301
  132MOL   H31442496   2.028   1.573   6.607 -1.8746  1.1215  0.0465
  132MOL   H31542497   1.888   1.487   6.669  0.4199 -0.4430  1.0731
  132MOL   H31642498   2.003   1.267   6.648  1.9514 -0.5418  0.0750
  132MOL   H31742499   1.910   1.126   6.495  0.8781  2.0441  2.7379
  132MOL   H31842500   1.783   1.095   6.302  1.0716 -0.9041  0.4966
  132MOL   H31942501   1.732   1.270   6.149 -1.3855  0.4453  1.0128
  132MOL   H32042502   1.807   1.510   6.199  1.6462 -0.4656 -0.3023
  132MOL   H32142503   1.948   1.547   6.395 -0.7878  0.8990 -1.1907
  132MOL   H32242504   2.142   1.339   6.579 -0.5648 -1.9578 -0.7798
  133MOL     C142505   3.342   0.001   1.988  0.3490 -0.1511  0.4415
  133MOL     C242506   3.394   8.045   1.858  0.3121 -0.2831 -0.8294
  133MOL     C342507   3.486   0.014   1.769  0.5925 -0.1071  0.0098
  133MOL     C442508   3.591   0.079   1.839  0.9685 -0.2315  0.4203
  133MOL     C542509   3.674   0.170   1.765 -0.2309  0.5624 -0.8141
  133MOL     C642510   3.637   0.197   1.628 -0.7252  0.1231  0.2125
  133MOL     C742511   3.536   0.133   1.559  1.0892 -0.3413 -0.1844
  133MOL     C842512   3.458   0.040   1.632  0.4621 -0.2019 -0.3820
  133MOL     H942513   3.316   0.107   1.976 -0.8342 -0.3990  0.7709
  133MOL    H1042514   3.252   8.074   2.031  0.2147  0.0408  0.3477
  133MOL    H1142515   3.303   8.033   1.798 -0.5452 -1.9324  0.7535
  133MOL    H1242516   3.595   0.059   1.945  0.7483 -1.3624  0.2197
  133MOL    H1342517   3.755   0.225   1.811 -0.6781 -0.1828  0.9142
  133MOL    H1442518   3.697   0.276   1.584 -0.3743 -0.2162  0.0787
  133MOL    H1542519   3.522   0.137   1.452  3.2805 -2.1081 -0.5987
  133MOL    H1642520   3.373   0.002   1.577 -1.0850  1.1572  1.0136
  133MOL    H1742521   3.425   8.114   2.059  0.8097  0.8888 -0.0596
  133MOL    C1842522   3.461   7.906   1.890  0.0885 -0.8656 -0.7568
  133MOL    C1942523   3.365   7.784   1.917  0.2086  0.2158 -0.3844
  133MOL    C2042524   3.291   7.741   1.789  0.9299  0.3304 -0.3428
  133MOL    C2142525   3.354   7.719   1.668  0.4737 -0.0752 -0.3717
  133MOL    C2242526   3.269   7.680   1.560  0.4716  0.4639  0.2421
  133MOL    C2342527   3.132   7.644   1.581 -0.6502  0.3941  0.5973
  133MOL    C2442528   3.072   7.664   1.706 -0.1089 -0.2152 -1.1535
  133MOL    C2542529   3.153   7.713   1.811 -0.0356  0.1982 -0.5111
  133MOL    H2642530   3.535   7.926   1.968  0.4201 -0.3925 -1.1915
  133MOL    H2742531   3.536   7.885   1.815  2.0968  0.6917  0.7757
  133MOL    H2842532   3.294   7.806   1.996  0.1922  0.3982 -0.4502
  133MOL    H2942533   3.457   7.746   1.656  0.8506 -1.9061 -1.3592
  133MOL    H3042534   3.314   7.684   1.462  0.2761  1.9249  0.2095
  133MOL    H3142535   3.064   7.627   1.499 -1.8255  0.2747  1.5771
  133MOL    H3242536   2.967   7.639   1.717  0.4214 -2.0693 -0.1247
  133MOL    H3342537   3.107   7.727   1.908  2.1186  0.1326  0.5388
  133MOL    C3442538   3.447   7.671   1.980 -0.1308  0.6159 -0.4774
  133MOL    C3542539   3.383   7.595   2.101  0.2237  0.3997  0.4323
  133MOL    C3642540   3.248   7.523   2.086  0.0967  0.5034  0.5987
  133MOL    C3742541   3.237   7.434   1.976 -0.1438 -0.6362 -0.2723
  133MOL    C3842542   3.123   7.352   1.967  0.3027  0.1251 -0.2352
  133MOL    C3942543   3.015   7.369   2.049  0.5232 -0.0886  0.4229
  133MOL    C4042544   3.024   7.462   2.155  0.6232  0.0869  0.3451
  133MOL    C4142545   3.143   7.537   2.178  0.2426 -0.0295 -0.3796
  133MOL    H4242546   3.542   7.713   2.013  0.1001  0.0104 -0.3585
  133MOL    H4342547   3.474   7.590   1.912  0.5959 -1.6067  2.3554
  133MOL    H4442548   3.349   7.673   2.170 -0.5297 -0.2060  0.7541
  133MOL    H4542549   3.310   7.410   1.900  0.5003  0.4648 -0.0117
  133MOL    H4642550   3.111   7.281   1.887 -0.5863  0.7907 -0.6952
  133MOL    H4742551   2.928   7.306   2.032  0.7627 -0.0696 -0.8623
  133MOL    H4842552   2.941   7.482   2.222  0.5065 -1.7844  0.7800
  133MOL    H4942553   3.152   7.603   2.262  0.8692  0.0040 -0.4743
  133MOL    C5042554   3.485   7.499   2.168 -0.4329  0.6074 -0.2570
  133MOL    C5142555   3.602   7.555   2.243  0.3890 -0.5381  0.1365
  133MOL    C5242556   3.576   7.684   2.320  0.5385  0.4222  0.1364
  133MOL    C5342557   3.643   7.804   2.283 -0.5126  0.2782 -1.0112
  133MOL    C5442558   3.614   7.923   2.354 -0.1089  0.1346  0.9619
  133MOL    C5542559   3.537   7.923   2.465  0.8966  0.0532  0.5104
  133MOL    C5642560   3.483   7.804   2.516  0.1458  0.9188  0.4991
  133MOL    C5742561   3.497   7.684   2.441 -0.0504 -0.6263 -0.1171
  133MOL    H5842562   3.512   7.425   2.092 -0.5911 -0.2366  0.4978
  133MOL    H5942563   3.431   7.445   2.245  1.6863 -1.8099 -0.4000
  133MOL    H6042564   3.673   7.600   2.172 -1.2202  0.4648 -0.8702
  133MOL    H6142565   3.706   7.812   2.195 -0.6198 -0.5238 -1.1713
  133MOL    H6242566   3.661   8.016   2.325  0.2229 -0.9212 -2.0429
  133MOL    H6342567   3.531   8.013   2.525 -1.0201  2.3865 -3.0227
  133MOL    H6442568   3.423   7.814   2.605 -0.7788  1.3999 -0.1723
  133MOL    H6542569   3.454   7.593   2.479  0.2253 -1.7867 -2.4710
  133MOL    C6642570   3.680   7.455   2.332 -0.4648  0.4409  0.3393
  133MOL    C6742571   3.775   7.366   2.251 -0.4752 -0.0277  0.7567
  133MOL    C6842572   3.879   7.448   2.186  0.0402  0.1551 -0.3358
  133MOL    C6942573   3.979   7.516   2.259  0.9587  1.0158  0.4703
  133MOL    C7042574   4.068   7.600   2.191 -0.6013 -1.0829  0.1561
  133MOL    C7142575   4.066   7.613   2.052 -0.3285 -0.9532  0.3772
  133MOL    C7242576   3.962   7.550   1.980 -0.0097  0.4379  0.7224
  133MOL    C7342577   3.871   7.466   2.047 -0.2766  0.1620 -0.0657
  133MOL    H7442578   3.603   7.395   2.383 -0.1058 -1.5366 -1.3664
  133MOL    H7542579   3.736   7.504   2.411 -0.8889  0.2663  0.7545
  133MOL    H7642580   3.725   7.319   2.167  0.1696  0.5376  0.0574
  133MOL    H7742581   3.981   7.510   2.367 -1.0784 -1.9917  0.3912
  133MOL    H7842582   4.134   7.660   2.251 -1.3270  2.4571 -2.3590
  133MOL    H7942583   4.140   7.672   2.001 -1.5802 -1.0760 -1.6584
  133MOL    H8042584   3.948   7.555   1.873  3.6420  1.8791  0.2386
  133MOL    H8142585   3.795   7.420   1.986 -0.4035 -1.3562  1.2029
  133MOL    C8242586   3.835   7.255   2.341  0.0474 -0.1771 -0.4858
  133MOL    C8342587   3.887   7.129   2.260  0.0442 -0.5357  0.1575
  133MOL    C8442588   3.972   7.041   2.353  0.2518  0.5328  0.0868
  133MOL    C8542589   3.924   6.998   2.477 -0.3180 -0.0921 -0.3311
  133MOL    C8642590   3.992   6.895   2.544 -0.7883 -0.7871  0.2832
  133MOL    C8742591   4.119   6.852   2.498 -0.1913  0.1723  0.5120
  133MOL    C8842592   4.174   6.901   2.381 -0.4105  0.2604 -0.5576
  133MOL    C8942593   4.096   6.993   2.308 -0.3768 -0.6279  0.4233
  133MOL    H9042594   3.757   7.220   2.409  0.7336  2.5707  1.7874
  133MOL    H9142595   3.903   7.299   2.414 -1.2327  1.0700 -0.0343
  133MOL    H9242596   3.950   7.173   2.182 -1.1090 -0.3867 -0.7045
  133MOL    H9342597   3.825   7.030   2.507  0.2616 -0.4916  2.1836
  133MOL    H9442598   3.948   6.861   2.637 -0.9854  1.3317  1.0102
  133MOL    H9542599   4.170   6.784   2.564  3.4927  0.0028 -2.3320
  133MOL    H9642600   4.276   6.876   2.356 -0.4978 -1.0443  0.3825
  133MOL    H9742601   4.141   7.042   2.223 -1.3209  0.4419  0.5237
  133MOL    C9842602   3.773   7.050   2.194 -0.4289 -0.3985  0.4408
  133MOL    C9942603   3.804   6.981   2.058 -0.2373 -0.1648  0.5919
  133MOL   C10042604   3.872   6.848   2.072  0.4831 -0.2360  0.7233
  133MOL   C10142605   3.796   6.731   2.102  0.5748  0.0123 -0.2388
  133MOL   C10242606   3.853   6.605   2.089  0.6463  0.8351 -0.6414
  133MOL   C10342607   3.991   6.597   2.066  1.0794 -0.3767  0.1544
  133MOL   C10442608   4.069   6.712   2.048  0.0179 -0.0226  0.2072
  133MOL   C10542609   4.009   6.841   2.049  0.1340  0.1088 -0.0920
  133MOL   H10642610   3.690   7.121   2.185  1.5431  2.0373  1.0074
  133MOL   H10742611   3.729   6.979   2.263 -2.1568 -1.0663 -1.2827
  133MOL   H10842612   3.869   7.051   2.004 -0.5369 -0.7484 -0.5439
  133MOL   H10942613   3.689   6.747   2.114  0.5951  1.0348 -1.2722
  133MOL   H11042614   3.794   6.515   2.094  0.2344  1.2315  2.1921
  133MOL   H11142615   4.047   6.505   2.083  1.3770 -0.1269  0.5383
  133MOL   H11242616   4.173   6.699   2.023 -0.1195 -0.7442  0.0078
  133MOL   H11342617   4.065   6.929   2.022 -0.3328  0.2935 -0.4669
  133MOL   C11442618   3.677   6.986   1.969  0.0291 -0.0498 -0.0833
  133MOL   C11542619   3.668   6.926   1.832 -0.2958  0.4513  0.9414
  133MOL   C11642620   3.521   6.925   1.793 -0.1367  0.0619  0.2567
  133MOL   C11742621   3.452   7.045   1.769 -0.5978 -0.3939 -0.8089
  133MOL   C11842622   3.313   7.042   1.741  0.3226 -0.0561 -0.1951
  133MOL   C11942623   3.251   6.915   1.732 -0.2284  0.4657  0.5140
  133MOL   C12042624   3.318   6.794   1.759  0.6979 -0.4552  0.5126
  133MOL   C12142625   3.451   6.798   1.797  0.4041 -0.0722  0.3447
  133MOL   H12242626   3.656   7.093   1.960 -1.1148 -0.1540  1.1682
  133MOL   H12342627   3.597   6.950   2.033 -0.2449  1.3222  0.3694
  133MOL   H12442628   3.688   6.820   1.846  0.2981  0.1275 -2.0029
  133MOL   H12542629   3.498   7.142   1.774 -0.8856 -0.3477  1.4934
  133MOL   H12642630   3.272   7.140   1.723  1.2325  0.6437  1.4214
  133MOL   H12742631   3.151   6.911   1.691  0.3514 -0.3389 -0.8811
  133MOL   H12842632   3.268   6.698   1.752  3.7844 -2.1385  0.5594
  133MOL   H12942633   3.503   6.706   1.820 -1.8588 -1.9239 -1.7109
  133MOL   C13042634   3.748   6.991   1.712  0.7534 -0.2520 -0.1783
  133MOL   C13142635   3.890   6.940   1.697 -0.1543 -1.0116  0.2996
  133MOL   C13242636   3.907   6.792   1.672  0.2432  0.6623  0.1139
  133MOL   C13342637   3.816   6.713   1.598 -0.0287 -0.3925  0.1861
  133MOL   C13442638   3.848   6.576   1.572 -0.2776 -0.2734  0.0745
  133MOL   C13542639   3.967   6.513   1.614  0.5787 -0.2297  0.7794
  133MOL   C13642640   4.056   6.589   1.692 -0.5262  0.2857 -0.3020
  133MOL   C13742641   4.027   6.722   1.714  0.3591 -0.2249 -0.4041
  133MOL   H13842642   3.752   7.099   1.728  0.2782 -0.4944  1.7315
  133MOL   H13942643   3.704   6.975   1.614  0.7158  1.5394 -0.4749
  133MOL   H14042644   3.944   6.967   1.787 -1.3812 -0.2279  0.8255
  133MOL   H14142645   3.734   6.765   1.551 -0.8013 -0.3873  1.5322
  133MOL   H14242646   3.770   6.530   1.514  0.1929  2.5991 -3.0639
  133MOL   H14342647   3.993   6.414   1.578 -0.8410 -0.4264  0.2352
  133MOL   H14442648   4.154   6.553   1.721  0.1619  0.8388 -1.8719
  133MOL   H14542649   4.103   6.780   1.764 -1.7466  0.6191  1.9315
  133MOL   C14642650   3.956   7.029   1.587  0.0355  0.9493  0.5234
  133MOL   C14742651   4.009   7.167   1.630  0.0718 -0.1878 -0.2152
  133MOL   C14842652   4.113   7.152   1.746  0.1370 -0.0160  0.1775
  133MOL   C14942653   4.242   7.093   1.725  0.2107  0.7169  0.2827
  133MOL   C15042654   4.328   7.062   1.834 -0.8812 -0.1642 -0.5544
  133MOL   C15142655   4.296   7.109   1.962 -1.0369 -0.6146 -0.3346
  133MOL   C15242656   4.180   7.190   1.979 -0.0786  0.0364 -0.0602
  133MOL   C15342657   4.082   7.201   1.880 -0.4349  0.1521 -0.3791
  133MOL   H15442658   3.877   7.039   1.512  2.2343  1.0694 -1.8245
  133MOL   H15542659   4.039   6.971   1.547 -1.7919 -0.2920 -1.5956
  133MOL   H15642660   3.927   7.220   1.681  1.1864  2.7563 -1.3784
  133MOL   H15742661   4.261   7.054   1.626 -0.7532  0.5780  0.1458
  133MOL   H15842662   4.426   7.023   1.810  0.2531  1.4697  1.2140
  133MOL   H15942663   4.353   7.095   2.052 -0.8249  0.9655 -0.2133
  133MOL   H16042664   4.163   7.232   2.078  0.3814 -0.0020  0.0351
  133MOL   H16142665   3.985   7.244   1.903 -1.2984 -1.6996 -0.5131
  133MOL   C16242666   4.058   7.261   1.523  0.1357 -0.1544 -0.0789
  133MOL   C16342667   3.944   7.312   1.430  0.2268  0.1012  0.2486
  133MOL   C16442668   3.837   7.381   1.510 -0.2337  0.0101  0.6538
  133MOL   C16542669   3.869   7.511   1.562  0.6747  0.3955  0.1382
  133MOL   C16642670   3.765   7.580   1.627  0.4558  0.2566 -0.0323
  133MOL   C16742671   3.637   7.519   1.652 -0.3506 -0.6126 -0.6563
  133MOL   C16842672   3.616   7.393   1.596 -0.2465  0.4916 -0.1674
  133MOL   C16942673   3.710   7.324   1.525 -0.9665 -0.4189 -0.3445
  133MOL   H17042674   4.137   7.202   1.478  0.0063 -1.1655  1.0103
  133MOL   H17142675   4.103   7.352   1.564  0.6593  0.3939 -1.8417
  133MOL   H17242676   3.898   7.218   1.399 -1.4060  0.5469  1.3375
  133MOL   H17342677   3.965   7.559   1.550  0.6820  0.6273  1.0909
  133MOL   H17442678   3.789   7.672   1.678  0.4327 -0.4684  1.3045
  133MOL   H17542679   3.571   7.572   1.718 -1.3487 -0.0186 -2.1017
  133MOL   H17642680   3.517   7.354   1.616 -0.6176 -0.0218 -2.8874
  133MOL   H17742681   3.691   7.229   1.477  0.6258 -0.1117 -1.6589
  133MOL   C17842682   4.003   7.384   1.301 -0.4767 -0.5604 -0.3643
  133MOL   C17942683   3.916   7.471   1.213  0.0623  0.0973 -0.1227
  133MOL   C18042684   4.014   7.560   1.135  0.9844 -0.0298 -0.9144
  133MOL   C18142685   4.020   7.700   1.160 -0.1598 -0.4474 -0.3883
  133MOL   C18242686   4.106   7.777   1.086  0.3470 -0.7093  0.3819
  133MOL   C18342687   4.191   7.722   0.986 -0.0706  0.0729 -0.2281
  133MOL   C18442688   4.191   7.585   0.969  0.2043  0.6496 -0.1490
  133MOL   C18542689   4.101   7.504   1.047 -0.1483 -1.0801 -0.0385
  133MOL   H18642690   4.048   7.307   1.238 -0.1854  0.6932 -1.7146
  133MOL   H18742691   4.084   7.450   1.330 -2.0794  1.4636 -0.3853
  133MOL   H18842692   3.862   7.537   1.280  1.4795  0.3951  0.7533
  133MOL   H18942693   3.952   7.746   1.230  1.3152  0.0269  0.7616
  133MOL   H19042694   4.091   7.884   1.086 -1.6303 -0.9562  2.1039
  133MOL   H19142695   4.252   7.795   0.935  0.2287 -0.4709 -0.6461
  133MOL   H19242696   4.245   7.543   0.885 -1.3280 -0.1104 -0.7771
  133MOL   H19342697   4.087   7.400   1.024 -1.3818 -0.9039 -0.1208
  133MOL   C19442698   3.810   7.403   1.127  0.1221  0.6515  0.0299
  133MOL   C19542699   3.668   7.455   1.155 -0.0403 -0.1176 -0.6508
  133MOL   C19642700   3.666   7.608   1.160 -0.5809 -0.2038  0.0653
  133MOL   C19742701   3.700   7.691   1.050  0.1975  0.2125 -0.1263
  133MOL   C19842702   3.705   7.827   1.061 -0.3691 -0.5769 -0.0534
  133MOL   C19942703   3.651   7.892   1.173 -0.2537 -0.6629  0.4296
  133MOL   C20042704   3.616   7.813   1.287  0.5004  0.0305  0.9167
  133MOL   C20142705   3.625   7.673   1.281 -0.2213  0.0214 -0.2325
  133MOL   H20242706   3.813   7.296   1.148  1.7888  0.7259  0.2399
  133MOL   H20342707   3.839   7.400   1.022 -1.3955  1.0228 -0.4074
  133MOL   H20442708   3.639   7.407   1.249 -0.2311 -0.9719 -1.1420
  133MOL   H20542709   3.731   7.637   0.962  0.3073  0.1918 -0.0745
  133MOL   H20642710   3.719   7.881   0.968 -0.4350  0.8084  0.7179
  133MOL   H20742711   3.646   7.999   1.181  0.1991 -0.5480 -0.7446
  133MOL   H20842712   3.569   7.850   1.377 -0.9148  1.0625 -0.2266
  133MOL   H20942713   3.596   7.611   1.364 -0.3467 -1.1136 -1.1051
  133MOL   C21042714   3.574   7.404   1.042  0.8605  0.6365 -1.0007
  133MOL   C21142715   3.433   7.457   1.049 -0.1276 -0.4014  0.3582
  133MOL   C21242716   3.369   7.438   0.917  0.1662  0.7190  0.6110
  133MOL   C21342717   3.348   7.308   0.867  0.2943  0.5151 -0.2150
  133MOL   C21442718   3.291   7.286   0.735 -0.6212  1.0988  0.0453
  133MOL   C21542719   3.255   7.397   0.653 -0.2338  0.0294  0.0653
  133MOL   C21642720   3.275   7.531   0.706  0.0821  0.1668  1.3454
  133MOL   C21742721   3.326   7.551   0.835  0.5534 -0.3657 -0.2985
  133MOL   H21842722   3.582   7.295   1.041 -1.2696  0.4601 -0.9128
  133MOL   H21942723   3.611   7.434   0.944 -0.9067  0.1054 -1.8593
  133MOL   H22042724   3.446   7.565   1.051 -0.0076 -0.4236  1.2574
  133MOL   H22142725   3.377   7.219   0.921 -0.5833 -1.1532 -2.4049
  133MOL   H22242726   3.266   7.183   0.714  1.3263  0.4064  0.9591
  133MOL   H22342727   3.203   7.375   0.560  2.3206 -2.0286 -0.9372
  133MOL   H22442728   3.243   7.615   0.645 -2.4909 -1.6167  0.1334
  133MOL   H22542729   3.323   7.645   0.889  0.8988 -0.5788  0.0895
  133MOL   C22642730   3.346   7.408   1.168 -0.3422  0.6568  0.1722
  133MOL   C22742731   3.199   7.452   1.145 -0.4150  0.7230  0.6650
  133MOL   C22842732   3.115   7.377   1.242  0.4862 -0.4065 -0.2945
  133MOL   C22942733   3.013   7.295   1.187 -0.4921  0.1936 -0.2444
  133MOL   C23042734   2.923   7.219   1.268 -0.1729 -0.9362  0.3159
  133MOL   C23142735   2.939   7.232   1.411  0.9068 -0.6254 -0.4056
  133MOL   C23242736   3.046   7.310   1.464  0.0962 -0.0373  0.1500
  133MOL   C23342737   3.138   7.379   1.384 -0.8990  0.6796 -0.1658
  133MOL   H23442738   3.380   7.442   1.266  0.2204 -1.1353  0.6261
  133MOL   H23542739   3.342   7.299   1.166 -1.7431  0.7140 -0.5362
  133MOL   H23642740   3.166   7.419   1.046 -1.5614  0.1670  1.2238
  133MOL   H23742741   3.001   7.284   1.080 -2.3356  1.2189 -0.1699
  133MOL   H23842742   2.850   7.160   1.215 -0.4126  0.8845 -1.4419
  133MOL   H23942743   2.878   7.173   1.478  1.6805 -0.0593  0.8187
  133MOL   H24042744   3.051   7.323   1.571  0.9114 -2.9451  0.4891
  133MOL   H24142745   3.225   7.427   1.426  0.6254 -2.0517 -0.1125
  133MOL   C24242746   3.179   7.611   1.139 -0.6677  0.0969 -0.0784
  133MOL   C24342747   3.044   7.652   1.077  0.1241 -0.2522  0.0104
  133MOL   C24442748   2.923   7.639   1.168  0.1730  0.1201  0.5884
  133MOL   C24542749   2.821   7.547   1.135  0.0631 -0.1079  0.5327
  133MOL   C24642750   2.705   7.537   1.222  0.3897 -0.8208  0.2427
  133MOL   C24742751   2.708   7.608   1.347  0.5150 -0.0469 -0.1563
  133MOL   C24842752   2.812   7.700   1.376  0.4045 -0.1462  0.2324
  133MOL   C24942753   2.918   7.714   1.285 -0.1055  0.1413  0.2946
  133MOL   H25042754   3.245   7.662   1.069 -1.1793 -0.0832 -0.6864
  133MOL   H25142755   3.202   7.670   1.228  2.5818  1.2900 -1.6321
  133MOL   H25242756   3.017   7.582   0.998 -1.8490  0.7557 -0.2254
  133MOL   H25342757   2.834   7.479   1.052 -1.5111  1.9303 -1.4411
  133MOL   H25442758   2.629   7.466   1.193 -0.9422  1.0014 -0.8720
  133MOL   H25542759   2.620   7.600   1.410  1.8623  0.3368  1.8338
  133MOL   H25642760   2.803   7.750   1.470 -0.0756  1.5096 -0.6766
  133MOL   H25742761   2.998   7.780   1.314  2.2554 -1.3566 -2.5735
  133MOL   C25842762   3.066   7.791   1.015 -0.0795  0.0302  0.1638
  133MOL   C25942763   2.940   7.871   0.969  0.3602 -0.3134  0.7608
  133MOL   C26042764   2.968   8.016   0.985  0.3818  0.9767  0.5903
  133MOL   C26142765   2.886   8.097   1.069  0.0544  0.3637  0.0609
  133MOL   C26242766   2.894   0.120   1.059 -0.3949 -0.0477  0.1262
  133MOL   C26342767   2.983   0.183   0.971 -0.5187  0.0544  0.3716
  133MOL   C26442768   3.070   0.104   0.891  0.5607  0.0752  0.0342
  133MOL   C26542769   3.061   8.080   0.904  0.1519 -0.0430  1.1383
  133MOL   H26642770   3.138   7.784   0.934 -0.5857  0.0805 -0.2903
  133MOL   H26742771   3.119   7.852   1.089  3.7569 -0.4120 -2.0941
  133MOL   H26842772   2.873   7.840   1.049  1.7258 -1.2049  1.5599
  133MOL   H26942773   2.817   8.049   1.137  0.4067  0.4633  0.4991
  133MOL   H27042774   2.834   0.182   1.124 -0.1904  0.1561  0.1246
  133MOL   H27142775   2.984   0.291   0.982  1.6951  0.0129  0.9665
  133MOL   H27242776   3.144   0.148   0.825  0.3282  1.7844  0.9033
  133MOL   H27342777   3.117   8.021   0.832 -0.6156 -0.0715  0.5591
  133MOL   C27442778   2.875   7.825   0.837 -0.0437  0.5131  0.1620
  133MOL   C27542779   2.722   7.854   0.823  0.1096  0.8419  0.4114
  133MOL   C27642780   2.701   7.929   0.690  0.2127  0.8830 -0.2776
  133MOL   C27742781   2.642   8.056   0.704 -0.6177 -0.6195 -0.5355
  133MOL   C27842782   2.625   0.019   0.590 -0.3501 -0.5992 -0.5785
  133MOL   C27942783   2.675   8.095   0.466 -0.2811 -0.2737 -0.5754
  133MOL   C28042784   2.727   7.964   0.446  0.0920  0.6262 -0.3588
  133MOL   C28142785   2.740   7.881   0.563 -0.4060 -0.7034  0.0887
  133MOL   H28242786   2.888   7.717   0.826  0.6951  0.7623 -1.4511
  133MOL   H28342787   2.939   7.864   0.759  1.8779 -0.5966  1.1579
  133MOL   H28442788   2.689   7.911   0.910  1.1677  0.8939  0.7842
  133MOL   H28542789   2.611   8.090   0.801 -0.1038 -0.7327 -0.3303
  133MOL   H28642790   2.581   0.117   0.593 -0.0130 -0.4883  1.3925
  133MOL   H28742791   2.662   0.058   0.393 -0.8449  1.4659  1.3340
  133MOL   H28842792   2.750   7.937   0.344 -1.1887  0.0548 -0.4930
  133MOL   H28942793   2.790   7.787   0.544 -0.9764 -0.8995 -0.4586
  133MOL   C29042794   2.643   7.717   0.831 -0.2915  0.4049  0.0058
  133MOL   C29142795   2.488   7.726   0.812 -0.5672  0.1586  0.2163
  133MOL   C29242796   2.423   7.594   0.770 -0.1401  0.2129 -0.0488
  133MOL   C29342797   2.480   7.468   0.799  0.2045  0.2459  0.6228
  133MOL   C29442798   2.422   7.345   0.765 -0.1585 -0.3663  0.2025
  133MOL   C29542799   2.304   7.352   0.688  0.3731  0.1013 -0.0719
  133MOL   C29642800   2.237   7.473   0.663 -0.0003  0.4685 -0.0821
  133MOL   C29742801   2.298   7.589   0.709  0.0287  0.5185  0.5991
  133MOL   H29842802   2.678   7.656   0.914  0.7185  0.3237 -0.4698
  133MOL   H29942803   2.685   7.666   0.744 -0.9124 -1.2977  0.6889
  133MOL   H30042804   2.481   7.788   0.723 -3.3179 -0.3625  0.0487
  133MOL   H30142805   2.573   7.467   0.855  1.0667 -0.8058 -0.7877
  133MOL   H30242806   2.478   7.258   0.795  0.4128 -0.1802 -0.2918
  133MOL   H30342807   2.248   7.261   0.675  0.3203  0.1395 -0.1145
  133MOL   H30442808   2.138   7.469   0.619  0.4633 -0.9494 -1.0304
  133MOL   H30542809   2.252   7.686   0.695 -1.4935 -0.1965  0.5670
  133MOL   C30642810   2.417   7.786   0.934  0.4159 -0.4758 -0.0347
  133MOL   C30742811   2.416   7.702   1.065  0.2442  0.5032 -0.3349
  133MOL   C30842812   2.347   7.767   1.185 -0.3032  1.0119 -0.0258
  133MOL   C30942813   2.245   7.708   1.251 -0.6135 -0.6565 -0.5372
  133MOL   C31042814   2.191   7.763   1.369  0.3594  0.2951  0.0284
  133MOL   C31142815   2.250   7.881   1.416 -0.4619 -0.0343  1.2313
  133MOL   C31242816   2.350   7.945   1.338 -0.0863  0.6431  0.1578
  133MOL   C31342817   2.402   7.890   1.224 -0.8962 -0.3525  0.4219
  133MOL   H31442818   2.315   7.809   0.903  0.0668 -1.5455  0.2927
  133MOL   H31542819   2.464   7.882   0.957  2.1251 -0.6150 -2.6772
  133MOL   H31642820   2.520   7.694   1.097 -0.0961 -1.4586  0.3437
  133MOL   H31742821   2.204   7.616   1.211 -0.3943 -0.5621 -0.9814
  133MOL   H31842822   2.127   7.707   1.436 -0.3240 -1.3178 -1.9322
  133MOL   H31942823   2.208   7.922   1.506 -1.9132  2.4796 -0.5176
  133MOL   H32042824   2.394   8.036   1.375 -0.5901  0.9054  0.1182
  133MOL   H32142825   2.481   7.943   1.174 -0.6364  0.0706  1.2794
  133MOL   H32242826   2.379   7.600   1.050  0.1222  0.2794  1.4031
  134MOL     C142827   2.661   5.517   6.865 -0.9962  0.0281  0.7140
  134MOL     C242828   2.790   5.606   6.906 -0.0918 -0.8516 -0.1145
  134MOL     C342829   2.746   5.704   7.013 -0.2006 -0.2274 -0.4444
  134MOL     C442830   2.717   5.835   6.987  0.2682  0.1762 -0.6799
  134MOL     C542831   2.692   5.923   7.098  0.2744 -0.0262 -0.0207
  134MOL     C642832   2.670   5.882   7.227  0.2517  1.0216  0.7980
  134MOL     C742833   2.697   5.746   7.256 -0.0935  0.0042 -0.8754
  134MOL     C842834   2.735   5.659   7.150  0.8756  0.4349 -0.1532
  134MOL     H942835   2.623   5.456   6.948 -0.3711 -1.1651  0.1425
  134MOL    H1042836   2.578   5.583   6.843  0.0772  0.8815 -0.8679
  134MOL    H1142837   2.822   5.669   6.823  0.7101 -2.3070 -0.9412
  134MOL    H1242838   2.718   5.870   6.884  0.2983 -1.4025 -1.2221
  134MOL    H1342839   2.681   6.030   7.084  0.4471 -0.0958 -0.6988
  134MOL    H1442840   2.643   5.952   7.305 -1.4671  0.1247  1.0254
  134MOL    H1542841   2.679   5.719   7.359  2.6958  0.7743 -0.1412
  134MOL    H1642842   2.736   5.556   7.182 -4.1388  0.4143  0.2744
  134MOL    H1742843   2.667   5.461   6.772  2.4613  0.2345  0.7513
  134MOL    C1842844   2.911   5.511   6.945  0.6400 -1.1086  0.3783
  134MOL    C1942845   2.992   5.460   6.819 -0.3700  0.2594  0.5080
  134MOL    C2042846   3.082   5.562   6.763  0.0276 -0.4096  0.3514
  134MOL    C2142847   3.034   5.637   6.655  0.8853 -0.7824 -0.0181
  134MOL    C2242848   3.108   5.736   6.591  0.6652  0.3577 -0.1697
  134MOL    C2342849   3.243   5.753   6.636  0.0996  0.1759 -0.4751
  134MOL    C2442850   3.303   5.665   6.725 -0.0087 -0.4937  0.1718
  134MOL    C2542851   3.219   5.574   6.798  0.2238 -0.3233  0.1614
  134MOL    H2642852   2.862   5.433   7.004  0.3649 -0.6719  0.7248
  134MOL    H2742853   2.990   5.555   7.006  1.0527 -1.3312  0.0093
  134MOL    H2842854   2.915   5.424   6.751  0.7006 -4.9583  1.8361
  134MOL    H2942855   2.932   5.617   6.624  0.8909 -1.8406  0.6411
  134MOL    H3042856   3.057   5.798   6.519  1.4569 -0.8250 -1.8049
  134MOL    H3142857   3.293   5.837   6.590 -0.3601  0.1292 -1.0698
  134MOL    H3242858   3.407   5.682   6.749 -0.4881  0.6788  1.5233
  134MOL    H3342859   3.263   5.514   6.877 -0.8095 -1.6666 -0.2628
  134MOL    C3442860   3.068   5.328   6.850  0.2450 -0.4217  0.3114
  134MOL    C3542861   2.980   5.209   6.905  0.4138  0.7931 -0.6796
  134MOL    C3642862   2.852   5.171   6.827  0.8008 -0.2805 -0.0928
  134MOL    C3742863   2.729   5.134   6.893  0.1349 -0.4735  0.1212
  134MOL    C3842864   2.606   5.100   6.826  0.0354 -0.0739  0.2448
  134MOL    C3942865   2.614   5.092   6.686 -0.3488  0.0257  0.0447
  134MOL    C4042866   2.734   5.126   6.617 -0.1908 -0.1981 -0.0193
  134MOL    C4142867   2.849   5.175   6.684  0.3737 -0.0836 -0.3766
  134MOL    H4242868   3.144   5.338   6.928 -0.1876 -1.5123  0.8693
  134MOL    H4342869   3.121   5.294   6.760 -0.3721  0.1355 -0.2679
  134MOL    H4442870   2.958   5.228   7.010 -1.3964 -1.5998 -0.5753
  134MOL    H4542871   2.736   5.130   7.001 -0.8800 -0.6079  0.1783
  134MOL    H4642872   2.523   5.068   6.887 -0.2298 -1.5772 -0.8689
  134MOL    H4742873   2.524   5.065   6.632  1.2333  0.4545 -2.8815
  134MOL    H4842874   2.735   5.122   6.509 -0.2567 -3.0562  0.0490
  134MOL    H4942875   2.928   5.217   6.624 -0.3737 -1.0278 -2.0633
  134MOL    C5042876   3.065   5.078   6.914 -0.4710  0.4877  0.2310
  134MOL    C5142877   3.024   4.979   7.024 -0.0349 -0.4281  0.6516
  134MOL    C5242878   2.948   4.863   6.961 -0.4580  0.7558  0.0267
  134MOL    C5342879   3.014   4.764   6.882  0.2808 -0.5447 -0.4495
  134MOL    C5442880   2.941   4.655   6.831  0.1747  0.0376  0.6258
  134MOL    C5542881   2.806   4.634   6.862  0.2853  0.4164  0.7108
  134MOL    C5642882   2.741   4.739   6.940 -0.1232 -0.5622  0.3214
  134MOL    C5742883   2.812   4.850   6.986 -1.1575  0.3533 -0.2700
  134MOL    H5842884   3.160   5.117   6.951 -0.1061  0.0214 -0.2003
  134MOL    H5942885   3.090   5.035   6.817  1.0692  0.3479  0.6758
  134MOL    H6042886   2.956   5.022   7.097  0.9580  1.4475  0.5057
  134MOL    H6142887   3.118   4.767   6.854  0.9570 -2.7626  1.5964
  134MOL    H6242888   3.002   4.580   6.782 -0.6366 -1.4840  1.8613
  134MOL    H6342889   2.747   4.553   6.822  1.7747 -1.5089  2.2677
  134MOL    H6442890   2.637   4.726   6.967  0.2000 -0.1505  1.8026
  134MOL    H6542891   2.771   4.924   7.054 -1.5968 -0.3956  0.2771
  134MOL    C6642892   3.144   4.927   7.106  0.4150  0.5275  0.9583
  134MOL    C6742893   3.175   4.996   7.243  0.2790  0.6273 -0.0735
  134MOL    C6842894   3.190   5.144   7.226  0.4651  0.7392  0.3460
  134MOL    C6942895   3.303   5.199   7.159  0.2332  0.4144 -0.1520
  134MOL    C7042896   3.313   5.337   7.138  0.2632 -0.2634 -0.3284
  134MOL    C7142897   3.224   5.420   7.204  0.7924  0.0247 -0.0573
  134MOL    C7242898   3.115   5.369   7.272  0.6079 -0.0833  0.3838
  134MOL    C7342899   3.089   5.230   7.280  0.4104  0.0156  0.1502
  134MOL    H7442900   3.235   4.922   7.046 -0.9703  0.3178 -1.2023
  134MOL    H7542901   3.134   4.819   7.121 -0.2606  0.4058 -0.2472
  134MOL    H7642902   3.273   4.966   7.281  0.0260  0.7437  0.6820
  134MOL    H7742903   3.363   5.128   7.104 -0.4165  0.3832 -0.8320
  134MOL    H7842904   3.390   5.381   7.076 -0.3188 -0.8934 -1.5218
  134MOL    H7942905   3.240   5.526   7.198  0.1954  0.2765  2.5020
  134MOL    H8042906   3.038   5.430   7.318 -0.2200 -0.4648 -0.4732
  134MOL    H8142907   3.010   5.200   7.347 -0.7727  0.6913 -0.9172
  134MOL    C8242908   3.073   4.945   7.350 -0.3118 -0.6316 -0.0861
  134MOL    C8342909   3.103   4.801   7.391 -0.4950 -0.1259  0.1763
  134MOL    C8442910   3.237   4.788   7.470 -0.5395 -0.3300  0.0456
  134MOL    C8542911   3.238   4.843   7.599  0.5366  0.1569  0.1391
  134MOL    C8642912   3.347   4.814   7.688 -0.3804 -0.6293 -0.0364
  134MOL    C8742913   3.459   4.736   7.641 -0.5882  0.5520 -0.2025
  134MOL    C8842914   3.458   4.692   7.504  0.4597  0.7151 -0.4763
  134MOL    C8942915   3.348   4.723   7.427  0.4743  0.4145  0.1583
  134MOL    H9042916   2.974   4.957   7.305  0.4162 -2.8129 -2.4372
  134MOL    H9142917   3.084   5.012   7.434  0.1074  3.2434 -3.0924
  134MOL    H9242918   3.110   4.743   7.299 -0.2551 -0.5987  0.4939
  134MOL    H9342919   3.160   4.909   7.635 -0.2796 -1.4449  1.3556
  134MOL    H9442920   3.341   4.843   7.792  0.3839 -0.3995 -0.0511
  134MOL    H9542921   3.538   4.719   7.712 -0.9771  0.6421  0.2600
  134MOL    H9642922   3.536   4.623   7.475 -1.2271 -1.4382  0.0082
  134MOL    H9742923   3.353   4.684   7.327  3.5356  1.2126 -0.0361
  134MOL    C9842924   2.987   4.730   7.466  0.0380 -0.1041 -0.7109
  134MOL    C9942925   2.982   4.575   7.467 -0.1523  0.7119 -0.0246
  134MOL   C10042926   2.856   4.523   7.532 -0.4573  0.2539 -0.0249
  134MOL   C10142927   2.738   4.528   7.460  0.2695  0.1870  0.1444
  134MOL   C10242928   2.615   4.492   7.525 -0.1456 -0.4871 -0.4872
  134MOL   C10342929   2.609   4.457   7.666 -0.8925 -0.1179  0.3108
  134MOL   C10442930   2.736   4.456   7.730  0.3075 -0.8658 -0.1270
  134MOL   C10542931   2.857   4.489   7.666  0.1554 -1.2191 -0.0129
  134MOL   H10642932   2.895   4.779   7.435 -1.0353 -0.2740  2.0682
  134MOL   H10742933   3.002   4.761   7.569  2.2927  0.9569 -1.3302
  134MOL   H10842934   3.061   4.544   7.535 -0.4400 -1.1717 -0.5073
  134MOL   H10942935   2.736   4.568   7.360  0.0523  0.4037  0.2342
  134MOL   H11042936   2.525   4.499   7.465 -1.3348  2.2026  1.5035
  134MOL   H11142937   2.513   4.435   7.709 -1.7302 -1.9804 -2.3956
  134MOL   H11242938   2.732   4.431   7.834 -2.2524  2.5434  0.6788
  134MOL   H11342939   2.951   4.503   7.718 -1.2113  2.8269  1.5444
  134MOL   C11442940   3.007   4.517   7.321 -0.2272 -0.3913 -0.1753
  134MOL   C11542941   2.992   4.365   7.299 -0.0250  0.5289  0.2096
  134MOL   C11642942   2.987   4.328   7.150 -0.0688 -0.0011  0.1800
  134MOL   C11742943   2.885   4.247   7.098  0.0443 -0.3782  0.1663
  134MOL   C11842944   2.886   4.217   6.963  0.4451 -0.0526 -0.0350
  134MOL   C11942945   2.983   4.274   6.878  0.4741 -0.2199  0.1098
  134MOL   C12042946   3.080   4.361   6.928 -0.2978 -0.3806 -0.3008
  134MOL   C12142947   3.087   4.381   7.068 -0.4196  0.1971  0.2780
  134MOL   H12242948   3.099   4.561   7.283 -0.2473 -0.7103 -0.6071
  134MOL   H12342949   2.926   4.566   7.267  0.9534 -0.1623 -1.7739
  134MOL   H12442950   2.902   4.327   7.348  0.0822 -0.2899 -0.2062
  134MOL   H12542951   2.807   4.206   7.161 -0.9892 -1.4089 -1.7259
  134MOL   H12642952   2.810   4.152   6.924  0.6361 -0.6132  0.5074
  134MOL   H12742953   2.987   4.240   6.775  5.4248 -1.3325  0.5263
  134MOL   H12842954   3.151   4.404   6.859 -0.3708  0.8464  0.3705
  134MOL   H12942955   3.161   4.444   7.114 -2.4777  2.8551  0.0649
  134MOL   C13042956   3.102   4.285   7.373 -0.5515 -1.0089  0.0052
  134MOL   C13142957   3.054   4.220   7.505 -0.4600 -0.3594 -0.2384
  134MOL   C13242958   2.940   4.124   7.480 -0.5070  0.3920  0.2849
  134MOL   C13342959   2.816   4.111   7.551 -0.4794  0.1879  1.0336
  134MOL   C13442960   2.721   4.013   7.528  1.0796 -0.2800  0.2139
  134MOL   C13542961   2.740   3.920   7.419  0.5522  0.1275 -0.1832
  134MOL   C13642962   2.858   3.927   7.350 -0.1735  0.3293  0.1203
  134MOL   C13742963   2.953   4.024   7.377 -0.8374  0.3306  0.4976
  134MOL   H13842964   3.183   4.354   7.395 -0.9138 -0.1841 -1.2228
  134MOL   H13942965   3.141   4.218   7.297 -0.8887 -0.4270 -0.6825
  134MOL   H14042966   3.004   4.298   7.563 -2.3767 -2.0136  0.3712
  134MOL   H14142967   2.797   4.181   7.631 -1.8619  0.4438  0.4937
  134MOL   H14242968   2.640   4.015   7.599 -0.5441 -1.4810 -1.5609
  134MOL   H14342969   2.669   3.841   7.397  2.6075 -1.5980 -0.7969
  134MOL   H14442970   2.870   3.861   7.265  0.6461  0.5700  0.0489
  134MOL   H14542971   3.040   4.020   7.313 -0.5468 -3.1961  0.9898
  134MOL   C14642972   3.166   4.145   7.590 -0.2343  0.1797  0.2214
  134MOL   C14742973   3.255   4.239   7.675  0.5142  0.0348  0.5435
  134MOL   C14842974   3.180   4.339   7.765  0.3809  0.0942 -0.4580
  134MOL   C14942975   3.212   4.478   7.773 -0.0310 -0.3236  0.0045
  134MOL   C15042976   3.151   4.559   7.873  0.4710  0.0944  0.0794
  134MOL   C15142977   3.064   4.508   7.965 -0.3345 -0.7185 -0.0438
  134MOL   C15242978   3.025   4.373   7.950  0.1075  0.1428 -0.2148
  134MOL   C15342979   3.083   4.291   7.855  0.5437  0.8943  0.2909
  134MOL   H15442980   3.229   4.077   7.532 -0.9246 -1.6123  1.5056
  134MOL   H15542981   3.126   4.067   7.655 -0.0595 -1.3520 -1.4625
  134MOL   H15642982   3.294   4.308   7.600  2.5098 -1.8604 -0.2555
  134MOL   H15742983   3.286   4.523   7.708 -0.9898 -0.1236 -0.9605
  134MOL   H15842984   3.171   4.665   7.871  0.1005  0.1503 -0.8111
  134MOL   H15942985   3.012   4.582   8.026  0.8391  0.9774 -1.0529
  134MOL   H16042986   2.945   4.343   8.016 -0.5868 -0.3905 -1.2894
  134MOL   H16142987   3.043   4.190   7.848 -2.4289  2.0987 -1.0562
  134MOL   C16242988   3.366   4.168   7.758  0.6161  0.2250  0.0526
  134MOL   C16342989   3.424   4.228   7.890  0.0802 -0.0590  0.5060
  134MOL   C16442990   3.484   4.114   7.966  0.4415 -0.3682 -0.4377
  134MOL   C16542991   3.588   4.025   7.918  0.2874  0.2932 -0.3158
  134MOL   C16642992   3.655   3.938   8.003  0.4072  0.7815 -0.1182
  134MOL   C16742993   3.614   3.919   0.020  0.5190 -0.1002 -0.4531
  134MOL   C16842994   3.513   4.002   0.070 -0.1607 -0.3015 -0.4864
  134MOL   C16942995   3.445   4.093   8.102  0.4723  0.1317 -0.4095
  134MOL   H17042996   3.444   4.130   7.691 -0.2693 -0.1753 -0.7618
  134MOL   H17142997   3.323   4.073   7.791  3.1085 -1.8066 -2.2289
  134MOL   H17242998   3.332   4.266   7.934  0.4956 -0.7726  2.0012
  134MOL   H17342999   3.625   4.044   7.818 -0.0238  0.0036 -0.4862
  134MOL   H17443000   3.747   3.890   7.974  2.1467  0.5316  5.2077
  134MOL   H17543001   3.669   3.858   0.090  1.8269 -1.4288 -2.5906
  134MOL   H17643002   3.481   3.988   0.172 -1.1695 -0.7218 -0.8555
  134MOL   H17743003   3.365   4.157   0.022 -1.8766 -2.0618 -1.6155
  134MOL   C17843004   3.523   4.348   7.864  0.2960  0.0517  0.2357
  134MOL   C17943005   3.573   4.429   7.988 -0.2419 -0.6566 -0.6183
  134MOL   C18043006   3.690   4.508   7.939  0.0182  0.3455 -0.1249
  134MOL   C18143007   3.815   4.443   7.944 -0.0073 -0.8881  0.4908
  134MOL   C18243008   3.933   4.519   7.920 -0.3179 -0.2332  0.0562
  134MOL   C18343009   3.928   4.655   7.893  0.1941  0.3956  0.1500
  134MOL   C18443010   3.803   4.721   7.902 -0.5725  0.1560  0.2264
  134MOL   C18543011   3.682   4.652   7.922 -0.4675  0.2523 -0.2321
  134MOL   H18643012   3.482   4.413   7.787  2.3552  0.5152 -0.4960
  134MOL   H18743013   3.614   4.307   7.819  1.7143  0.2837  2.7622
  134MOL   H18843014   3.616   4.353   8.053  1.0018  0.5729  0.0378
  134MOL   H18943015   3.823   4.336   7.950 -1.6714 -1.0919 -0.5840
  134MOL   H19043016   4.031   4.476   7.927 -1.5784 -3.4352 -1.0606
  134MOL   H19143017   4.023   4.698   7.865  0.4802 -0.3974 -0.1025
  134MOL   H19243018   3.808   4.829   7.896  1.6429 -0.0264 -1.5918
  134MOL   H19343019   3.588   4.702   7.937 -1.6976 -2.1355  0.2595
  134MOL   C19443020   3.464   4.500   8.067  0.3890  0.5291 -1.0670
  134MOL   C19543021   3.496   4.560   0.099 -0.4794  0.5769  0.7106
  134MOL   C19643022   3.393   4.669   0.123  0.9604  0.1675  0.1437
  134MOL   C19743023   3.255   4.640   0.108  0.6926 -0.2398  1.1493
  134MOL   C19843024   3.164   4.743   0.110 -0.6524 -0.2251 -0.0777
  134MOL   C19943025   3.202   4.879   0.121 -0.1505  0.2047 -0.3617
  134MOL   C20043026   3.338   4.910   0.134  0.4121 -0.4167  0.6929
  134MOL   C20143027   3.434   4.805   0.132  0.0803 -0.1356  0.7656
  134MOL   H20243028   3.377   4.435   8.081  0.4256  0.4493 -1.2186
  134MOL   H20343029   3.423   4.581   8.007 -2.4294  0.8463  1.1336
  134MOL   H20443030   3.591   4.613   0.096 -0.2951  0.2306  0.3277
  134MOL   H20543031   3.213   4.540   0.099 -0.4162  0.2389  0.8822
  134MOL   H20643032   3.059   4.715   0.111 -1.2041  1.5957 -2.3932
  134MOL   H20743033   3.123   4.950   0.102 -0.1187 -0.2807 -2.5019
  134MOL   H20843034   3.367   5.014   0.143  0.9670 -0.5398  0.3747
  134MOL   H20943035   3.538   4.827   0.147  0.1847 -0.7501  0.9734
  134MOL   C21043036   3.506   4.445   0.203 -0.1984 -0.0679 -0.0547
  134MOL   C21143037   3.560   4.484   0.338  0.5490  0.1327  0.7433
  134MOL   C21243038   3.477   4.438   0.455  0.3695  0.0755  0.0610
  134MOL   C21343039   3.430   4.303   0.457  1.0732 -0.2250  0.4809
  134MOL   C21443040   3.341   4.258   0.553 -0.0234  0.1782  0.2673
  134MOL   C21543041   3.299   4.345   0.656 -0.4576 -0.2348  0.2011
  134MOL   C21643042   3.334   4.490   0.642  0.4247  0.1349 -0.6727
  134MOL   C21743043   3.426   4.535   0.551 -0.1296 -0.7137  0.2646
  134MOL   H21843044   3.560   4.360   0.163 -1.1274 -1.7811  2.2265
  134MOL   H21943045   3.411   4.393   0.217 -0.6319  0.4931 -0.8344
  134MOL   H22043046   3.569   4.593   0.342  0.0995  0.3078 -2.1049
  134MOL   H22143047   3.450   4.232   0.378 -2.3082 -1.2899  0.4992
  134MOL   H22243048   3.302   4.157   0.555  1.3537 -0.4001 -1.1727
  134MOL   H22343049   3.231   4.311   0.732  0.0365 -2.1047 -0.1652
  134MOL   H22443050   3.292   4.563   0.710  1.7069 -0.0770  0.3726
  134MOL   H22543051   3.448   4.641   0.547  1.8440 -1.0619  1.2146
  134MOL   C22643052   3.703   4.428   0.342 -0.5079 -0.3240  0.2707
  134MOL   C22743053   3.789   4.471   0.466 -0.0792 -0.0823 -0.0566
  134MOL   C22843054   3.852   4.351   0.527  0.1263 -0.4248 -0.0806
  134MOL   C22943055   3.795   4.302   0.650 -0.6818  0.0405 -0.3726
  134MOL   C23043056   3.859   4.194   0.716  0.4681  0.0747  0.5283
  134MOL   C23143057   3.982   4.136   0.661  0.1198 -0.7055 -0.4328
  134MOL   C23243058   4.040   4.187   0.543 -0.0684  0.6329  0.2141
  134MOL   C23343059   3.972   4.291   0.472 -0.0004  0.5263  0.2533
  134MOL   H23443060   3.756   4.450   0.250 -1.6783 -1.7713 -0.7562
  134MOL   H23543061   3.697   4.320   0.342 -0.5222 -0.3248  0.4714
  134MOL   H23643062   3.720   4.521   0.533 -0.1781  1.1614 -1.0482
  134MOL   H23743063   3.702   4.342   0.687  0.3096  1.3471  0.7578
  134MOL   H23843064   3.798   4.144   0.789  0.2661 -0.9537 -0.3284
  134MOL   H23943065   4.026   4.047   0.704  0.7613 -0.0513  0.2901
  134MOL   H24043066   4.126   4.135   0.502 -0.9295 -0.9476  0.3582
  134MOL   H24143067   4.015   4.322   0.378  0.3406  2.2100  0.9528
  134MOL   C24243068   3.894   4.574   0.422 -0.3572  0.0523  0.2713
  134MOL   C24343069   3.847   4.709   0.363 -0.3206 -0.5589 -0.4611
  134MOL   C24443070   3.781   4.789   0.477  0.1987 -0.0350  0.6489
  134MOL   C24543071   3.649   4.836   0.462  0.5961 -0.3968 -0.2503
  134MOL   C24643072   3.583   4.912   0.558 -0.4287 -0.2706  0.2635
  134MOL   C24743073   3.653   4.944   0.672  0.0255  0.2004 -0.6732
  134MOL   C24843074   3.787   4.909   0.693 -0.1298 -0.2243 -0.3739
  134MOL   C24943075   3.849   4.821   0.599  0.0321  0.9507 -0.4854
  134MOL   H25043076   3.972   4.542   0.354  1.6649  1.8215  1.6963
  134MOL   H25143077   3.960   4.576   0.509  0.7408  1.0730 -0.5778
  134MOL   H25243078   3.772   4.687   0.287 -1.4763  2.2382 -0.1736
  134MOL   H25343079   3.594   4.820   0.370  0.4496 -1.3321 -0.0077
  134MOL   H25443080   3.479   4.934   0.541 -0.3109  0.9006  1.0011
  134MOL   H25543081   3.597   4.995   0.749  0.3528 -0.9119  0.3239
  134MOL   H25643082   3.841   4.927   0.785  1.0814  1.6490 -1.4374
  134MOL   H25743083   3.953   4.802   0.621 -0.0872  2.8898  2.0544
  134MOL   C25843084   3.966   4.785   0.304 -0.2072  0.2479 -0.8459
  134MOL   C25943085   3.950   4.928   0.257  0.0715  0.3176 -0.5332
  134MOL   C26043086   4.090   4.987   0.236 -0.4751  0.0651  0.0589
  134MOL   C26143087   4.172   4.931   0.139 -0.2588  0.3881  0.4115
  134MOL   C26243088   4.301   4.986   0.109 -0.0817 -0.7372 -0.7119
  134MOL   C26343089   4.337   5.103   0.189 -0.2942  0.2982  0.6044
  134MOL   C26443090   4.257   5.159   0.283 -0.9442  0.1767 -0.4063
  134MOL   C26543091   4.134   5.102   0.304 -0.3131  0.5033  0.0261
  134MOL   H26643092   3.995   4.721   0.221  2.3805 -0.6597  0.6885
  134MOL   H26743093   4.051   4.787   0.373 -1.3487 -0.6965  0.6204
  134MOL   H26843094   3.909   4.986   0.340 -3.3184 -0.7961 -1.3448
  134MOL   H26943095   4.145   4.841   0.087 -0.0217  0.5304  0.0367
  134MOL   H27043096   4.369   4.946   0.036  0.3920 -0.8274 -0.2225
  134MOL   H27143097   4.438   5.138   0.172 -0.6495  1.8684  1.6048
  134MOL   H27243098   4.288   5.242   0.345  0.7388 -1.5518  1.1548
  134MOL   H27343099   4.073   5.148   0.381  0.4101 -0.1188  0.9742
  134MOL   C27443100   3.859   4.950   0.135 -0.6712  0.3137 -0.1597
  134MOL   C27543101   3.858   5.096   0.076 -0.9357 -0.4323  0.4665
  134MOL   C27643102   3.781   5.110   8.064 -0.1729  0.2482  0.3722
  134MOL   C27743103   3.646   5.080   8.054  0.7814 -0.3480 -0.0479
  134MOL   C27843104   3.585   5.054   7.929 -0.5539  0.1399 -0.0567
  134MOL   C27943105   3.660   5.071   7.811  0.3016  0.9898  0.2622
  134MOL   C28043106   3.797   5.090   7.823 -0.1456 -0.1539 -0.1277
  134MOL   C28143107   3.862   5.104   7.945  0.3660  0.0033 -0.6380
  134MOL   H28243108   3.755   4.922   0.155 -1.0453  0.0128 -2.3788
  134MOL   H28343109   3.900   4.894   0.051 -0.4234  0.4328 -0.1173
  134MOL   H28443110   3.962   5.108   0.047 -0.5940 -1.4378  1.2423
  134MOL   H28543111   3.594   5.055   0.031 -0.2491  0.6037 -0.3673
  134MOL   H28643112   3.480   5.028   7.930 -0.1118 -1.8365 -2.1548
  134MOL   H28743113   3.622   5.047   7.713 -0.5275  0.4226  0.7170
  134MOL   H28843114   3.860   5.097   7.736 -1.1128  2.4661 -0.6695
  134MOL   H28943115   3.968   5.123   7.946  0.1820  1.1657  0.9856
  134MOL   C29043116   3.812   5.202   0.175 -0.2528 -0.1890 -0.3171
  134MOL   C29143117   3.822   5.354   0.134 -0.4072  0.0761  0.2022
  134MOL   C29243118   3.756   5.453   0.223  0.1858  0.0031  0.4348
  134MOL   C29343119   3.812   5.490   0.347 -0.1323 -0.1844  0.1061
  134MOL   C29443120   3.743   5.575   0.433 -0.0758  0.2237 -0.2247
  134MOL   C29543121   3.618   5.625   0.400  0.0864 -0.3888  0.3917
  134MOL   C29643122   3.562   5.594   0.274  0.3766 -0.1515  0.6360
  134MOL   C29743123   3.630   5.505   0.186 -0.1820 -0.0476 -0.4159
  134MOL   H29843124   3.857   5.187   0.273  0.9456  1.3890 -0.6042
  134MOL   H29943125   3.707   5.185   0.200 -1.0652  2.2179 -1.9920
  134MOL   H30043126   3.778   5.368   0.035  1.5984  0.5652 -0.6320
  134MOL   H30143127   3.902   5.437   0.374 -0.3284 -1.4779 -1.6369
  134MOL   H30243128   3.791   5.600   0.527  0.8567  2.5255 -1.2758
  134MOL   H30343129   3.571   5.688   0.474  0.5217  0.3271  0.0616
  134MOL   H30443130   3.464   5.628   0.245 -0.0232 -2.3622 -0.7264
  134MOL   H30543131   3.580   5.479   0.094  1.6706 -0.0998 -1.4430
  134MOL   C30643132   3.971   5.386   0.112 -0.2120  0.2346 -0.1801
  134MOL   C30743133   4.003   5.537   0.088  0.2176 -0.2476 -0.2659
  134MOL   C30843134   4.152   5.572   0.117 -0.5821  0.2105 -0.0847
  134MOL   C30943135   4.234   5.586   0.006  0.0929 -0.3354 -0.1703
  134MOL   C31043136   4.372   5.601   0.033 -0.2417  0.1564 -0.2710
  134MOL   C31143137   4.418   5.617   0.158 -0.2713 -0.6702 -0.0751
  134MOL   C31243138   4.332   5.612   0.267 -0.8044 -0.0591 -0.1797
  134MOL   C31343139   4.199   5.580   0.254  0.1436  0.2426 -0.2040
  134MOL   H31443140   4.023   5.331   0.034 -0.2495  1.0368 -0.7882
  134MOL   H31543141   4.025   5.358   0.203 -3.2811 -2.0001  1.0276
  134MOL   H31643142   3.938   5.598   0.150  2.4940  4.3014 -2.0740
  134MOL   H31743143   4.192   5.590   8.022  0.8042 -0.1174 -0.4714
  134MOL   H31843144   4.433   5.614   8.059  2.0555  0.5590  1.3328
  134MOL   H31943145   4.523   5.633   0.179  0.0440 -2.6112 -0.0535
  134MOL   H32043146   4.376   5.620   0.365 -3.1152  2.9687  0.6590
  134MOL   H32143147   4.137   5.579   0.343  1.7256  1.9395  0.9425
  134MOL   H32243148   3.981   5.575   8.103  0.8525  0.4280 -0.1530
  135MOL     C143149   6.628   5.616   4.414 -0.0267 -0.2376  0.0993
  135MOL     C243150   6.530   5.639   4.530 -0.6911  0.1106 -0.1885
  135MOL     C343151   6.602   5.666   4.662  0.0561  0.0370 -0.2126
  135MOL     C443152   6.552   5.594   4.775  0.0309 -0.1012  0.4589
  135MOL     C543153   6.612   5.606   4.899 -0.7210  0.2378  0.2379
  135MOL     C643154   6.734   5.688   4.912 -0.2116  0.0842 -0.0523
  135MOL     C743155   6.768   5.768   4.807 -0.2061  0.0256 -0.3713
  135MOL     C843156   6.700   5.757   4.682 -0.4837 -0.5869 -0.0222
  135MOL     H943157   6.683   5.523   4.423  0.9318  0.4599  1.5315
  135MOL    H1043158   6.577   5.615   4.317  0.1100  2.0895 -0.0264
  135MOL    H1143159   6.482   5.543   4.550 -0.8588  0.2312 -0.0164
  135MOL    H1243160   6.471   5.524   4.764  2.7252 -3.1803 -0.6426
  135MOL    H1343161   6.583   5.535   4.976  0.6143  0.0059  0.5415
  135MOL    H1443162   6.786   5.696   5.007  0.7667 -0.1598 -0.5607
  135MOL    H1543163   6.848   5.840   4.803 -0.4089  0.1870 -1.9507
  135MOL    H1643164   6.735   5.812   4.596  2.4503 -2.4598 -0.1016
  135MOL    H1743165   6.690   5.705   4.412 -1.8624  1.1626  2.8010
  135MOL    C1843166   6.410   5.732   4.497  0.1833 -0.0210  0.3858
  135MOL    C1943167   6.307   5.683   4.391  0.9635 -0.2363  0.0578
  135MOL    C2043168   6.281   5.532   4.401  1.0149  0.0715  0.2301
  135MOL    C2143169   6.288   5.452   4.285  0.2552  0.3435 -0.0178
  135MOL    C2243170   6.256   5.317   4.290  0.0291 -0.1833  1.0563
  135MOL    C2343171   6.202   5.258   4.408  0.3381 -0.2090  0.4472
  135MOL    C2443172   6.195   5.339   4.525  0.2083  0.2478  0.6795
  135MOL    C2543173   6.228   5.477   4.517 -0.1577  0.1495 -0.6877
  135MOL    H2643174   6.443   5.829   4.458  0.1114  0.4753  1.5299
  135MOL    H2743175   6.355   5.755   4.589  0.5317 -0.6997  0.7688
  135MOL    H2843176   6.361   5.698   4.297  3.6384 -0.1208  1.5732
  135MOL    H2943177   6.309   5.497   4.189  1.0480  1.1986  0.5510
  135MOL    H3043178   6.249   5.262   4.197  0.8315 -0.2639  1.0428
  135MOL    H3143179   6.178   5.153   4.402  0.5469 -0.3078  1.2285
  135MOL    H3243180   6.158   5.302   4.620 -2.4404  2.3343  0.5186
  135MOL    H3343181   6.231   5.533   4.610  0.9601 -1.8673  0.5287
  135MOL    C3443182   6.176   5.758   4.389 -0.0639 -0.1284  0.0259
  135MOL    C3543183   6.188   5.906   4.330  0.1129 -0.8009  0.0383
  135MOL    C3643184   6.218   5.883   4.183  0.2597 -0.0493  0.4421
  135MOL    C3743185   6.339   5.927   4.130 -0.0981  0.0143  0.1025
  135MOL    C3843186   6.371   5.895   4.000 -0.1711 -0.2219 -0.4556
  135MOL    C3943187   6.288   5.806   3.928 -0.3678  0.1018  0.3997
  135MOL    C4043188   6.165   5.772   3.973  0.7870  0.1064  0.0261
  135MOL    C4143189   6.125   5.806   4.104  0.0009 -0.0466 -0.3215
  135MOL    H4243190   6.148   5.767   4.494  1.6004 -1.3196  0.6042
  135MOL    H4343191   6.089   5.709   4.347 -2.1832  2.3099  1.4513
  135MOL    H4443192   6.274   5.955   4.375 -0.1179 -0.6876  0.3575
  135MOL    H4543193   6.404   5.989   4.191  1.2830 -0.9861 -0.3290
  135MOL    H4643194   6.464   5.938   3.969 -0.0163  0.9686  1.5401
  135MOL    H4743195   6.308   5.755   3.835 -2.3583 -0.5628  0.3157
  135MOL    H4843196   6.098   5.714   3.911 -0.5407  0.1051  1.4184
  135MOL    H4943197   6.030   5.767   4.139  0.4912 -1.6919 -0.7830
  135MOL    C5043198   6.062   5.994   4.341  0.5241 -0.1571  0.1769
  135MOL    C5143199   6.018   6.036   4.481 -0.5094 -0.1101 -0.3943
  135MOL    C5243200   6.129   6.105   4.563  0.4625 -0.6235 -0.0138
  135MOL    C5343201   6.158   6.242   4.543  0.2046 -0.3511 -0.4391
  135MOL    C5443202   6.266   6.299   4.604 -0.3089  0.8213  0.8004
  135MOL    C5543203   6.345   6.226   4.695  0.2776 -0.5360 -0.1814
  135MOL    C5643204   6.312   6.093   4.716 -0.4987 -1.2231  0.5509
  135MOL    C5743205   6.204   6.033   4.652 -0.3609  0.5104  0.2739
  135MOL    H5843206   5.977   5.939   4.300 -1.0207  1.1511  1.5600
  135MOL    H5943207   6.076   6.076   4.271  1.3963 -0.0251  0.4969
  135MOL    H6043208   6.001   5.943   4.535 -1.5924  0.0415 -0.4571
  135MOL    H6143209   6.107   6.302   4.468  0.4020  2.4362  1.5947
  135MOL    H6243210   6.302   6.399   4.586 -0.6039  0.5869 -1.2108
  135MOL    H6343211   6.425   6.276   4.747  0.2423 -0.9508  0.2759
  135MOL    H6443212   6.377   6.041   4.785  0.8858  1.6108  1.4616
  135MOL    H6543213   6.186   5.927   4.667  0.1148  0.2307 -1.0122
  135MOL    C6643214   5.890   6.124   4.471  0.3581  0.1384  0.1285
  135MOL    C6743215   5.762   6.043   4.445 -0.0321 -0.3367 -0.3089
  135MOL    C6843216   5.718   5.945   4.548 -1.3208 -0.2364  0.4229
  135MOL    C6943217   5.681   5.981   4.682 -0.4029 -0.6846 -0.4125
  135MOL    C7043218   5.644   5.879   4.774  0.7472 -0.5862 -0.2774
  135MOL    C7143219   5.636   5.744   4.735 -0.2532  0.6054 -0.5068
  135MOL    C7243220   5.670   5.713   4.606  0.0681 -0.4568  0.3138
  135MOL    C7343221   5.714   5.811   4.514 -0.6741  0.0883  0.1840
  135MOL    H7443222   5.916   6.187   4.385  2.8696  0.4358  1.0563
  135MOL    H7543223   5.887   6.196   4.552 -0.6487  0.1173  0.1151
  135MOL    H7643224   5.786   5.980   4.360 -0.3243  1.1043 -1.4730
  135MOL    H7743225   5.688   6.082   4.720 -1.1872 -0.8570  0.2031
  135MOL    H7843226   5.632   5.910   4.877 -0.9811 -0.3085 -0.5503
  135MOL    H7943227   5.626   5.664   4.807  1.6873  0.7157 -0.0953
  135MOL    H8043228   5.664   5.610   4.572  0.0382 -0.5692  0.6582
  135MOL    H8143229   5.747   5.786   4.414 -2.5586  1.0907 -0.6998
  135MOL    C8243230   5.635   6.122   4.397  0.2023  0.4856 -0.7061
  135MOL    C8343231   5.667   6.205   4.263  1.1280  0.0906 -0.2791
  135MOL    C8443232   5.751   6.141   4.158 -0.4841 -0.9620  0.1166
  135MOL    C8543233   5.857   6.209   4.100  0.1503 -0.1667 -0.5460
  135MOL    C8643234   5.924   6.155   3.993  0.0860  0.2508  0.6169
  135MOL    C8743235   5.908   6.018   3.960 -0.5290  0.3928 -0.0217
  135MOL    C8843236   5.800   5.947   4.020 -0.1143  0.0119 -0.3559
  135MOL    C8943237   5.716   6.014   4.110 -0.1763 -0.1292 -0.5592
  135MOL    H9043238   5.600   6.196   4.469  0.8237 -0.2160  0.3389
  135MOL    H9143239   5.553   6.052   4.383 -1.4343  2.3555 -0.7294
  135MOL    H9243240   5.725   6.291   4.298 -0.1893  1.5005 -1.4482
  135MOL    H9343241   5.881   6.309   4.134  1.3526 -0.5265 -0.2843
  135MOL    H9443242   5.999   6.200   3.930 -0.4524  1.6908  0.9761
  135MOL    H9543243   5.964   5.975   3.878 -1.5845  2.0530 -1.6531
  135MOL    H9643244   5.784   5.844   3.990 -1.5862  0.6630 -1.8644
  135MOL    H9743245   5.638   5.960   4.161  1.2832 -0.5350  1.3082
  135MOL    C9843246   5.549   6.278   4.191  0.1971 -0.7095  0.5168
  135MOL    C9943247   5.435   6.209   4.111 -0.3100  0.1265 -0.0956
  135MOL   C10043248   5.367   6.094   4.182  0.2545  0.3608 -0.4474
  135MOL   C10143249   5.359   5.969   4.123 -0.1496 -0.5465  0.2655
  135MOL   C10243250   5.304   5.859   4.197 -0.2545  0.0062  0.2143
  135MOL   C10343251   5.271   5.879   4.333 -0.7514 -0.2635  0.8018
  135MOL   C10443252   5.279   6.004   4.395 -0.4718  0.2876 -0.1965
  135MOL   C10543253   5.317   6.111   4.312 -0.6483 -0.0757  0.0536
  135MOL   H10643254   5.591   6.358   4.131 -0.4256  0.0023  1.0320
  135MOL   H10743255   5.499   6.336   4.268 -0.9130  0.4538 -1.0507
  135MOL   H10843256   5.500   6.176   4.031  0.6827  0.1514  0.6891
  135MOL   H10943257   5.387   5.959   4.019  0.3372 -1.7721  0.5041
  135MOL   H11043258   5.282   5.765   4.150  1.1804  0.5240 -1.5393
  135MOL   H11143259   5.234   5.792   4.386  2.0740 -0.7230  2.1428
  135MOL   H11243260   5.255   6.022   4.499 -0.8838 -0.9970 -0.0587
  135MOL   H11343261   5.317   6.206   4.364 -3.1182 -0.2404  0.4553
  135MOL   C11443262   5.332   6.312   4.065 -0.4651 -1.2372 -0.8292
  135MOL   C11543263   5.193   6.271   4.002  0.1085 -0.3482  0.4915
  135MOL   C11643264   5.110   6.388   3.968  0.2693 -0.3730  0.1865
  135MOL   C11743265   5.158   6.485   3.877 -0.7791 -0.5152  0.1220
  135MOL   C11843266   5.081   6.599   3.843 -0.2078 -0.1436 -0.7087
  135MOL   C11943267   4.946   6.612   3.897 -0.3015  0.5776  0.2697
  135MOL   C12043268   4.895   6.517   3.987 -0.7763 -0.4193 -0.2279
  135MOL   C12143269   4.982   6.406   4.023  0.1738 -0.0333 -0.0581
  135MOL   H12243270   5.388   6.383   4.005 -0.3288 -0.7380 -0.1186
  135MOL   H12343271   5.299   6.368   4.153 -0.1935 -0.9075 -0.9392
  135MOL   H12443272   5.135   6.208   4.070  0.2623 -0.6865  0.3125
  135MOL   H12543273   5.257   6.475   3.835  0.2208 -0.1913  2.3526
  135MOL   H12643274   5.120   6.671   3.773 -2.0808  1.3300 -0.3115
  135MOL   H12743275   4.883   6.695   3.869 -0.3030  0.1599 -0.9934
  135MOL   H12843276   4.796   6.530   4.027 -0.1203  1.2770  0.9045
  135MOL   H12943277   4.942   6.351   4.107  2.9687  0.4862  1.6889
  135MOL   C13043278   5.217   6.186   3.874 -0.2577 -0.0213 -0.2210
  135MOL   C13143279   5.114   6.171   3.767 -0.2726  0.7500 -0.7542
  135MOL   C13243280   5.169   6.130   3.635  0.5412 -0.8241  0.5305
  135MOL   C13343281   5.236   6.004   3.614 -0.2149 -0.2559  0.4184
  135MOL   C13443282   5.268   5.965   3.486  0.4627 -0.8323 -0.4495
  135MOL   C13543283   5.246   6.049   3.376  0.4922 -0.1188 -0.7467
  135MOL   C13643284   5.187   6.175   3.392  0.3885  0.4392  1.3591
  135MOL   C13743285   5.149   6.212   3.523 -0.6465 -0.3986  0.2812
  135MOL   H13843286   5.265   6.093   3.904  0.7237 -0.0687 -1.8655
  135MOL   H13943287   5.303   6.224   3.818 -1.4372  2.0278 -0.7039
  135MOL   H14043288   5.061   6.265   3.750 -1.3187  0.5536  1.2523
  135MOL   H14143289   5.247   5.932   3.694 -0.7549  0.6669  1.3417
  135MOL   H14243290   5.326   5.878   3.461  0.1858 -0.5224 -2.2097
  135MOL   H14343291   5.274   6.022   3.275 -0.2189  0.3213 -1.0715
  135MOL   H14443292   5.165   6.247   3.314  0.8010 -1.5663 -0.6807
  135MOL   H14543293   5.105   6.310   3.531  0.9661  0.3042  0.7276
  135MOL   C14643294   4.999   6.079   3.817  0.1106 -0.4618 -0.0417
  135MOL   C14743295   4.855   6.126   3.780 -0.0289 -0.1517  0.4634
  135MOL   C14843296   4.822   6.159   3.634 -0.7542  0.6235  0.3871
  135MOL   C14943297   4.785   6.296   3.604 -0.1084 -0.2054  0.5743
  135MOL   C15043298   4.761   6.330   3.468  0.1909 -0.0198  0.3874
  135MOL   C15143299   4.791   6.234   3.367 -0.3469 -0.0941  0.2691
  135MOL   C15243300   4.831   6.103   3.393 -0.1053 -0.7544  0.0530
  135MOL   C15343301   4.846   6.068   3.527  0.5200 -0.8151 -0.8498
  135MOL   H15443302   4.998   6.081   3.926  1.9051 -1.8165  0.0328
  135MOL   H15543303   5.019   5.979   3.777 -0.4223 -0.3758 -0.5273
  135MOL   H15643304   4.827   6.213   3.840  3.2861  0.8824  0.5742
  135MOL   H15743305   4.757   6.366   3.681  1.3655 -0.1467  1.0682
  135MOL   H15843306   4.722   6.428   3.442  0.4930 -0.0234 -0.0827
  135MOL   H15943307   4.776   6.264   3.264  2.5642 -1.2471 -0.5419
  135MOL   H16043308   4.835   6.035   3.310  0.0804 -0.7640  0.0692
  135MOL   H16143309   4.869   5.966   3.554  2.9679  0.0716  0.5146
  135MOL   C16243310   4.760   6.011   3.829 -0.4794  0.0046 -0.0085
  135MOL   C16343311   4.696   6.030   3.974  0.4083 -0.5798 -0.3168
  135MOL   C16443312   4.581   6.128   3.975  0.2281  0.8789  0.4180
  135MOL   C16543313   4.508   6.165   4.088 -0.0625 -0.3995 -0.3103
  135MOL   C16643314   4.408   6.266   4.081 -1.2166  0.0939  0.3606
  135MOL   C16743315   4.366   6.316   3.960 -0.0326 -0.5443 -0.5639
  135MOL   C16843316   4.421   6.264   3.843  0.4793 -0.0423 -0.1978
  135MOL   C16943317   4.536   6.186   3.850 -0.2113 -0.1822 -0.5399
  135MOL   H17043318   4.817   5.918   3.838 -1.5835 -0.7623 -0.8169
  135MOL   H17143319   4.698   5.986   3.743  2.1466  0.1894 -2.0464
  135MOL   H17243320   4.775   6.065   4.041  0.1115  0.2989 -0.4201
  135MOL   H17343321   4.532   6.138   4.190 -1.8069  1.3451  0.5949
  135MOL   H17443322   4.361   6.304   4.171 -2.0165 -3.0221  1.3225
  135MOL   H17543323   4.285   6.386   3.948 -0.5807 -0.7773  1.5699
  135MOL   H17643324   4.387   6.306   3.750 -1.2345 -0.2360  0.3244
  135MOL   H17743325   4.578   6.147   3.759  0.9216 -0.1666 -0.0348
  135MOL   C17843326   4.648   5.891   4.021  0.0584 -0.3959  0.5026
  135MOL   C17943327   4.750   5.808   4.098 -0.3551 -0.2868  0.2624
  135MOL   C18043328   4.767   5.852   4.243 -0.3628  0.2524  0.5882
  135MOL   C18143329   4.655   5.861   4.328 -0.6504 -0.5701 -0.0961
  135MOL   C18243330   4.679   5.897   4.463  0.0316  0.3194  0.1748
  135MOL   C18343331   4.812   5.932   4.507 -0.3135 -0.6072 -0.6950
  135MOL   C18443332   4.917   5.922   4.414  0.4613 -0.0238  0.1457
  135MOL   C18543333   4.896   5.876   4.288 -0.1898  0.6986 -0.1242
  135MOL   H18643334   4.598   5.847   3.935 -2.3122  1.1379  1.0457
  135MOL   H18743335   4.557   5.894   4.081 -0.8663 -2.4962 -0.7327
  135MOL   H18843336   4.847   5.815   4.049 -0.2930 -1.1060  0.2622
  135MOL   H18943337   4.559   5.842   4.284 -1.1575 -0.4759  0.9509
  135MOL   H19043338   4.591   5.895   4.525 -0.2443 -1.5674 -0.2359
  135MOL   H19143339   4.834   5.961   4.609 -2.5876  0.9571 -0.6210
  135MOL   H19243340   5.015   5.940   4.456  0.5061 -0.4880  0.2445
  135MOL   H19343341   4.979   5.861   4.221  0.0376  0.6299  0.1718
  135MOL   C19443342   4.695   5.653   4.108 -0.2695 -1.0101 -0.1556
  135MOL   C19543343   4.728   5.574   3.980  0.7750 -0.4398 -0.0729
  135MOL   C19643344   4.866   5.603   3.917  0.0765  0.3033  0.6402
  135MOL   C19743345   4.885   5.668   3.792  0.4145  0.1367 -0.3322
  135MOL   C19843346   5.012   5.669   3.732  0.3142  0.0835  0.2632
  135MOL   C19943347   5.127   5.626   3.798  0.6053  0.0374 -0.1843
  135MOL   C20043348   5.117   5.573   3.929  0.1913 -0.1795  0.2640
  135MOL   C20143349   4.983   5.555   3.981 -0.0287  0.0489 -0.3885
  135MOL   H20243350   4.589   5.632   4.126 -0.4478  0.1159  0.1587
  135MOL   H20343351   4.747   5.600   4.187 -1.3116 -2.8164 -0.6465
  135MOL   H20443352   4.649   5.601   3.910  1.7073  2.7217 -0.0121
  135MOL   H20543353   4.806   5.715   3.734 -0.5170 -0.9303  0.0528
  135MOL   H20643354   5.026   5.723   3.640 -1.3653 -1.1453 -0.7279
  135MOL   H20743355   5.223   5.660   3.764  0.4598  0.9375  0.2851
  135MOL   H20843356   5.206   5.547   3.985  0.6232  2.4509  0.8785
  135MOL   H20943357   4.976   5.522   4.083  1.2487  0.0216 -0.2967
  135MOL   C21043358   4.727   5.421   4.006 -0.2147  0.5846 -0.4944
  135MOL   C21143359   4.599   5.356   4.068 -0.0678 -0.2358 -0.4903
  135MOL   C21243360   4.475   5.384   3.990  0.2980 -0.4137 -0.1791
  135MOL   C21343361   4.478   5.362   3.851  0.4608 -0.0397 -0.2459
  135MOL   C21443362   4.357   5.390   3.775 -0.4577 -0.2085 -0.0212
  135MOL   C21543363   4.239   5.415   3.845  0.3927 -0.2879 -0.3099
  135MOL   C21643364   4.234   5.432   3.985  0.2902 -0.3550 -0.1193
  135MOL   C21743365   4.351   5.412   4.055  0.2570 -0.8595  0.4612
  135MOL   H21843366   4.803   5.400   4.081 -1.4603 -1.7510  0.1615
  135MOL   H21943367   4.761   5.365   3.919  2.4650  2.4424 -0.6884
  135MOL   H22043368   4.590   5.397   4.169  0.4837 -3.0423  0.7577
  135MOL   H22143369   4.569   5.339   3.798  0.6890 -0.8783  0.5083
  135MOL   H22243370   4.345   5.387   3.668 -1.1663 -0.6928  0.0676
  135MOL   H22343371   4.156   5.445   3.783  0.0841  1.1346  0.7664
  135MOL   H22443372   4.139   5.451   4.031  1.3711 -0.2109  2.1302
  135MOL   H22543373   4.354   5.423   4.162 -1.3509 -0.3197  0.4526
  135MOL   C22643374   4.617   5.201   4.077 -0.4578  0.5959 -0.5583
  135MOL   C22743375   4.698   5.155   4.197 -0.8309  0.1187  0.2116
  135MOL   C22843376   4.643   5.208   4.330 -0.8309 -0.3039  0.1213
  135MOL   C22943377   4.729   5.298   4.400  0.7653 -0.2144 -0.8175
  135MOL   C23043378   4.679   5.354   4.521 -1.0088  0.2551 -0.1708
  135MOL   C23143379   4.546   5.340   4.559 -0.0830  0.0191  0.5886
  135MOL   C23243380   4.458   5.258   4.485 -0.1315  0.1918  0.0725
  135MOL   C23343381   4.510   5.191   4.372 -0.6233  0.5712  0.3084
  135MOL   H23443382   4.664   5.160   3.988 -0.4334 -0.5209 -0.0419
  135MOL   H23543383   4.516   5.159   4.084 -0.3376  0.2487 -0.9414
  135MOL   H23643384   4.800   5.193   4.197 -0.7683 -0.0559  1.1600
  135MOL   H23743385   4.826   5.332   4.368  0.9007  3.5465  3.1678
  135MOL   H23843386   4.734   5.426   4.580 -2.0913  0.3885  0.7002
  135MOL   H23943387   4.506   5.399   4.640 -1.3074 -1.1781  0.9000
  135MOL   H24043388   4.359   5.239   4.524 -0.5096  0.4753 -0.7301
  135MOL   H24143389   4.444   5.121   4.324 -0.6452 -1.2950  2.9450
  135MOL   C24243390   4.708   4.999   4.196  0.1951  0.0338 -0.0575
  135MOL   C24343391   4.805   4.947   4.080  0.7639  0.3434 -1.2205
  135MOL   C24443392   4.946   5.003   4.089  0.4725 -0.5779  0.5696
  135MOL   C24543393   5.034   4.976   4.193  0.2221 -0.2667  0.8043
  135MOL   C24643394   5.156   5.040   4.192 -0.2689 -0.0225 -0.0688
  135MOL   C24743395   5.181   5.155   4.111 -0.3843 -0.1624 -0.3972
  135MOL   C24843396   5.091   5.189   4.014 -0.1880 -0.2849  0.2772
  135MOL   C24943397   4.981   5.102   3.997  0.0691  0.2056  0.4951
  135MOL   H25043398   4.612   4.947   4.193 -0.4424  1.0202  2.3748
  135MOL   H25143399   4.759   4.966   4.286 -0.2009 -2.8798 -0.8452
  135MOL   H25243400   4.768   4.972   3.980  0.0229 -0.0315 -1.0475
  135MOL   H25343401   5.011   4.902   4.269 -1.2035 -0.7829 -0.1108
  135MOL   H25443402   5.226   5.021   4.272  0.4304  1.0858 -0.4102
  135MOL   H25543403   5.272   5.209   4.130  0.0556 -0.6104 -1.2283
  135MOL   H25643404   5.109   5.275   3.951 -0.7483  1.0146  1.8610
  135MOL   H25743405   4.924   5.134   3.910  0.2367  0.8203  0.6049
  135MOL   C25843406   4.807   4.791   4.087 -0.7530 -0.1721 -0.2985
  135MOL   C25943407   4.905   4.723   3.992 -0.6743 -0.0912  0.9288
  135MOL   C26043408   4.925   4.576   4.013 -0.2880  0.2108  0.3196
  135MOL   C26143409   5.041   4.514   3.955  0.1670  0.6181 -0.2302
  135MOL   C26243410   5.060   4.373   3.966  0.2407 -0.5079  0.2404
  135MOL   C26343411   4.976   4.301   4.062 -0.3399  0.7322  0.6765
  135MOL   C26443412   4.863   4.365   4.115 -0.3125  0.4093  0.1851
  135MOL   C26543413   4.836   4.498   4.093  0.7499 -0.3955  0.2090
  135MOL   H26643414   4.707   4.749   4.075 -0.8381 -0.5702  1.5568
  135MOL   H26743415   4.842   4.769   4.188 -3.2755  2.3828  1.2139
  135MOL   H26843416   5.007   4.761   3.996  0.1202 -2.1115  0.4204
  135MOL   H26943417   5.103   4.570   3.885  2.6793  0.3282  1.6869
  135MOL   H27043418   5.137   4.317   3.916  0.0633 -2.5651  2.1949
  135MOL   H27143419   5.004   4.198   4.077 -2.0869  0.2068  0.3988
  135MOL   H27243420   4.797   4.315   4.185 -0.3479  2.0105  1.3310
  135MOL   H27343421   4.750   4.544   4.140 -0.9692 -2.6991 -0.5906
  135MOL   C27443422   4.872   4.763   3.844  0.5408 -0.7900  0.7492
  135MOL   C27543423   4.736   4.716   3.770 -0.1790 -0.0782  0.1693
  135MOL   C27643424   4.634   4.824   3.741 -0.4918  0.7146  0.1299
  135MOL   C27743425   4.497   4.800   3.742 -0.2487  0.2761 -0.2178
  135MOL   C27843426   4.403   4.897   3.704 -0.1862 -0.1812 -0.9402
  135MOL   C27943427   4.447   5.023   3.657 -0.2103  0.2562  0.3594
  135MOL   C28043428   4.582   5.047   3.655  0.3282 -0.1222 -0.0931
  135MOL   C28143429   4.672   4.951   3.696  1.0743  0.2031  0.4902
  135MOL   H28243430   4.949   4.709   3.790 -0.7350 -0.9888 -0.9254
  135MOL   H28343431   4.884   4.868   3.817 -0.9520 -0.6543  0.5428
  135MOL   H28443432   4.689   4.647   3.840  1.4752  0.1029  1.4900
  135MOL   H28543433   4.459   4.700   3.749 -0.0034  0.0653 -1.8269
  135MOL   H28643434   4.299   4.874   3.688 -0.5034  1.1364 -0.7688
  135MOL   H28743435   4.368   5.089   3.622  0.2258  0.4852 -0.1990
  135MOL   H28843436   4.616   5.137   3.607 -1.1768  0.3695 -0.2689
  135MOL   H28943437   4.776   4.972   3.679  0.8808  0.8684  0.0959
  135MOL   C29043438   4.764   4.640   3.636 -0.1756  0.6372  0.1825
  135MOL   C29143439   4.748   4.484   3.647  0.3950  0.4418 -0.8583
  135MOL   C29243440   4.610   4.443   3.714  0.1450 -0.8376 -0.7712
  135MOL   C29343441   4.490   4.475   3.656 -0.0230 -0.0715  0.2255
  135MOL   C29443442   4.368   4.433   3.710  0.3006  0.5377 -0.4121
  135MOL   C29543443   4.365   4.360   3.834  0.2058 -0.1709 -0.7490
  135MOL   C29643444   4.488   4.326   3.893 -0.6398  0.9426 -0.7915
  135MOL   C29743445   4.609   4.362   3.831  0.4073 -0.1145 -1.1995
  135MOL   H29843446   4.853   4.675   3.584 -1.0865 -0.1526 -1.9976
  135MOL   H29943447   4.694   4.675   3.560  2.9124  2.2613 -2.0274
  135MOL   H30043448   4.823   4.448   3.717 -0.1154  1.5634  0.2797
  135MOL   H30143449   4.490   4.529   3.563  1.4282  0.6284  0.6165
  135MOL   H30243450   4.274   4.457   3.663  0.5641  0.7732 -0.8260
  135MOL   H30343451   4.276   4.320   3.879  0.6758  1.1626  1.4465
  135MOL   H30443452   4.498   4.273   3.987 -0.3863 -1.5238 -2.1676
  135MOL   H30543453   4.697   4.328   3.884 -0.9504 -0.4940  0.8994
  135MOL   C30643454   4.781   4.406   3.517  0.2777  0.4121  0.0562
  135MOL   C30743455   4.761   4.251   3.524  0.2098 -0.1665 -0.3975
  135MOL   C30843456   4.874   4.186   3.591 -0.0414  0.2062 -0.1600
  135MOL   C30943457   4.859   4.128   3.725 -0.4470 -0.5386  0.9574
  135MOL   C31043458   4.966   4.071   3.797  0.4637 -0.6148 -0.4829
  135MOL   C31143459   5.094   4.086   3.740  0.1306 -0.1295  0.3711
  135MOL   C31243460   5.112   4.147   3.611  1.2189  0.5420 -0.7279
  135MOL   C31343461   5.005   4.193   3.536 -0.5042 -0.0747  0.3384
  135MOL   H31443462   4.878   4.438   3.478  1.9293 -3.8122  0.4673
  135MOL   H31543463   4.705   4.450   3.453  1.0282  1.7116  0.0185
  135MOL   H31643464   4.749   4.202   3.428  1.3655 -1.5873  0.1677
  135MOL   H31743465   4.763   4.123   3.773 -1.5674 -0.4754 -1.1979
  135MOL   H31843466   4.935   4.030   3.892 -1.8657  0.3275 -0.7930
  135MOL   H31943467   5.180   4.043   3.790 -0.9476  0.4330  2.7921
  135MOL   H32043468   5.212   4.146   3.570  0.0206  1.1404 -3.7919
  135MOL   H32143469   5.015   4.226   3.434 -0.5546 -1.0201  0.0269
  135MOL   H32243470   4.677   4.207   3.577  0.7160 -2.1316 -1.2086
  136MOL     C143471   3.762   5.375   1.822 -0.3652 -0.3577 -0.1899
  136MOL     C243472   3.861   5.398   1.944 -0.1722 -0.7023 -0.0609
  136MOL     C343473   3.813   5.314   2.067  0.0814  0.0374 -0.2168
  136MOL     C443474   3.736   5.378   2.169  0.5260  0.2138  0.5526
  136MOL     C543475   3.679   5.297   2.274 -0.6598 -0.3023  0.2290
  136MOL     C643476   3.706   5.155   2.282  0.0829 -0.5218 -0.0101
  136MOL     C743477   3.784   5.094   2.178  0.5362 -0.2015  0.9624
  136MOL     C843478   3.836   5.172   2.073  0.5509  0.4311  0.0514
  136MOL     H943479   3.769   5.461   1.755  1.5109  1.0795  1.7922
  136MOL    H1043480   3.773   5.280   1.770  1.7293  0.9423 -2.1960
  136MOL    H1143481   3.858   5.505   1.964  0.7634 -0.3881 -1.5089
  136MOL    H1243482   3.713   5.483   2.171  1.0869  0.3334  0.8516
  136MOL    H1343483   3.616   5.339   2.351 -2.1717 -0.4962 -0.8704
  136MOL    H1443484   3.677   5.102   2.372  0.6920 -0.0824  0.4543
  136MOL    H1543485   3.800   4.987   2.176 -1.5093 -0.4917 -1.2710
  136MOL    H1643486   3.893   5.122   1.997 -0.9875  0.0240 -0.8541
  136MOL    H1743487   3.658   5.379   1.855  0.7901  2.7059  3.3372
  136MOL    C1843488   4.011   5.366   1.898  0.6161  0.1784  0.5942
  136MOL    C1943489   4.116   5.401   2.013 -0.0567  0.3900  0.2665
  136MOL    C2043490   4.159   5.269   2.075 -0.5273  0.5724 -0.0056
  136MOL    C2143491   4.229   5.172   1.998  0.0095  0.6334 -0.1515
  136MOL    C2243492   4.266   5.057   2.057  0.4798  0.4187 -0.3498
  136MOL    C2343493   4.252   5.029   2.193  0.4797  0.3082  0.5416
  136MOL    C2443494   4.192   5.134   2.277  0.0156 -0.1635  0.4293
  136MOL    C2543495   4.142   5.251   2.212  0.3658  0.2176  0.4759
  136MOL    H2643496   4.026   5.431   1.811 -2.2912  1.3068  0.8477
  136MOL    H2743497   4.028   5.265   1.862  0.0149  0.2995 -0.0544
  136MOL    H2843498   4.078   5.470   2.088 -3.1926  1.1976 -1.9645
  136MOL    H2943499   4.248   5.190   1.893  1.7553  0.0039  0.0475
  136MOL    H3043500   4.328   4.982   2.009 -1.0476 -0.0302 -1.7095
  136MOL    H3143501   4.295   4.940   2.237 -1.9977 -1.4773 -0.4968
  136MOL    H3243502   4.194   5.121   2.384 -0.5746 -0.9167  0.3491
  136MOL    H3343503   4.094   5.329   2.269 -0.0529  0.7439 -0.5858
  136MOL    C3443504   4.241   5.465   1.944  0.4106 -0.0037 -0.0185
  136MOL    C3543505   4.370   5.488   2.036 -0.8959  0.7273  0.2759
  136MOL    C3643506   4.484   5.551   1.954 -0.1774  0.0117 -0.7936
  136MOL    C3743507   4.511   5.686   1.947 -0.2548 -0.3091 -0.6985
  136MOL    C3843508   4.611   5.740   1.866  0.3696 -0.0667  0.0475
  136MOL    C3943509   4.696   5.653   1.789  0.4942  0.0368  0.6580
  136MOL    C4043510   4.677   5.516   1.809 -0.5627  0.3705 -0.0630
  136MOL    C4143511   4.570   5.468   1.884  0.2944  0.0089  0.1468
  136MOL    H4243512   4.214   5.559   1.897  1.8608 -0.0313 -0.9503
  136MOL    H4343513   4.262   5.401   1.857  1.1619 -1.6982  1.3809
  136MOL    H4443514   4.410   5.392   2.068 -1.4986 -0.3788 -2.1642
  136MOL    H4543515   4.442   5.749   2.002  0.0724  0.0986 -0.7607
  136MOL    H4643516   4.642   5.844   1.862  1.4947 -0.3911  0.1098
  136MOL    H4743517   4.783   5.698   1.745 -0.0575  0.7582  0.3052
  136MOL    H4843518   4.737   5.437   1.766 -1.9914 -0.2506 -0.9913
  136MOL    H4943519   4.557   5.361   1.894  1.6555 -0.3149 -1.4126
  136MOL    C5043520   4.325   5.569   2.161 -0.4125  0.2152  0.1455
  136MOL    C5143521   4.438   5.590   2.259  0.1054  0.0180  0.0583
  136MOL    C5243522   4.413   5.720   2.338 -0.6745 -0.1348  0.8717
  136MOL    C5343523   4.307   5.723   2.427 -0.0321 -0.0066  0.5215
  136MOL    C5443524   4.287   5.840   2.505 -0.2700  0.2991  1.0112
  136MOL    C5543525   4.368   5.960   2.482  0.3219 -0.1315  0.0663
  136MOL    C5643526   4.469   5.945   2.391  0.1159 -0.0067  0.1193
  136MOL    C5743527   4.497   5.831   2.317 -0.1213  0.3861  0.3391
  136MOL    H5843528   4.247   5.516   2.215  1.5152 -2.5141  0.3129
  136MOL    H5943529   4.283   5.654   2.107  0.2506 -0.8087 -2.0373
  136MOL    H6043530   4.537   5.594   2.213 -0.8336 -2.7974 -2.3963
  136MOL    H6143531   4.242   5.637   2.435  0.1216 -0.2470 -0.7307
  136MOL    H6243532   4.217   5.836   2.587 -1.6420  1.3221 -0.0859
  136MOL    H6343533   4.360   6.046   2.546 -0.3820  0.4769 -0.8213
  136MOL    H6443534   4.536   6.029   2.380  2.1772 -1.4317  1.3555
  136MOL    H6543535   4.575   5.826   2.243  0.8172 -1.5720  1.4128
  136MOL    C6643536   4.447   5.470   2.362  0.4590 -1.2663  0.3242
  136MOL    C6743537   4.567   5.470   2.465 -0.4002  0.0188 -0.1170
  136MOL    C6843538   4.533   5.409   2.599 -0.6717  0.0885  0.1074
  136MOL    C6943539   4.464   5.290   2.609  0.2185  0.7686  0.1082
  136MOL    C7043540   4.426   5.240   2.736 -0.3764  0.0732 -0.4718
  136MOL    C7143541   4.473   5.303   2.853  0.6304 -0.9321 -0.4458
  136MOL    C7243542   4.547   5.422   2.839 -0.8773  0.1629  0.3338
  136MOL    C7343543   4.576   5.478   2.714 -0.1099  0.3751  0.3970
  136MOL    H7443544   4.440   5.373   2.314 -1.4231 -0.9423 -0.0885
  136MOL    H7543545   4.367   5.481   2.436  0.1039 -1.2740 -0.0612
  136MOL    H7643546   4.599   5.573   2.481  1.3914 -0.5915  0.3057
  136MOL    H7743547   4.423   5.252   2.517 -1.4981 -1.3723  1.7208
  136MOL    H7843548   4.368   5.149   2.743 -2.1316  1.2591  0.6865
  136MOL    H7943549   4.441   5.264   2.949 -0.1587  1.1650  0.1782
  136MOL    H8043550   4.596   5.459   2.928 -0.3781  1.3372 -0.4266
  136MOL    H8143551   4.650   5.557   2.711  2.0595 -1.6086 -0.0230
  136MOL    C8243552   4.691   5.406   2.395 -0.2222 -0.3243  0.4563
  136MOL    C8343553   4.831   5.477   2.400  0.3374  0.2104 -0.1621
  136MOL    C8443554   4.885   5.505   2.535  0.9457  0.5154 -0.4722
  136MOL    C8543555   4.882   5.403   2.635  0.7869  0.5563  0.0219
  136MOL    C8643556   4.949   5.425   2.759  0.1488  0.1624  0.5675
  136MOL    C8743557   5.006   5.552   2.788  1.1428 -0.3895 -0.7529
  136MOL    C8843558   5.009   5.649   2.686 -0.7734  0.3369 -0.8667
  136MOL    C8943559   4.950   5.630   2.560  0.0743  0.5035  0.4715
  136MOL    H9043560   4.674   5.408   2.287 -1.3563 -0.8181  0.6137
  136MOL    H9143561   4.692   5.299   2.416  1.8643 -0.8828 -2.2838
  136MOL    H9243562   4.808   5.580   2.371 -0.4495 -0.4787 -2.0345
  136MOL    H9343563   4.833   5.309   2.619  0.0411  0.8754  0.4381
  136MOL    H9443564   4.958   5.340   2.826  0.0450  0.4251  0.9160
  136MOL    H9543565   5.035   5.568   2.891 -1.8432 -2.0793  0.4094
  136MOL    H9643566   5.041   5.746   2.721  0.6024  0.2820 -1.9436
  136MOL    H9743567   4.942   5.707   2.485 -0.5440 -1.5174 -1.5692
  136MOL    C9843568   4.932   5.402   2.316 -0.2745 -0.4490  0.3981
  136MOL    C9943569   4.935   5.439   2.162  0.2133 -0.4591  0.3674
  136MOL   C10043570   4.958   5.585   2.138 -0.4134 -0.2225 -0.4747
  136MOL   C10143571   5.068   5.648   2.196  0.3087  0.5128 -0.0141
  136MOL   C10243572   5.083   5.783   2.187 -0.2973  0.7173 -0.5696
  136MOL   C10343573   4.978   5.860   2.127 -0.6195 -0.3842 -0.2800
  136MOL   C10443574   4.860   5.805   2.078 -0.3280 -0.0622 -0.4410
  136MOL   C10543575   4.850   5.662   2.088 -0.7377 -0.1876  0.3819
  136MOL   H10643576   4.910   5.298   2.337 -0.6024 -0.6761 -1.0379
  136MOL   H10743577   5.030   5.420   2.360  0.3411  0.2102 -1.1878
  136MOL   H10843578   4.838   5.412   2.121 -0.0346 -0.7563  1.1430
  136MOL   H10943579   5.147   5.585   2.234  0.0895 -0.3324 -0.9524
  136MOL   H11043580   5.174   5.836   2.213 -0.1421  0.6301 -0.9282
  136MOL   H11143581   4.995   5.966   2.132  0.1425 -0.3866 -2.3536
  136MOL   H11243582   4.789   5.873   2.033  1.5131  2.0155 -0.3363
  136MOL   H11343583   4.754   5.614   2.073 -0.6671 -0.7842  1.7343
  136MOL   C11443584   5.039   5.358   2.089  0.8253  0.2183 -0.4258
  136MOL   C11543585   5.015   5.204   2.095 -0.2425 -0.3410 -0.2073
  136MOL   C11643586   4.896   5.156   2.018  0.7538  0.0520  0.0897
  136MOL   C11743587   4.803   5.071   2.080  0.4913 -0.4707  0.3388
  136MOL   C11843588   4.697   5.016   2.002 -0.1753  1.5537  0.1278
  136MOL   C11943589   4.690   5.038   1.864 -0.2674  0.0784  0.3874
  136MOL   C12043590   4.785   5.123   1.802  0.8055  0.3193  0.1696
  136MOL   C12143591   4.887   5.180   1.880  0.6893 -0.1153 -0.3454
  136MOL   H12243592   5.138   5.374   2.131  1.2396  0.7293 -1.5630
  136MOL   H12343593   5.049   5.398   1.988  0.5438  2.2620  0.3451
  136MOL   H12443594   5.004   5.169   2.198 -0.4207 -1.6776 -0.6749
  136MOL   H12543595   4.807   5.038   2.183  1.1561 -3.5936 -0.6343
  136MOL   H12643596   4.627   4.948   2.048  1.3757 -0.4014 -0.3541
  136MOL   H12743597   4.608   5.009   1.799  0.1498 -2.1025  0.8119
  136MOL   H12843598   4.777   5.154   1.699  0.8288  0.7713  0.3033
  136MOL   H12943599   4.960   5.240   1.828  0.7436  1.6539  1.7014
  136MOL   C13043600   5.141   5.132   2.042 -0.5711 -0.3068  0.2466
  136MOL   C13143601   5.273   5.142   2.127  0.7420 -0.2419  0.4312
  136MOL   C13243602   5.260   5.133   2.276  0.2967 -0.6752 -0.2974
  136MOL   C13343603   5.294   5.243   2.354 -0.2126  0.2697  0.2242
  136MOL   C13443604   5.277   5.242   2.493 -0.6317  0.0931 -0.3498
  136MOL   C13543605   5.238   5.126   2.551 -0.1518 -0.3324 -0.7386
  136MOL   C13643606   5.192   5.015   2.481 -0.1928 -0.5680 -0.3804
  136MOL   C13743607   5.211   5.018   2.339  0.6938  0.3030  0.0098
  136MOL   H13843608   5.151   5.170   1.941  0.9972  1.6848  1.1108
  136MOL   H13943609   5.104   5.030   2.038 -0.9885 -0.2215  1.5488
  136MOL   H14043610   5.321   5.236   2.102 -0.9263  0.9553  1.6205
  136MOL   H14143611   5.329   5.337   2.313 -0.4972  0.4228  0.3273
  136MOL   H14243612   5.294   5.337   2.543  0.7729 -0.6859  0.6884
  136MOL   H14343613   5.230   5.122   2.658 -2.8747 -1.8971 -0.9387
  136MOL   H14443614   5.150   4.939   2.544 -2.5527  2.4257  1.8246
  136MOL   H14543615   5.193   4.933   2.274 -1.0136  2.4771 -2.4353
  136MOL   C14643616   5.361   5.035   2.065 -0.7292 -0.1587  0.3425
  136MOL   C14743617   5.496   5.009   2.133 -0.0632  0.0846 -0.5243
  136MOL   C14843618   5.554   4.876   2.095  0.0482  0.0934  1.1248
  136MOL   C14943619   5.567   4.843   1.958 -0.0042  0.1851 -0.2865
  136MOL   C15043620   5.607   4.714   1.913 -0.3153 -0.3593  0.2278
  136MOL   C15143621   5.627   4.617   2.008  0.2913  0.9715  0.0963
  136MOL   C15243622   5.617   4.646   2.149 -0.0555  0.5165 -0.2059
  136MOL   C15343623   5.591   4.778   2.193  0.3597  0.1629  0.3483
  136MOL   H15443624   5.368   5.045   1.957  1.7799  0.8389  0.5522
  136MOL   H15543625   5.307   4.940   2.070  0.4937 -0.8423  0.8836
  136MOL   H15643626   5.484   5.004   2.241 -2.2581 -0.3345 -0.7454
  136MOL   H15743627   5.544   4.914   1.880  0.6820  1.9975  1.1250
  136MOL   H15843628   5.604   4.678   1.811 -0.2888 -1.3540  0.5700
  136MOL   H15943629   5.646   4.516   1.975 -0.1411  0.7804  0.4338
  136MOL   H16043630   5.639   4.572   2.224 -2.7520 -1.0600 -0.9020
  136MOL   H16143631   5.589   4.797   2.300  0.4480 -0.9597  0.5535
  136MOL   C16243632   5.597   5.125   2.096 -0.3615  0.5100 -0.3705
  136MOL   C16343633   5.744   5.106   2.153 -0.1345 -0.4578 -0.0744
  136MOL   C16443634   5.838   5.187   2.070 -0.5600 -0.8997 -0.7800
  136MOL   C16543635   5.873   5.321   2.110  0.4312 -0.3505  0.7286
  136MOL   C16643636   5.967   5.395   2.032  0.9840 -0.1988 -0.2751
  136MOL   C16743637   6.023   5.336   1.917  0.1884 -0.0321 -0.4962
  136MOL   C16843638   5.985   5.210   1.877 -0.1823 -0.3252 -0.1901
  136MOL   C16943639   5.898   5.128   1.957  0.0209 -0.7693  0.3620
  136MOL   H17043640   5.568   5.224   2.131  0.1924  0.1791  1.0399
  136MOL   H17143641   5.599   5.134   1.987  3.3226 -2.9752 -0.6956
  136MOL   H17243642   5.774   5.002   2.138 -0.6642 -0.6130 -0.0716
  136MOL   H17343643   5.831   5.370   2.196 -0.4092  0.9359 -0.3940
  136MOL   H17443644   6.000   5.492   2.064  2.6265 -0.9319  0.3724
  136MOL   H17543645   6.099   5.385   1.859  1.0954 -1.2957 -0.4011
  136MOL   H17643646   6.033   5.165   1.792 -0.6474 -1.9188  0.3729
  136MOL   H17743647   5.862   5.034   1.917 -1.3465 -0.4854  0.9093
  136MOL   C17843648   5.760   5.136   2.312 -0.0084 -0.1622 -0.9202
  136MOL   C17943649   5.903   5.141   2.377  0.2374  0.7709 -0.6617
  136MOL   C18043650   5.892   5.193   2.528 -0.3610  0.1000 -0.1458
  136MOL   C18143651   5.990   5.283   2.572  0.7720 -0.5177 -0.2238
  136MOL   C18243652   5.984   5.329   2.703  0.9213 -0.1194 -0.2222
  136MOL   C18343653   5.892   5.286   2.795 -0.3180  0.2388 -0.2967
  136MOL   C18443654   5.790   5.193   2.752  0.3608 -0.4726  0.2791
  136MOL   C18543655   5.794   5.147   2.617  0.8693 -0.4446  0.1525
  136MOL   H18643656   5.693   5.077   2.375  0.1159  0.6722  0.0061
  136MOL   H18743657   5.723   5.239   2.321 -2.2506 -1.1029  1.1364
  136MOL   H18843658   5.959   5.221   2.327  0.9564  1.2974  0.9194
  136MOL   H18943659   6.074   5.315   2.511  0.2856 -2.0640 -1.7206
  136MOL   H19043660   6.049   5.407   2.741 -0.6466  0.4574  1.3274
  136MOL   H19143661   5.895   5.320   2.897 -3.6019  0.6874 -0.3023
  136MOL   H19243662   5.713   5.162   2.820 -1.2160  0.7134 -0.9303
  136MOL   H19343663   5.713   5.089   2.574  0.4300  1.3039 -1.4644
  136MOL   C19443664   5.981   5.010   2.366 -0.2895 -1.1803 -0.0668
  136MOL   C19543665   6.131   5.036   2.382  0.0616 -0.4813 -0.0777
  136MOL   C19643666   6.195   4.913   2.437  0.6021 -0.1392  0.1812
  136MOL   C19743667   6.194   4.788   2.368  0.0234  0.1954 -0.1440
  136MOL   C19843668   6.247   4.671   2.419 -0.2176 -0.5285 -0.5118
  136MOL   C19943669   6.297   4.677   2.544 -0.0338  0.2528  0.2456
  136MOL   C20043670   6.298   4.792   2.619 -0.5933  0.6281 -0.6132
  136MOL   C20143671   6.249   4.915   2.566 -0.0650  0.2783 -0.7402
  136MOL   H20243672   5.964   4.966   2.268  1.9587 -0.7021 -0.6947
  136MOL   H20343673   5.938   4.931   2.428  0.6572 -0.3671  1.6584
  136MOL   H20443674   6.153   5.109   2.460  0.3418 -2.4107  1.6597
  136MOL   H20543675   6.158   4.786   2.267 -1.2840 -0.0227  0.3152
  136MOL   H20643676   6.250   4.578   2.363  1.7526  0.4948 -2.1538
  136MOL   H20743677   6.345   4.588   2.582  2.2834  0.7871 -1.3395
  136MOL   H20843678   6.331   4.799   2.722 -2.4710  1.1821 -0.0295
  136MOL   H20943679   6.258   5.006   2.623 -0.0683  0.0276 -0.3356
  136MOL   C21043680   6.198   5.072   2.241  0.4427 -0.8101 -0.2154
  136MOL   C21143681   6.342   5.115   2.254 -0.3717  0.4918 -0.0283
  136MOL   C21243682   6.415   5.091   2.120 -0.5279 -0.0964  0.3641
  136MOL   C21343683   6.459   4.961   2.090 -0.1192  0.3658 -0.2587
  136MOL   C21443684   6.544   4.935   1.981  0.2818 -0.0915  0.1521
  136MOL   C21543685   6.570   5.038   1.889 -0.4375 -0.2740  0.4551
  136MOL   C21643686   6.513   5.165   1.910  0.3600  0.7689  0.0420
  136MOL   C21743687   6.434   5.191   2.025  0.2366  0.2019  0.0772
  136MOL   H21843688   6.147   5.160   2.202  1.3661 -0.2455 -0.1431
  136MOL   H21943689   6.189   4.986   2.174  0.3792 -0.2850 -0.8873
  136MOL   H22043690   6.385   5.042   2.322 -1.6539 -0.1066  0.1560
  136MOL   H22143691   6.432   4.884   2.161 -0.3882  1.8412  1.2748
  136MOL   H22243692   6.569   4.830   1.974  2.5729  0.4423 -0.2042
  136MOL   H22343693   6.623   5.018   1.796  0.4665 -0.1592  0.9414
  136MOL   H22443694   6.540   5.240   1.837  0.8019  2.3362  1.7612
  136MOL   H22543695   6.402   5.292   2.045  1.6019  0.4167  1.2534
  136MOL   C22643696   6.345   5.260   2.320  0.3236 -0.4271 -0.2460
  136MOL   C22743697   6.480   5.331   2.350 -0.4749 -0.9191  0.7323
  136MOL   C22843698   6.449   5.479   2.376  0.4975 -0.5009 -0.0098
  136MOL   C22943699   6.532   5.572   2.321  0.4953  1.1429 -0.2623
  136MOL   C23043700   6.523   5.710   2.356  0.5392  0.2954  0.5071
  136MOL   C23143701   6.431   5.756   2.446 -0.4125  0.3759  0.0531
  136MOL   C23243702   6.344   5.661   2.504  0.5151 -0.3646 -0.9883
  136MOL   C23343703   6.358   5.525   2.475 -0.7977  0.0342  0.0067
  136MOL   H23443704   6.294   5.270   2.415 -2.2373  1.8884 -1.8101
  136MOL   H23543705   6.285   5.319   2.251  0.1151 -0.2326  0.0998
  136MOL   H23643706   6.545   5.331   2.263 -0.0620 -0.5017  1.0382
  136MOL   H23743707   6.604   5.545   2.245 -0.8252 -0.2554 -1.0447
  136MOL   H23843708   6.581   5.780   2.297 -0.9845 -0.1607 -1.6031
  136MOL   H23943709   6.424   5.862   2.469 -1.4636  0.4003 -0.3401
  136MOL   H24043710   6.266   5.695   2.571  1.4505 -0.7414  0.3052
  136MOL   H24143711   6.305   5.446   2.526  0.2818 -0.0870  0.9352
  136MOL   C24243712   6.557   5.281   2.470 -0.4391  0.0412 -0.1968
  136MOL   C24343713   6.652   5.168   2.440  0.1782 -0.4816  0.8457
  136MOL   C24443714   6.776   5.210   2.356  0.4442 -0.5112 -0.1427
  136MOL   C24543715   6.799   5.142   2.238 -0.5538 -0.0577  0.7208
  136MOL   C24643716   6.933   5.151   2.178 -0.1422 -0.7042 -0.1145
  136MOL   C24743717   7.022   5.248   2.227  0.4537  0.2706  0.1544
  136MOL   C24843718   6.991   5.328   2.341  0.0666 -0.2623 -0.2109
  136MOL   C24943719   6.865   5.308   2.399  0.4092  0.0304  0.5026
  136MOL   H25043720   6.486   5.258   2.550 -0.3220 -2.3090 -0.7218
  136MOL   H25143721   6.613   5.368   2.507  0.2352  0.4284 -2.0949
  136MOL   H25243722   6.585   5.110   2.377  1.1762 -1.4504  0.6677
  136MOL   H25343723   6.727   5.072   2.199 -0.9669  0.0004  1.3590
  136MOL   H25443724   6.962   5.088   2.095 -1.3381 -2.5906  0.8710
  136MOL   H25543725   7.116   5.266   2.177  0.1392 -0.0739 -0.5821
  136MOL   H25643726   7.051   5.410   2.378 -1.8093  0.5852  1.0136
  136MOL   H25743727   6.840   5.372   2.482 -2.9238 -1.5036  0.7749
  136MOL   C25843728   6.691   5.092   2.572 -0.4241  0.2732 -0.0093
  136MOL   C25943729   6.766   4.962   2.554 -0.1062  0.2224 -0.0560
  136MOL   C26043730   6.798   4.912   2.689 -0.1337  0.2495 -0.4293
  136MOL   C26143731   6.925   4.931   2.742  0.3220  0.1778  0.6284
  136MOL   C26243732   6.962   4.895   2.871 -0.0744  0.5018 -0.5427
  136MOL   C26343733   6.865   4.818   2.943  0.2265 -0.2911  0.1572
  136MOL   C26443734   6.742   4.782   2.886  0.3318 -1.0506  0.6511
  136MOL   C26543735   6.704   4.830   2.756  0.3547  0.8214 -0.7398
  136MOL   H26643736   6.606   5.074   2.637  0.9570 -3.2823  0.8881
  136MOL   H26743737   6.759   5.159   2.626 -0.1517  0.1180 -0.1605
  136MOL   H26843738   6.855   4.987   2.497  0.2587  0.4855  0.6209
  136MOL   H26943739   6.996   4.981   2.677  1.3702  1.0922  2.4409
  136MOL   H27043740   7.062   4.918   2.906  0.1832 -0.2174 -0.7849
  136MOL   H27143741   6.891   4.780   3.041  3.0808 -2.4616 -1.3387
  136MOL   H27243742   6.672   4.722   2.943 -0.2312  0.1615  1.2453
  136MOL   H27343743   6.611   4.801   2.710  0.3296  2.1472 -1.5423
  136MOL   C27443744   6.687   4.865   2.472 -0.0678 -0.1978  0.1716
  136MOL   C27543745   6.762   4.730   2.448  0.2933  0.0060 -0.0101
  136MOL   C27643746   6.671   4.614   2.394  0.2642 -1.0003  0.3755
  136MOL   C27743747   6.602   4.533   2.490 -0.2698 -0.5243  0.1370
  136MOL   C27843748   6.520   4.431   2.437  0.2841 -0.5737  0.6912
  136MOL   C27943749   6.492   4.411   2.303 -0.3401 -0.5821  0.3682
  136MOL   C28043750   6.558   4.491   2.213  0.4179 -0.2906 -0.1865
  136MOL   C28143751   6.647   4.595   2.255  0.5494 -0.1726  0.4037
  136MOL   H28243752   6.666   4.909   2.375 -1.5349  0.7504  0.9033
  136MOL   H28343753   6.589   4.856   2.520  0.4277 -2.2162  0.8381
  136MOL   H28443754   6.783   4.688   2.546 -0.8595 -0.1314  0.1888
  136MOL   H28543755   6.599   4.556   2.596 -1.9729  1.4470 -0.3171
  136MOL   H28643756   6.464   4.362   2.498 -0.9986 -0.0803  0.0900
  136MOL   H28743757   6.434   4.325   2.274  0.1338 -0.8339  0.1718
  136MOL   H28843758   6.546   4.461   2.110  0.6587  0.6595 -0.4974
  136MOL   H28943759   6.695   4.659   2.183  1.0859 -0.9388  0.0810
  136MOL   C29043760   6.895   4.745   2.361  0.1875 -0.6816  0.0892
  136MOL   C29143761   7.035   4.716   2.434  0.0527 -0.8812  0.2015
  136MOL   C29243762   7.032   4.583   2.493 -0.2841  0.9143  0.2952
  136MOL   C29343763   7.057   4.571   2.631  0.3637  0.5867 -0.1280
  136MOL   C29443764   7.037   4.452   2.704 -0.5531  0.1870 -0.8975
  136MOL   C29543765   7.010   4.331   2.634 -0.7599 -0.0363 -0.2351
  136MOL   C29643766   6.995   4.342   2.493  0.3470 -0.0239  0.1103
  136MOL   C29743767   7.005   4.465   2.431  0.2402  0.2613  0.4081
  136MOL   H29843768   6.899   4.845   2.318  0.2325  0.1038  1.8841
  136MOL   H29943769   6.884   4.681   2.274 -1.2556 -0.7130  0.2768
  136MOL   H30043770   7.050   4.786   2.516  1.0635 -0.8557  0.0012
  136MOL   H30143771   7.076   4.663   2.686 -0.9757 -0.1150  1.5614
  136MOL   H30243772   7.043   4.440   2.811 -1.2593 -0.1435 -0.8885
  136MOL   H30343773   6.991   4.239   2.687  2.2179  0.3006  1.5383
  136MOL   H30443774   6.974   4.251   2.439 -1.6744  0.4156  0.1040
  136MOL   H30543775   6.986   4.463   2.324 -4.5467  0.0955  1.1622
  136MOL   C30643776   7.152   4.728   2.339 -0.4043 -0.6610 -0.0340
  136MOL   C30743777   7.171   4.875   2.295 -0.7834 -0.0639 -0.0928
  136MOL   C30843778   7.304   4.896   2.217  0.2936 -0.1053 -0.1591
  136MOL   C30943779   7.297   4.909   2.077 -0.0451 -0.7166 -0.2097
  136MOL   C31043780   7.408   4.944   2.002  0.0668  0.2661  0.4561
  136MOL   C31143781   7.530   4.953   2.069 -0.4762 -0.4858  0.1111
  136MOL   C31243782   7.542   4.949   2.209  0.2443 -0.1146 -0.6330
  136MOL   C31343783   7.425   4.921   2.280  0.2765 -0.0681 -0.7208
  136MOL   H31443784   7.147   4.674   2.245  2.9941 -1.8928  0.4363
  136MOL   H31543785   7.244   4.695   2.386 -0.0651 -2.4530 -1.9082
  136MOL   H31643786   7.171   4.938   2.383  0.5952  0.5961 -0.5357
  136MOL   H31743787   7.208   4.878   2.022 -0.3581  1.8410 -1.2075
  136MOL   H31843788   7.401   4.959   1.895 -0.7658  0.3509  0.5224
  136MOL   H31943789   7.615   4.967   2.005 -2.1130  1.2288 -1.7629
  136MOL   H32043790   7.635   4.970   2.258 -1.5046  0.2453  2.6721
  136MOL   H32143791   7.433   4.933   2.387  0.9999 -0.8697 -0.6846
  136MOL   H32243792   7.086   4.906   2.235  0.8172  0.0971 -2.3709
  137MOL     C143793   0.190   6.369   4.473  0.5418 -0.2088  0.0438
  137MOL     C243794   0.277   6.459   4.560 -0.9277 -0.1687  0.2503
  137MOL     C343795   0.281   6.592   4.496 -0.0691  0.0987  0.2225
  137MOL     C443796   0.186   6.702   4.511  0.6837  0.1863 -0.1257
  137MOL     C543797   0.216   6.827   4.454 -0.2802 -0.0779 -0.8738
  137MOL     C643798   0.340   6.850   4.392 -0.7863 -0.0603  0.8761
  137MOL     C743799   0.427   6.742   4.371 -0.3071 -0.3665 -0.4446
  137MOL     C843800   0.401   6.613   4.421 -0.5528 -0.1814 -0.5570
  137MOL     H943801   0.083   6.388   4.477  0.3968 -0.9590 -0.1123
  137MOL    H1043802   0.226   6.368   4.370 -0.4562 -1.7778 -0.3045
  137MOL    H1143803   0.377   6.417   4.556 -1.1781 -0.8516  1.0236
  137MOL    H1243804   0.093   6.679   4.562  1.8034 -0.8880  1.4683
  137MOL    H1343805   0.154   6.910   4.482  0.5970  1.0446 -2.1704
  137MOL    H1443806   0.364   6.943   4.343 -1.0022 -0.8607 -0.7926
  137MOL    H1543807   0.514   6.757   4.310 -0.4895 -2.5835 -1.2977
  137MOL    H1643808   0.474   6.535   4.407 -0.5877  0.0591 -2.2689
  137MOL    H1743809   0.199   6.269   4.515  0.3011 -0.2496 -0.0029
  137MOL    C1843810   0.240   6.460   4.711  0.4454  0.1009  0.6403
  137MOL    C1943811   0.306   6.569   4.805  0.4281 -0.3411  0.4468
  137MOL    C2043812   0.253   6.552   4.946  0.9204  0.6239  0.2142
  137MOL    C2143813   0.271   6.438   5.027  0.3319  0.7328 -0.0459
  137MOL    C2243814   0.204   6.434   5.151 -0.3507 -0.4013  0.5740
  137MOL    C2343815   0.130   6.535   5.197 -0.3299 -0.0399 -0.3105
  137MOL    C2443816   0.105   6.644   5.116 -0.1866  0.7372 -0.4400
  137MOL    C2543817   0.163   6.651   4.985 -0.3465  0.0797 -0.8981
  137MOL    H2643818   0.261   6.359   4.747 -0.8028  0.6139  2.9381
  137MOL    H2743819   0.134   6.469   4.735  0.7313 -0.5630  2.2544
  137MOL    H2843820   0.272   6.668   4.773 -0.4059 -0.1803  1.7998
  137MOL    H2943821   0.320   6.350   4.989 -1.3050  0.1931 -0.9440
  137MOL    H3043822   0.217   6.346   5.212  0.8401 -0.1954  0.6352
  137MOL    H3143823   0.103   6.520   5.300  4.3600  1.3743  1.2466
  137MOL    H3243824   0.038   6.720   5.153  1.2955  1.3585  1.0361
  137MOL    H3343825   0.145   6.739   4.924  0.1782  1.2390  0.5965
  137MOL    C3443826   0.455   6.568   4.794 -0.3462  0.1726 -0.5798
  137MOL    C3543827   0.519   6.698   4.841 -0.7129  0.8259 -0.3217
  137MOL    C3643828   0.653   6.674   4.899 -0.0229  0.1369  0.0207
  137MOL    C3743829   0.685   6.711   5.032 -0.1109  0.3850  0.3835
  137MOL    C3843830   0.814   6.691   5.081 -0.0052 -0.3281  0.0646
  137MOL    C3943831   0.920   6.641   4.998 -0.6958  0.6561 -0.1251
  137MOL    C4043832   0.889   6.601   4.866 -0.5091  0.2906 -0.3817
  137MOL    C4143833   0.758   6.617   4.820 -0.3572 -0.1713  0.3229
  137MOL    H4243834   0.501   6.543   4.698  1.5285 -2.4118  0.9085
  137MOL    H4343835   0.491   6.491   4.862 -0.1839  2.5822  2.1685
  137MOL    H4443836   0.453   6.741   4.916  0.8515  0.5682  1.2425
  137MOL    H4543837   0.613   6.748   5.103 -0.8437 -0.8689  0.3145
  137MOL    H4643838   0.835   6.720   5.183 -0.1308  1.6353 -0.4427
  137MOL    H4743839   1.021   6.634   5.036 -0.8683  1.8331  0.5637
  137MOL    H4843840   0.960   6.553   4.801 -0.7788 -1.5235  0.6182
  137MOL    H4943841   0.726   6.582   4.723 -1.1687  0.6576  0.2831
  137MOL    C5043842   0.514   6.800   4.728 -0.9112  0.0181  0.6334
  137MOL    C5143843   0.525   6.940   4.784 -0.1619 -0.6551 -0.7880
  137MOL    C5243844   0.596   7.024   4.683  0.0129 -0.3843  0.2082
  137MOL    C5343845   0.531   7.098   4.587  0.4358 -0.4977 -0.0358
  137MOL    C5443846   0.600   7.171   4.490 -0.0246  0.5059 -0.3794
  137MOL    C5543847   0.734   7.174   4.495 -0.4869  0.4978  0.0080
  137MOL    C5643848   0.805   7.104   4.598  0.7510  0.2719  0.4458
  137MOL    C5743849   0.738   7.028   4.695  1.4727  0.7018  0.1902
  137MOL    H5843850   0.423   6.793   4.670  0.7218  1.7550 -2.2511
  137MOL    H5943851   0.599   6.781   4.662 -0.0280  0.5345  1.6036
  137MOL    H6043852   0.599   6.937   4.864 -0.1391 -0.2406 -0.7917
  137MOL    H6143853   0.424   7.107   4.592  0.4937  1.2976 -1.3519
  137MOL    H6243854   0.544   7.221   4.413  1.0202  1.3752 -0.5902
  137MOL    H6343855   0.789   7.233   4.424  3.7473 -0.2366  2.4910
  137MOL    H6443856   0.912   7.101   4.600  0.7449 -2.7826 -1.4314
  137MOL    H6543857   0.796   6.985   4.774 -0.6380 -1.4086  0.6363
  137MOL    C6643858   0.389   7.005   4.840 -0.4347 -0.1278 -1.1078
  137MOL    C6743859   0.405   7.143   4.913  0.7273 -0.1063 -0.5110
  137MOL    C6843860   0.279   7.227   4.920  1.0363  0.0110 -0.0541
  137MOL    C6943861   0.279   7.352   4.856 -0.3471  0.5190 -0.1450
  137MOL    C7043862   0.175   7.442   4.869 -0.1674  0.3981 -0.3539
  137MOL    C7143863   0.068   7.412   4.953 -1.0470  0.0118  0.7879
  137MOL    C7243864   0.062   7.281   5.007 -0.3455 -0.0747 -0.0907
  137MOL    C7343865   0.169   7.185   4.991  0.1323 -0.0191  0.0832
  137MOL    H7443866   0.344   6.939   4.914  2.1280  1.8662  2.3186
  137MOL    H7543867   0.312   7.021   4.763 -0.7920  0.6412 -0.5929
  137MOL    H7643868   0.484   7.198   4.861  0.3375 -0.5353 -1.5730
  137MOL    H7743869   0.368   7.376   4.799  0.5973  1.0056  1.4789
  137MOL    H7843870   0.174   7.543   4.831 -2.6130  0.3843 -0.4105
  137MOL    H7943871   8.112   7.491   4.972  0.4364  1.9688 -1.6451
  137MOL    H8043872   8.095   7.247   5.069  0.4898 -0.7661  0.6462
  137MOL    H8143873   0.163   7.095   5.051  2.7269 -0.0284  0.3802
  137MOL    C8243874   0.457   7.124   5.060 -0.2128 -0.2826 -0.0940
  137MOL    C8343875   0.483   7.257   5.131 -0.1516 -0.0430  0.0001
  137MOL    C8443876   0.403   7.262   5.253 -0.0645  0.6448 -0.5579
  137MOL    C8543877   0.298   7.355   5.277  0.3143  0.0997  0.5605
  137MOL    C8643878   0.222   7.360   5.392 -0.7238 -0.0104 -0.3618
  137MOL    C8743879   0.259   7.271   5.493  0.5735  0.4394 -0.0123
  137MOL    C8843880   0.356   7.174   5.477  0.9558  0.4856 -0.3915
  137MOL    C8943881   0.427   7.169   5.354 -0.3830  0.0537 -0.5153
  137MOL    H9043882   0.546   7.061   5.056 -0.2605 -0.3416 -0.2531
  137MOL    H9143883   0.381   7.071   5.118 -0.7771  0.3180 -0.2849
  137MOL    H9243884   0.453   7.341   5.068 -1.1867 -0.7729 -0.4882
  137MOL    H9343885   0.274   7.422   5.196  1.0795  1.0422  1.1008
  137MOL    H9443886   0.154   7.441   5.413 -0.4657  0.0003  0.4477
  137MOL    H9543887   0.203   7.267   5.585  2.7973  0.7120  1.3785
  137MOL    H9643888   0.376   7.107   5.559  2.4581  1.7573  0.3155
  137MOL    H9743889   0.498   7.089   5.343  0.2803  0.5783 -0.1334
  137MOL    C9843890   0.632   7.276   5.163  0.0684 -0.0345 -0.5461
  137MOL    C9943891   0.727   7.309   5.043 -0.6866 -0.2842  0.3520
  137MOL   C10043892   0.681   7.417   4.950 -0.9946 -0.2261 -0.0892
  137MOL   C10143893   0.710   7.401   4.814 -0.2960 -0.5110  0.2954
  137MOL   C10243894   0.668   7.496   4.717  0.0504 -0.6132  0.3442
  137MOL   C10343895   0.596   7.609   4.756  0.1092  0.1215 -0.1425
  137MOL   C10443896   0.567   7.628   4.895  0.9681  0.3881  0.5170
  137MOL   C10543897   0.613   7.533   4.991  1.0256 -0.4013  0.4684
  137MOL   H10643898   0.674   7.195   5.223 -0.1229  1.0479  1.0816
  137MOL   H10743899   0.638   7.353   5.240 -0.8341  0.8681 -1.3758
  137MOL   H10843900   0.736   7.222   4.978 -0.5305 -0.2065  0.2679
  137MOL   H10943901   0.765   7.311   4.789  2.1743  0.8803  0.5646
  137MOL   H11043902   0.688   7.480   4.613 -0.1960 -0.9762  0.3516
  137MOL   H11143903   0.562   7.681   4.683 -1.1437  1.8515  2.1013
  137MOL   H11243904   0.502   7.707   4.930  1.0951  0.2252  1.1133
  137MOL   H11343905   0.574   7.543   5.091 -0.9059  0.4947 -0.3299
  137MOL   C11443906   0.870   7.356   5.090  0.0417 -0.2105  0.4645
  137MOL   C11543907   0.965   7.238   5.127 -0.4596  0.2874  0.3996
  137MOL   C11643908   1.027   7.181   4.998  0.0036 -0.3009  0.0195
  137MOL   C11743909   1.006   7.044   4.958 -0.0923  0.0400  0.3795
  137MOL   C11843910   1.070   6.982   4.848  0.4264  0.2150  0.0252
  137MOL   C11943911   1.146   7.067   4.763  0.2065 -0.3927 -0.3377
  137MOL   C12043912   1.171   7.200   4.796 -0.0883 -0.7668 -0.2539
  137MOL   C12143913   1.112   7.256   4.916 -0.0353  0.4164  0.5468
  137MOL   H12243914   0.862   7.417   5.180 -0.1483  0.5016 -0.0259
  137MOL   H12343915   0.926   7.420   5.022  0.3358 -0.4667  0.4705
  137MOL   H12443916   0.891   7.172   5.173 -1.6495 -0.5978 -2.7013
  137MOL   H12543917   0.938   6.983   5.016 -1.6420 -0.5033 -1.9119
  137MOL   H12643918   1.063   6.876   4.831  0.8954  0.4769 -1.9091
  137MOL   H12743919   1.194   7.030   4.674  0.6664  0.5575 -0.4920
  137MOL   H12843920   1.237   7.254   4.730 -1.3554 -0.8495 -1.6366
  137MOL   H12943921   1.128   7.361   4.937 -1.7348  0.8456 -0.2552
  137MOL   C13043922   1.062   7.267   5.241 -0.5318 -0.1615 -0.2912
  137MOL   C13143923   0.997   7.286   5.386 -0.1528  0.0467  0.0222
  137MOL   C13243924   0.942   7.150   5.436  0.1433 -0.8218  0.2610
  137MOL   C13343925   0.804   7.146   5.463  0.3297 -0.6196  0.1341
  137MOL   C13443926   0.740   7.027   5.494  0.6162 -0.6019  0.0109
  137MOL   C13543927   0.813   6.907   5.489 -0.2219  0.1813 -0.1257
  137MOL   C13643928   0.957   6.913   5.483 -0.0247  0.6981  0.6514
  137MOL   C13743929   1.019   7.039   5.453  0.2138 -0.4533  0.2727
  137MOL   H13843930   1.123   7.349   5.203 -1.8880  0.5097 -1.0454
  137MOL   H13943931   1.137   7.189   5.252 -1.0025 -0.3309  2.1875
  137MOL   H14043932   0.917   7.360   5.387 -0.0042  0.2124 -0.2686
  137MOL   H14143933   0.738   7.231   5.458  2.5753  1.2748  1.4384
  137MOL   H14243934   0.634   7.023   5.515  0.6523 -0.0864  0.2917
  137MOL   H14343935   0.756   6.814   5.486 -0.8975  0.5843 -0.0207
  137MOL   H14443936   1.024   6.829   5.478 -0.2449  0.5035  0.9782
  137MOL   H14543937   1.125   7.039   5.436  0.3727 -2.1681  1.2099
  137MOL   C14643938   1.107   7.330   5.481  0.6952 -0.4241 -0.1132
  137MOL   C14743939   1.033   7.377   5.618 -0.3752  0.9242  0.0924
  137MOL   C14843940   1.119   7.325   5.733  0.3444 -0.4940 -0.1954
  137MOL   C14943941   1.058   7.230   5.824 -0.3933  0.4088 -0.1711
  137MOL   C15043942   1.144   7.175   5.920 -0.0966 -0.4900 -0.4394
  137MOL   C15143943   1.277   7.216   5.933 -0.5358 -0.2275 -0.0439
  137MOL   C15243944   1.335   7.307   5.842 -0.1311  0.1346 -0.4221
  137MOL   C15343945   1.254   7.358   5.743  0.1142 -0.1309 -0.6104
  137MOL   H15443946   1.179   7.404   5.444  1.3407 -0.7045  0.5672
  137MOL   H15543947   1.171   7.247   5.511  2.4295  0.6904 -0.6287
  137MOL   H15643948   0.933   7.332   5.614 -0.0401  0.2611 -1.0138
  137MOL   H15743949   0.954   7.201   5.821 -0.3208  0.2693 -2.1525
  137MOL   H15843950   1.117   7.102   5.995  1.5059  1.0811  1.7425
  137MOL   H15943951   1.337   7.169   6.009  0.8283  3.2198  1.1345
  137MOL   H16043952   1.439   7.337   5.840 -0.1641  0.2187 -1.1268
  137MOL   H16143953   1.290   7.438   5.680 -1.3354  1.0143 -0.0101
  137MOL   C16243954   1.018   7.531   5.625  0.0079 -0.6011 -0.4026
  137MOL   C16343955   0.920   7.592   5.524 -0.1340 -0.4759  0.1126
  137MOL   C16443956   0.787   7.546   5.569 -0.0934  0.3476 -0.2921
  137MOL   C16543957   0.694   7.511   5.468  0.6213  0.1717  0.5244
  137MOL   C16643958   0.564   7.477   5.503  0.0039  0.0713  0.9060
  137MOL   C16743959   0.515   7.486   5.633  0.6625 -0.4259 -0.4075
  137MOL   C16843960   0.601   7.519   5.738 -0.0056  0.0058 -0.0758
  137MOL   C16943961   0.738   7.555   5.698 -0.4406  0.0352  0.0922
  137MOL   H17043962   1.111   7.580   5.598  0.3828 -0.0863  1.7254
  137MOL   H17143963   1.005   7.574   5.724 -1.3448 -2.7889  0.4117
  137MOL   H17243964   0.939   7.558   5.422 -0.4313 -4.6722  1.3721
  137MOL   H17343965   0.726   7.504   5.365  2.1239  1.0550  0.9185
  137MOL   H17443966   0.494   7.447   5.426  0.3645 -0.8424  0.9342
  137MOL   H17543967   0.415   7.461   5.666  0.2907  1.9312  0.3100
  137MOL   H17643968   0.574   7.515   5.842 -0.4372 -1.9638 -0.2410
  137MOL   H17743969   0.801   7.583   5.781 -2.6203 -0.4546  1.9724
  137MOL   C17843970   0.926   7.744   5.524 -0.1966 -0.2446  0.5237
  137MOL   C17943971   1.043   7.812   5.440  0.3030  0.2913 -0.0872
  137MOL   C18043972   1.043   7.764   5.297 -0.4228  0.1442  0.0663
  137MOL   C18143973   1.164   7.709   5.241  0.1614 -0.1837  0.0528
  137MOL   C18243974   1.163   7.671   5.108 -0.2716  0.0751 -0.2359
  137MOL   C18343975   1.050   7.690   5.025 -0.1186 -0.1396  0.5551
  137MOL   C18443976   0.932   7.748   5.075 -0.2024  0.1041  0.4717
  137MOL   C18543977   0.929   7.781   5.212 -0.1183  0.0319  0.1623
  137MOL   H18643978   0.936   7.780   5.626  0.5473  0.3382  0.2490
  137MOL   H18743979   0.833   7.786   5.485 -0.6471  0.7082  2.6055
  137MOL   H18843980   1.137   7.783   5.487 -0.1743  0.7707  1.2132
  137MOL   H18943981   1.259   7.709   5.292  0.1469  1.0280  0.0867
  137MOL   H19043982   1.251   7.631   5.060 -0.3214 -1.3183  0.7770
  137MOL   H19143983   1.047   7.655   4.923 -0.0133  1.1824  0.0848
  137MOL   H19243984   0.845   7.757   5.012 -0.0935 -0.4275  0.2442
  137MOL   H19343985   0.838   7.812   5.262  0.0037 -1.9230  1.6327
  137MOL   C19443986   1.034   7.965   5.462  0.3980 -0.7130 -0.2471
  137MOL   C19543987   1.162   8.044   5.421  0.0506  0.1195 -0.0674
  137MOL   C19643988   1.126   0.082   5.405  0.7739  0.5349 -0.0814
  137MOL   C19743989   1.037   0.140   5.498 -0.2007  0.1013 -0.5821
  137MOL   C19843990   1.001   0.270   5.487 -0.5887 -0.6362  0.2701
  137MOL   C19943991   1.052   0.345   5.374 -0.1314  0.1680 -0.7409
  137MOL   C20043992   1.134   0.285   5.277  1.0610 -0.2034 -0.0743
  137MOL   C20143993   1.174   0.153   5.296 -0.5138 -0.2718 -0.2060
  137MOL   H20243994   1.016   7.986   5.568 -0.7837  0.7577 -0.7086
  137MOL   H20343995   0.941   8.009   5.426  1.2030  1.8599  0.7269
  137MOL   H20443996   1.169   8.010   5.318 -0.1093 -4.3065  1.2767
  137MOL   H20543997   1.009   0.090   5.590 -0.4047  1.7110  0.2516
  137MOL   H20643998   0.947   0.318   5.568 -2.9140  1.3113 -2.3590
  137MOL   H20743999   1.020   0.444   5.343 -0.9954 -0.2981 -1.3438
  137MOL   H20844000   1.170   0.337   5.190 -0.2609  0.9032  0.0153
  137MOL   H20944001   1.231   0.102   5.220  1.6422  0.0938  1.1287
  137MOL   C21044002   1.297   8.021   5.496  0.5340  0.4165 -0.0876
  137MOL   C21144003   1.316   8.074   5.641 -0.3402 -0.2338  0.5073
  137MOL   C21244004   1.230   8.022   5.754  0.0605 -0.0781  0.5046
  137MOL   C21344005   1.227   7.876   5.773 -0.1905  0.6920  0.1928
  137MOL   C21444006   1.169   7.818   5.889  0.0741  0.0320 -0.3234
  137MOL   C21544007   1.108   7.906   5.977 -0.2023  0.0950 -0.5030
  137MOL   C21644008   1.101   8.048   5.960 -0.2969 -0.0192  0.2770
  137MOL   C21744009   1.170   8.106   5.846 -0.0537 -1.2455  0.3828
  137MOL   H21844010   1.378   8.065   5.438  0.0935  2.7496  1.0105
  137MOL   H21944011   1.323   7.917   5.512 -0.0520  0.0412 -1.5192
  137MOL   H22044012   1.295   0.066   5.648  1.4215  0.0709  1.2625
  137MOL   H22144013   1.285   7.824   5.698 -1.2060  0.3153 -0.3348
  137MOL   H22244014   1.158   7.711   5.892  0.7310 -0.0711 -1.3257
  137MOL   H22344015   1.061   7.857   6.061  2.4022 -1.9033 -0.1499
  137MOL   H22444016   1.061   8.112   6.037  0.4687  0.8868 -0.0607
  137MOL   H22544017   1.169   0.097   5.828 -4.3982 -1.5259 -1.6549
  137MOL   C22644018   1.464   8.076   5.695  1.3062  0.4587  0.1804
  137MOL   C22744019   1.574   0.036   5.612 -0.9662  0.5349  0.4924
  137MOL   C22844020   1.545   0.186   5.626  0.3688  0.5002  0.5259
  137MOL   C22944021   1.480   0.262   5.519 -0.2998  0.2270  0.0678
  137MOL   C23044022   1.473   0.401   5.533 -0.1017 -0.3775  0.3359
  137MOL   C23144023   1.523   0.473   5.638 -0.7053  0.3706  0.0543
  137MOL   C23244024   1.578   0.401   5.743  0.5885  0.1704 -0.8934
  137MOL   C23344025   1.585   0.260   5.737  0.1951  0.1847  0.1853
  137MOL   H23444026   1.503   7.975   5.704  2.7842  1.0093 -0.0365
  137MOL   H23544027   1.457   0.003   5.795 -3.0844 -0.0005  0.1870
  137MOL   H23644028   1.559   0.009   5.507 -1.8179 -1.3213  1.0646
  137MOL   H23744029   1.443   0.208   5.433 -0.0414 -1.4306  0.9651
  137MOL   H23844030   1.419   0.461   5.461  2.0609  1.4433  0.1927
  137MOL   H23944031   1.510   0.579   5.649  1.1793  0.6812 -0.5929
  137MOL   H24044032   1.614   0.443   5.836  0.6932  0.4571 -1.0610
  137MOL   H24144033   1.624   0.200   5.818 -1.0156 -0.0526  0.6048
  137MOL   C24244034   1.719   8.113   5.650  0.4588 -0.2121  0.0805
  137MOL   C24344035   1.778   7.979   5.612 -0.3589 -0.1878 -0.0357
  137MOL   C24444036   1.711   7.893   5.503  0.0115 -0.1426  0.1896
  137MOL   C24544037   1.629   7.783   5.538  0.1385  0.2283 -0.5866
  137MOL   C24644038   1.549   7.719   5.445 -0.4191 -0.0225 -0.1069
  137MOL   C24744039   1.555   7.759   5.307  0.4396  0.2287 -0.6903
  137MOL   C24844040   1.644   7.857   5.266  0.1664 -0.3324  0.4777
  137MOL   C24944041   1.722   7.923   5.364  0.3399 -0.1953 -0.0177
  137MOL   H25044042   1.735   0.011   5.757  0.7218 -1.0504  0.1400
  137MOL   H25144043   1.782   0.071   5.599 -0.6031  0.0469 -0.8819
  137MOL   H25244044   1.772   7.905   5.692  0.3240 -0.4589 -0.2375
  137MOL   H25344045   1.628   7.756   5.642  1.8653  2.4350  0.0423
  137MOL   H25444046   1.487   7.636   5.474  0.7506 -1.2580 -1.1062
  137MOL   H25544047   1.495   7.697   5.242  0.1282  0.6196 -0.7838
  137MOL   H25644048   1.663   7.895   5.167 -0.1848 -2.0041 -0.2459
  137MOL   H25744049   1.783   8.007   5.332  2.1124 -0.8846  1.4905
  137MOL   C25844050   1.935   7.999   5.582 -0.6518 -0.1272 -0.1624
  137MOL   C25944051   2.019   8.075   5.690 -0.3541 -0.3736 -0.0214
  137MOL   C26044052   2.022   7.996   5.820  0.5063  0.0863 -0.0723
  137MOL   C26144053   1.953   8.038   5.938 -0.2831 -0.1250 -0.5948
  137MOL   C26244054   1.937   7.953   6.044  0.2394  0.3365  0.1506
  137MOL   C26344055   2.020   7.842   6.054 -0.3758 -0.7703  0.1055
  137MOL   C26444056   2.086   7.803   5.936 -0.0795 -0.4152  0.0891
  137MOL   C26544057   2.085   7.875   5.816 -0.2389 -0.5855 -0.6376
  137MOL   H26644058   1.926   8.055   5.489 -2.1867 -0.6758 -0.3596
  137MOL   H26744059   1.969   7.897   5.562 -1.7896 -0.5920  0.2220
  137MOL   H26844060   1.958   0.045   5.719  0.4124 -0.0196  0.5823
  137MOL   H26944061   1.897   0.015   5.951  2.5616  1.4789  0.6985
  137MOL   H27044062   1.883   7.988   6.131  1.1606 -0.2443  0.9712
  137MOL   H27144063   2.013   7.788   6.147 -1.6229 -1.4360 -0.3613
  137MOL   H27244064   2.140   7.710   5.926 -1.6361 -1.1026 -2.4032
  137MOL   H27344065   2.153   7.852   5.736  2.9829  0.4908  1.6832
  137MOL   C27444066   2.157   0.012   5.653  0.1704 -0.2227 -0.2284
  137MOL   C27544067   2.159   0.081   5.512  0.7942  0.2691  0.5281
  137MOL   C27644068   2.044   0.179   5.489 -0.4756  0.0287 -0.2135
  137MOL   C27744069   1.969   0.180   5.370 -0.2784 -0.2074 -0.1274
  137MOL   C27844070   1.861   0.270   5.357  0.4343  1.5307 -0.4815
  137MOL   C27944071   1.837   0.363   5.457 -0.2796  0.4925  0.3170
  137MOL   C28044072   1.914   0.363   5.575  0.5032  0.3589 -0.1652
  137MOL   C28144073   2.016   0.269   5.596  0.0371  0.2596  0.3870
  137MOL   H28244074   2.234   8.049   5.647  0.3516 -0.1553  1.0233
  137MOL   H28344075   2.197   0.081   5.727  0.2520  2.0432 -2.3137
  137MOL   H28444076   2.137   0.003   5.438 -2.8991  2.5756 -0.9440
  137MOL   H28544077   2.000   0.106   5.297  1.3836 -1.8976  2.2121
  137MOL   H28644078   1.812   0.277   5.261 -0.1272  2.7882 -0.1108
  137MOL   H28744079   1.758   0.434   5.441 -2.3315 -1.2960  2.2139
  137MOL   H28844080   1.893   0.440   5.649 -0.0519 -0.8800  0.9908
  137MOL   H28944081   2.072   0.275   5.688 -0.5429  2.4480  0.6290
  137MOL   C29044082   2.307   0.145   5.478  0.2554 -0.0264 -0.3168
  137MOL   C29144083   2.316   0.190   5.326 -0.4309  0.0078 -0.2778
  137MOL   C29244084   2.431   0.291   5.318  0.5711 -0.1560 -0.4708
  137MOL   C29344085   2.416   0.409   5.252  0.4259  0.1556 -0.1321
  137MOL   C29444086   2.524   0.494   5.229 -0.4872 -0.0932  0.6695
  137MOL   C29544087   2.650   0.473   5.291  0.4528 -0.8738 -0.1340
  137MOL   C29644088   2.667   0.355   5.362  0.0871 -0.2186 -0.1043
  137MOL   C29744089   2.561   0.260   5.368  0.2095 -0.6146 -0.5759
  137MOL   H29844090   2.384   0.069   5.493  2.3143  2.0349 -0.2659
  137MOL   H29944091   2.321   0.213   5.562 -2.1943 -0.7181  0.7186
  137MOL   H30044092   2.228   0.246   5.294 -1.5227 -0.7250  1.3984
  137MOL   H30144093   2.322   0.454   5.226  0.0042 -1.7775 -2.0627
  137MOL   H30244094   2.509   0.589   5.179  0.0345  0.0316  0.7525
  137MOL   H30344095   2.721   0.554   5.282 -1.2580  0.6455 -0.3200
  137MOL   H30444096   2.767   0.343   5.402  0.8299  0.8984 -1.5944
  137MOL   H30544097   2.578   0.159   5.404 -0.7365 -0.2930  0.8252
  137MOL   C30644098   2.329   0.069   5.220  0.1257 -0.6070  0.1610
  137MOL   C30744099   2.323   0.114   5.072  0.1157 -0.1266  0.0727
  137MOL   C30844100   2.179   0.123   5.032 -0.1323 -0.0957  0.2279
  137MOL   C30944101   2.107   0.244   5.034 -0.2015  0.4498 -0.0734
  137MOL   C31044102   1.969   0.250   5.016 -0.2644  0.4197  0.9512
  137MOL   C31144103   1.900   0.129   5.005 -0.0220  0.0797  0.5689
  137MOL   C31244104   1.964   0.003   5.000 -0.1890  0.0708  0.2732
  137MOL   C31344105   2.108   0.006   4.999  0.6213  0.3531 -0.2137
  137MOL   H31444106   2.244   0.001   5.227 -2.1434  2.0896 -0.4591
  137MOL   H31544107   2.426   0.023   5.239  0.8971  1.3353  1.0168
  137MOL   H31644108   2.378   0.040   5.014  0.2498  1.0842 -1.3913
  137MOL   H31744109   2.150   0.337   5.068  0.5792 -0.7558  2.3926
  137MOL   H31844110   1.921   0.346   5.005 -0.3017  0.1292 -2.0174
  137MOL   H31944111   1.793   0.145   5.000 -0.2041  0.1255  3.6164
  137MOL   H32044112   1.909   8.031   4.964  2.2391 -1.1472 -0.6603
  137MOL   H32144113   2.157   8.025   5.003 -0.3243 -0.1366 -0.1400
  137MOL   H32244114   2.382   0.206   5.068 -0.4395  0.3692  2.5443
  138MOL     C144115   5.340   3.854   7.292 -0.4971  0.3408  0.3270
  138MOL     C244116   5.281   3.803   7.159 -0.3067  0.9550  0.8134
  138MOL     C344117   5.351   3.852   7.040  0.1872 -0.1025  0.0537
  138MOL     C444118   5.496   3.849   7.039 -0.3295  0.0009 -0.2845
  138MOL     C544119   5.564   3.867   6.913  0.2010 -0.3849 -0.1817
  138MOL     C644120   5.484   3.899   6.801 -0.1780 -0.1191 -0.3228
  138MOL     C744121   5.349   3.910   6.807  0.3535  0.3673  0.4633
  138MOL     C844122   5.274   3.893   6.927  0.4989 -0.3048  0.2339
  138MOL     H944123   5.343   3.963   7.286  0.8607  0.2523 -0.9945
  138MOL    H1044124   5.285   3.821   7.379 -0.4714 -1.1941 -0.2245
  138MOL    H1144125   5.176   3.829   7.146 -0.2917  1.1216  1.0396
  138MOL    H1244126   5.555   3.816   7.122 -3.3858 -1.0301  1.5570
  138MOL    H1344127   5.671   3.855   6.914  0.5276  2.3246  1.6744
  138MOL    H1444128   5.543   3.927   6.714 -0.4828  0.0757 -0.4697
  138MOL    H1544129   5.280   3.935   6.728  0.1460 -1.8081 -0.0561
  138MOL    H1644130   5.166   3.883   6.932  0.4844 -0.8253 -0.9491
  138MOL    H1744131   5.444   3.829   7.310 -0.6377 -0.9037 -0.4961
  138MOL    C1844132   5.287   3.645   7.158  0.3663  0.3958 -0.8077
  138MOL    C1944133   5.188   3.584   7.258  0.9084 -0.3267 -0.0959
  138MOL    C2044134   5.046   3.615   7.209  0.7580 -0.5543 -0.1057
  138MOL    C2144135   4.963   3.700   7.286  0.2324  0.4051  0.4591
  138MOL    C2244136   4.837   3.740   7.241  0.4304  0.3205 -0.1879
  138MOL    C2344137   4.784   3.677   7.125 -0.1947  0.8657  0.3590
  138MOL    C2444138   4.867   3.588   7.052 -0.6818 -0.0245 -0.7500
  138MOL    C2544139   4.995   3.556   7.094  0.0819  0.2866  0.5908
  138MOL    H2644140   5.385   3.612   7.194 -0.4684  0.1497  1.2924
  138MOL    H2744141   5.272   3.621   7.052 -0.4764  1.9336 -1.0503
  138MOL    H2844142   5.187   3.641   7.350 -2.1429  1.0798 -0.9268
  138MOL    H2944143   5.005   3.759   7.366  2.2203 -1.4075  0.7848
  138MOL    H3044144   4.792   3.813   7.307 -1.0118 -0.7361  0.0438
  138MOL    H3144145   4.685   3.698   7.087 -0.8888 -1.1420  1.0079
  138MOL    H3244146   4.823   3.545   6.962 -0.3822  0.6778 -1.2324
  138MOL    H3344147   5.058   3.492   7.032 -0.1918  0.3785  0.2149
  138MOL    C3444148   5.205   3.428   7.280  0.5632  0.7290  0.7620
  138MOL    C3544149   5.318   3.384   7.377 -0.9394 -0.5571 -0.3115
  138MOL    C3644150   5.364   3.491   7.480  0.1291 -0.3316 -0.1890
  138MOL    C3744151   5.285   3.507   7.598  0.0105 -0.3075 -0.0112
  138MOL    C3844152   5.309   3.615   7.686 -0.5428 -0.7908  0.4408
  138MOL    C3944153   5.422   3.706   7.668 -0.2404  0.0044  0.1066
  138MOL    C4044154   5.507   3.675   7.565  0.2382 -0.1051  0.1118
  138MOL    C4144155   5.478   3.565   7.471 -0.1008  0.1074 -0.6584
  138MOL    H4244156   5.232   3.387   7.182  0.1906 -0.6064  1.2107
  138MOL    H4344157   5.105   3.396   7.309  0.3280  1.6044  0.9400
  138MOL    H4444158   5.409   3.376   7.318 -0.2797 -0.5057  0.6822
  138MOL    H4544159   5.195   3.450   7.614  0.9519 -2.0870 -0.8319
  138MOL    H4644160   5.241   3.630   7.769 -0.5998  1.7357 -0.0075
  138MOL    H4744161   5.452   3.778   7.743 -2.8066  0.8341  0.4142
  138MOL    H4844162   5.597   3.734   7.556  0.3125 -0.4772 -1.6880
  138MOL    H4944163   5.548   3.563   7.389  0.2506 -0.7949 -0.3391
  138MOL    C5044164   5.291   3.235   7.433 -0.5801  0.5814 -0.0606
  138MOL    C5144165   5.402   3.166   7.525 -0.1348  0.7288 -0.0137
  138MOL    C5244166   5.544   3.200   7.485 -0.3101  0.0328  0.1020
  138MOL    C5344167   5.606   3.128   7.377 -0.3940 -0.4967  0.0434
  138MOL    C5444168   5.743   3.158   7.337 -0.7378  0.0763  0.1565
  138MOL    C5544169   5.808   3.270   7.396 -0.1271 -0.2036 -0.2182
  138MOL    C5644170   5.752   3.332   7.512 -0.2963  0.4503  0.4812
  138MOL    C5744171   5.626   3.296   7.551 -0.1030 -0.1018  0.8941
  138MOL    H5844172   5.276   3.173   7.344  1.3743  0.4667 -0.3304
  138MOL    H5944173   5.198   3.232   7.490 -0.4288 -0.3800  0.1561
  138MOL    H6044174   5.393   3.058   7.511  1.0078  0.2843  2.4919
  138MOL    H6144175   5.549   3.050   7.327 -4.1242  2.1416 -0.0828
  138MOL    H6244176   5.797   3.108   7.257 -0.4623 -0.5888  0.7546
  138MOL    H6344177   5.912   3.283   7.370  0.4075  0.2396  2.0017
  138MOL    H6444178   5.808   3.394   7.580  1.3474 -0.3008 -0.1675
  138MOL    H6544179   5.591   3.352   7.637  0.4623 -2.6603  2.8848
  138MOL    C6644180   5.379   3.190   7.673  0.4075 -0.1418  1.0746
  138MOL    C6744181   5.245   3.127   7.734  0.0255  0.9461  0.1221
  138MOL    C6844182   5.259   2.975   7.715  0.5676 -0.0519 -0.1403
  138MOL    C6944183   5.352   2.896   7.786  0.5804  0.1941  0.9842
  138MOL    C7044184   5.348   2.755   7.790 -0.2219  1.3256 -0.2516
  138MOL    C7144185   5.243   2.690   7.714  1.0755 -0.0591  0.4683
  138MOL    C7244186   5.158   2.764   7.627  0.1532  0.0429 -0.3767
  138MOL    C7344187   5.164   2.908   7.633 -1.2524 -0.3257 -0.0466
  138MOL    H7444188   5.376   3.294   7.705 -1.1052  0.0127  0.4728
  138MOL    H7544189   5.459   3.144   7.730  1.0914  1.5800  1.5114
  138MOL    H7644190   5.156   3.167   7.685 -0.6368  1.4935  1.7655
  138MOL    H7744191   5.429   2.956   7.833  1.1702  0.7537 -0.6418
  138MOL    H7844192   5.430   2.699   7.834 -0.7785  2.0607  1.7695
  138MOL    H7944193   5.243   2.583   7.703 -0.2279 -0.3114  2.6861
  138MOL    H8044194   5.086   2.728   7.555  0.0561  2.6876 -1.6497
  138MOL    H8144195   5.091   2.967   7.579 -0.7193 -0.2188 -0.6587
  138MOL    C8244196   5.216   3.161   7.887 -0.3985  0.1007  0.3494
  138MOL    C8344197   5.142   3.297   7.928 -0.2422 -0.3301  0.0844
  138MOL    C8444198   5.025   3.333   7.839  0.8732  0.4041 -0.5981
  138MOL    C8544199   4.950   3.223   7.783  0.7794 -0.6230 -0.6671
  138MOL    C8644200   4.834   3.257   7.712 -0.5190  0.2313 -0.3805
  138MOL    C8744201   4.796   3.394   7.692  0.3662  0.1128  0.2829
  138MOL    C8844202   4.874   3.500   7.737  0.3841  0.3444 -0.6176
  138MOL    C8944203   4.991   3.468   7.811  0.6861  0.1234  0.6209
  138MOL    H9044204   5.313   3.159   7.937  0.8962  2.3675 -1.9886
  138MOL    H9144205   5.143   3.088   7.922 -2.9064  2.2734 -0.1684
  138MOL    H9244206   5.212   3.374   7.894 -0.2854 -0.4671 -0.3198
  138MOL    H9344207   4.958   3.116   7.795 -0.6174 -0.4506  2.1387
  138MOL    H9444208   4.776   3.178   7.665 -0.8719  0.9154 -1.1077
  138MOL    H9544209   4.720   3.419   7.619 -0.9490 -0.4689  1.4262
  138MOL    H9644210   4.850   3.602   7.710 -0.6247 -0.1554 -1.6320
  138MOL    H9744211   5.054   3.549   7.845 -0.6365  1.7529 -0.7378
  138MOL    C9844212   5.110   3.307   8.073 -0.1025  0.3138  0.1523
  138MOL    C9944213   5.233   3.305   0.053  0.2014 -0.0943 -0.3194
  138MOL   C10044214   5.307   3.440   0.042  0.1040  0.0151 -0.1792
  138MOL   C10144215   5.248   3.565   0.071 -0.0241 -0.7909 -0.2041
  138MOL   C10244216   5.318   3.688   0.073  0.1577  0.3523  0.2823
  138MOL   C10344217   5.452   3.683   0.028  0.2948  0.1826 -0.0175
  138MOL   C10444218   5.516   3.559   0.003  0.3257  0.5442  0.4792
  138MOL   C10544219   5.442   3.441   0.009 -0.4874  0.3973 -0.3799
  138MOL   H10644220   5.034   3.242   0.002  0.7230  0.4368  1.7937
  138MOL   H10744221   5.068   3.407   8.090 -0.3951  0.7316 -2.7366
  138MOL   H10844222   5.312   3.235   0.025  0.8811 -0.0371  1.4046
  138MOL   H10944223   5.147   3.560   0.110  0.3220  0.2794  0.8720
  138MOL   H11044224   5.274   3.777   0.117 -2.0019 -0.4641 -0.2041
  138MOL   H11144225   5.512   3.772   0.035 -1.2881  1.3225 -0.6465
  138MOL   H11244226   5.623   3.552   8.112  0.2971 -1.3639  1.8572
  138MOL   H11344227   5.498   3.352   8.098 -3.0619 -1.2665 -0.3358
  138MOL   C11444228   5.196   3.266   0.194 -0.1006 -0.0626 -0.9980
  138MOL   C11544229   5.184   3.106   0.219 -0.3127  0.1249 -0.2028
  138MOL   C11644230   5.316   3.036   0.203  0.0817  0.6119  0.3362
  138MOL   C11744231   5.324   2.938   0.101  0.1015 -0.3756 -0.6357
  138MOL   C11844232   5.449   2.878   0.063  0.0241 -0.2016  0.5212
  138MOL   C11944233   5.568   2.910   0.135  0.2139 -0.3271  0.5398
  138MOL   C12044234   5.554   2.997   0.246 -0.1001 -0.2744  0.5750
  138MOL   C12144235   5.436   3.067   0.269  1.0322  0.2610 -0.2018
  138MOL   H12244236   5.101   3.313   0.220  0.3223 -0.6989  1.7647
  138MOL   H12344237   5.271   3.309   0.260 -0.6830 -0.2612 -0.2044
  138MOL   H12444238   5.113   3.072   0.144 -1.8712  0.3707  1.1039
  138MOL   H12544239   5.226   2.922   0.057  0.3049  0.2815 -1.3488
  138MOL   H12644240   5.457   2.811   8.093  2.0144  0.0256  0.5043
  138MOL   H12744241   5.663   2.862   0.116  0.6239 -0.2948  2.3934
  138MOL   H12844242   5.640   3.021   0.306  0.9391  0.9739 -1.3575
  138MOL   H12944243   5.427   3.136   0.351 -1.6944  0.2531 -0.4589
  138MOL   C13044244   5.101   3.081   0.350  0.2357 -0.8765  0.2009
  138MOL   C13144245   5.059   2.927   0.363  0.4068 -0.7472 -0.7094
  138MOL   C13244246   5.103   2.869   0.499  0.0262  0.5798 -0.2217
  138MOL   C13344247   5.043   2.904   0.625  0.1105  0.4616  0.3086
  138MOL   C13444248   5.097   2.856   0.743 -0.0672 -0.1115  0.7353
  138MOL   C13544249   5.201   2.768   0.739  0.2021  0.0334 -0.8194
  138MOL   C13644250   5.263   2.733   0.626 -0.6393  0.6238  0.2158
  138MOL   C13744251   5.216   2.782   0.501 -0.1567  0.5666 -0.1926
  138MOL   H13844252   5.015   3.148   0.342  1.7505  1.1887  0.6658
  138MOL   H13944253   5.169   3.105   0.432 -0.6424 -3.0735  1.6196
  138MOL   H14044254   5.095   2.865   0.282  1.8352 -0.3006 -0.4237
  138MOL   H14144255   4.952   2.961   0.634 -0.9528 -0.9582 -0.9812
  138MOL   H14244256   5.046   2.875   0.836 -2.7351 -0.2937 -0.6624
  138MOL   H14344257   5.227   2.718   0.831  0.8962  2.7926  0.5588
  138MOL   H14444258   5.346   2.665   0.618 -0.7674  0.6643 -1.5033
  138MOL   H14544259   5.279   2.753   0.417 -1.2466  0.4584 -0.9804
  138MOL   C14644260   4.905   2.913   0.354 -1.2459  0.2476 -0.0323
  138MOL   C14744261   4.846   2.925   0.213 -0.7070  0.7604  0.3494
  138MOL   C14844262   4.897   2.830   0.105  0.2064  0.3658  0.0840
  138MOL   C14944263   4.888   2.690   0.122  0.0404  0.2444 -0.2386
  138MOL   C15044264   4.932   2.593   0.023 -0.1107 -0.3463 -0.1926
  138MOL   C15144265   4.995   2.632   8.023 -0.2963 -0.4729 -0.0955
  138MOL   C15244266   5.005   2.774   8.000  0.0210 -0.1732  0.1865
  138MOL   C15344267   4.954   2.869   8.095  0.0871 -0.2699 -0.1749
  138MOL   H15444268   4.861   2.984   0.425 -1.5921 -1.3580  1.3957
  138MOL   H15544269   4.875   2.812   0.379 -0.1061 -0.0276  0.2253
  138MOL   H15644270   4.877   3.022   0.173 -1.0545  1.0305  0.7316
  138MOL   H15744271   4.851   2.643   0.211 -3.8862  0.8156 -1.4720
  138MOL   H15844272   4.923   2.489   0.049 -1.2605 -0.6231 -1.6803
  138MOL   H15944273   5.015   2.556   7.950 -0.0494 -0.1915 -0.3233
  138MOL   H16044274   5.048   2.805   7.905 -1.6429 -1.3823 -0.9781
  138MOL   H16144275   4.966   2.974   8.071 -1.7681 -0.1141 -0.4672
  138MOL   C16244276   4.691   2.924   0.217 -0.5045  0.5378  0.0353
  138MOL   C16344277   4.621   3.049   0.277  0.6241  0.4914  0.0103
  138MOL   C16444278   4.654   3.166   0.182  0.1991  0.2105  0.3999
  138MOL   C16544279   4.754   3.262   0.214  0.2033 -0.0117  0.1274
  138MOL   C16644280   4.780   3.369   0.126  0.6835 -0.0846  0.0590
  138MOL   C16744281   4.719   3.366   8.112  0.5605  0.1966  0.2084
  138MOL   C16844282   4.633   3.264   8.080  0.2701  0.7531  0.7729
  138MOL   C16944283   4.585   3.176   0.063  0.0396  0.0755 -0.0972
  138MOL   H17044284   4.657   2.833   0.268 -1.2171  0.9216  0.2552
  138MOL   H17144285   4.641   2.909   0.121 -1.9386  0.1296  0.8166
  138MOL   H17244286   4.655   3.071   0.378 -0.6432 -0.6466  0.7006
  138MOL   H17344287   4.815   3.265   0.303  0.8796 -0.1680 -0.3278
  138MOL   H17444288   4.856   3.442   0.150  2.2294 -2.1741  1.6107
  138MOL   H17544289   4.759   3.435   8.040  0.4840  3.1958  2.9451
  138MOL   H17644290   4.599   3.260   7.977  1.9980 -2.2041  0.2678
  138MOL   H17744291   4.517   3.098   0.031  0.2743 -0.3893  0.5270
  138MOL   C17844292   4.466   3.032   0.302 -0.9018 -0.0760  0.1790
  138MOL   C17944293   4.423   2.925   0.404 -0.1745  0.2230  0.3032
  138MOL   C18044294   4.488   2.949   0.536 -0.1371  0.1453  0.1730
  138MOL   C18144295   4.563   2.838   0.589  0.1742  0.1973 -0.2787
  138MOL   C18244296   4.638   2.860   0.705 -0.2858  0.3304  0.1538
  138MOL   C18344297   4.623   2.981   0.779  0.8272  0.0813 -0.2129
  138MOL   C18444298   4.551   3.092   0.728  0.0082 -0.5741  0.2060
  138MOL   C18544299   4.476   3.074   0.608 -0.9470  0.0516 -0.0315
  138MOL   H18644300   4.420   3.016   0.204  1.1006 -3.5038 -0.3191
  138MOL   H18744301   4.431   3.125   0.345 -1.1110  0.0792 -0.3269
  138MOL   H18844302   4.471   2.836   0.363 -4.6331 -1.4377 -1.5454
  138MOL   H18944303   4.573   2.740   0.544  2.4283  2.1202 -4.2156
  138MOL   H19044304   4.702   2.784   0.746  1.0367  0.2788 -1.9115
  138MOL   H19144305   4.673   2.989   0.874  0.7313  0.0967 -0.1639
  138MOL   H19244306   4.551   3.186   0.781  0.7565 -0.2759 -0.3241
  138MOL   H19344307   4.429   3.164   0.569 -0.3011  1.0972  1.5453
  138MOL   C19444308   4.266   2.903   0.406 -0.2823 -0.7215  0.7170
  138MOL   C19544309   4.205   2.838   0.282 -0.3829  0.0391  0.5173
  138MOL   C19644310   4.214   2.684   0.271 -0.3480 -1.0872 -0.0050
  138MOL   C19744311   4.282   2.611   0.371 -0.2764 -0.3780 -0.3146
  138MOL   C19844312   4.285   2.472   0.354  0.6328  0.1468  0.3359
  138MOL   C19944313   4.230   2.403   0.240  0.3790  0.1579 -1.4880
  138MOL   C20044314   4.174   2.483   0.135 -0.2490 -0.2201  0.7762
  138MOL   C20144315   4.168   2.620   0.150  0.2417 -0.2598 -0.2776
  138MOL   H20244316   4.230   3.005   0.416 -0.3501 -0.7991  1.2472
  138MOL   H20344317   4.241   2.844   0.494 -2.8634 -1.2407 -0.3178
  138MOL   H20444318   4.264   2.862   0.193 -1.7603  2.6642  0.2657
  138MOL   H20544319   4.322   2.651   0.464 -0.9713 -0.6616  0.1100
  138MOL   H20644320   4.336   2.405   0.422 -1.7578  0.0845  2.1080
  138MOL   H20744321   4.237   2.296   0.223 -3.1302 -0.2145 -0.8696
  138MOL   H20844322   4.147   2.435   0.042 -3.4813  0.7402  1.1729
  138MOL   H20944323   4.136   2.677   0.064  0.8276  0.9899  0.3151
  138MOL   C21044324   4.069   2.903   0.249  0.6206  0.1584  0.0272
  138MOL   C21144325   4.081   3.054   0.207 -0.2819  0.5486 -0.0115
  138MOL   C21244326   4.104   3.068   0.057  0.5219  0.1893  0.1076
  138MOL   C21344327   4.219   3.139   0.012  0.0562 -0.7002 -0.1322
  138MOL   C21444328   4.235   3.162   7.991  0.5846 -0.1206  0.0891
  138MOL   C21544329   4.132   3.124   7.901  0.3035 -0.2604 -0.0813
  138MOL   C21644330   4.020   3.047   7.944  0.2161  0.7148  0.5096
  138MOL   C21744331   4.010   3.014   8.079  0.7641 -0.5760  0.4810
  138MOL   H21844332   4.015   2.886   0.343 -0.1723  2.4292  0.0037
  138MOL   H21944333   4.002   2.840   0.190 -0.7663  0.6776  1.0068
  138MOL   H22044334   4.166   3.103   0.255 -0.1638  0.1364  0.2030
  138MOL   H22144335   4.294   3.171   0.082  2.6420 -1.5278 -2.4254
  138MOL   H22244336   4.313   3.230   7.961 -1.5494  2.4725  0.1494
  138MOL   H22344337   4.153   3.161   7.802  1.6065 -0.1781  0.2047
  138MOL   H22444338   3.951   3.009   7.870 -1.6046  2.9263  1.0078
  138MOL   H22544339   3.933   2.949   0.004 -0.1796  0.3448  0.1738
  138MOL   C22644340   3.966   3.142   0.268 -1.1417  0.0130 -0.0244
  138MOL   C22744341   3.950   3.287   0.226  0.1910 -0.5367  0.1475
  138MOL   C22844342   3.801   3.324   0.245 -0.5702  0.0065  0.6359
  138MOL   C22944343   3.748   3.340   0.376  0.2541 -0.6878  0.9100
  138MOL   C23044344   3.612   3.344   0.400  0.7937  0.7258 -0.4040
  138MOL   C23144345   3.524   3.343   0.290 -0.2497  0.4279  0.3203
  138MOL   C23244346   3.578   3.328   0.157  0.7149  0.3517  0.0592
  138MOL   C23344347   3.710   3.311   0.135 -0.2765 -0.4364 -0.6000
  138MOL   H23444348   3.973   3.130   0.377  1.1177  1.3323  0.0110
  138MOL   H23544349   3.885   3.084   0.225  0.4649 -1.8999 -0.5762
  138MOL   H23644350   3.957   3.290   0.117  0.2572 -3.2632  0.0618
  138MOL   H23744351   3.817   3.346   0.460  1.3705  1.2796 -0.1083
  138MOL   H23844352   3.568   3.345   0.498 -1.4161 -2.0852 -1.3071
  138MOL   H23944353   3.416   3.341   0.296 -0.3403 -2.1132 -1.6079
  138MOL   H24044354   3.505   3.318   0.077  1.9037 -2.2302 -0.7409
  138MOL   H24144355   3.742   3.307   0.032  1.1845  0.0918 -0.1911
  138MOL   C24244356   4.055   3.374   0.297  0.3427 -0.1621  0.5772
  138MOL   C24344357   4.089   3.515   0.235 -0.4915 -0.4209  0.1439
  138MOL   C24444358   4.181   3.587   0.331 -0.2717 -0.8755  0.0430
  138MOL   C24544359   4.298   3.516   0.368  0.0554  0.2895 -0.3598
  138MOL   C24644360   4.383   3.574   0.471 -0.6733 -0.2273  0.4404
  138MOL   C24744361   4.358   3.704   0.529  0.1354  0.4113  0.0589
  138MOL   C24844362   4.245   3.773   0.484 -0.0123  0.0213  0.3784
  138MOL   C24944363   4.156   3.715   0.389  0.1010 -0.5502  0.0847
  138MOL   H25044364   4.142   3.309   0.289  1.2370  0.9612  1.0713
  138MOL   H25144365   4.035   3.375   0.405 -0.6867  0.9392  0.3751
  138MOL   H25244366   4.003   3.580   0.222  0.0812  0.7890  2.1898
  138MOL   H25344367   4.322   3.424   0.317 -0.5778  0.1541 -0.4087
  138MOL   H25444368   4.468   3.511   0.492  1.0169  1.3527 -1.5351
  138MOL   H25544369   4.423   3.752   0.601 -0.6752  1.3417  0.1777
  138MOL   H25644370   4.227   3.876   0.512 -0.1502  1.0527 -3.2177
  138MOL   H25744371   4.065   3.770   0.367  0.8033  0.5388 -0.1034
  138MOL   C25844372   4.160   3.513   0.097 -0.1802  0.4145  0.3903
  138MOL   C25944373   4.113   3.615   8.106 -0.6490  0.1616 -0.2640
  138MOL   C26044374   3.972   3.582   8.047 -0.6689 -0.2603 -0.5875
  138MOL   C26144375   3.967   3.467   7.967 -0.3626 -0.5596  0.2796
  138MOL   C26244376   3.844   3.424   7.919 -0.1788 -0.3969  0.5950
  138MOL   C26344377   3.728   3.499   7.950 -0.0786  0.4335 -0.1369
  138MOL   C26444378   3.737   3.615   8.029  0.3631 -0.0150  0.2517
  138MOL   C26544379   3.859   3.656   8.081 -0.4119 -0.4133  0.1472
  138MOL   H26644380   4.143   3.414   0.055  0.6791  0.4242  0.0040
  138MOL   H26744381   4.268   3.519   0.105 -0.1930  0.4131  0.5769
  138MOL   H26844382   4.172   3.585   8.019  1.8018 -0.0418  1.4296
  138MOL   H26944383   4.057   3.412   7.941 -0.1675  0.5365 -1.4755
  138MOL   H27044384   3.841   3.336   7.856 -0.4390 -0.5428  0.8097
  138MOL   H27144385   3.633   3.461   7.917  0.3436  1.6062 -2.7895
  138MOL   H27244386   3.651   3.672   8.062  0.7363  2.3237 -2.5673
  138MOL   H27344387   3.860   3.741   0.033  0.4876 -0.0714 -0.2946
  138MOL   C27444388   4.136   3.760   0.031 -0.7265  0.6457 -0.0044
  138MOL   C27544389   4.120   3.867   8.041  0.5889 -0.4024  0.5529
  138MOL   C27644390   4.127   4.001   8.110  0.1920 -0.3424 -0.1838
  138MOL   C27744391   4.244   4.065   0.020 -0.3404 -0.7716 -0.0841
  138MOL   C27844392   4.254   4.187   0.088 -0.1130  0.0270 -0.1294
  138MOL   C27944393   4.134   4.256   0.127  0.3652  0.0630  0.7321
  138MOL   C28044394   4.013   4.181   0.113 -0.0450  0.3979  0.1243
  138MOL   C28144395   4.010   4.064   0.041  1.0050  0.3560  0.0593
  138MOL   H28244396   4.241   3.753   0.059 -0.4269 -0.3068 -1.3053
  138MOL   H28344397   4.076   3.784   0.119  1.2527  1.1392  1.2556
  138MOL   H28444398   4.015   3.851   8.015  0.7243  0.5178 -0.6048
  138MOL   H28544399   4.338   4.027   8.098 -0.1405 -0.2133 -0.1519
  138MOL   H28644400   4.352   4.225   0.113  0.6599 -1.7755 -0.3565
  138MOL   H28744401   4.135   4.346   0.186  1.3395 -0.4784  1.5411
  138MOL   H28844402   3.915   4.214   0.146  1.2102 -0.3222  5.0037
  138MOL   H28944403   3.914   4.017   0.024 -0.2643  2.5220  1.0391
  138MOL   C29044404   4.215   3.846   7.924 -0.2394 -0.4384 -0.1723
  138MOL   C29144405   4.147   3.769   7.806  0.4586 -0.4109 -0.0000
  138MOL   C29244406   4.035   3.851   7.750 -0.3896  0.6017 -0.3796
  138MOL   C29344407   3.906   3.793   7.730  0.8382  0.1391 -0.2313
  138MOL   C29444408   3.800   3.861   7.678 -0.2563 -0.5175  0.3914
  138MOL   C29544409   3.822   4.000   7.646  0.4156  0.0491  0.0571
  138MOL   C29644410   3.945   4.060   7.664  0.1021  0.2287 -0.5948
  138MOL   C29744411   4.053   3.990   7.712  0.1479  0.3800  0.1778
  138MOL   H29844412   4.295   3.782   7.962 -1.1573 -1.5465 -0.1027
  138MOL   H29944413   4.266   3.932   7.880 -2.4778  0.3524 -1.2502
  138MOL   H30044414   4.105   3.676   7.844  0.0369  0.4069  1.6093
  138MOL   H30144415   3.882   3.689   7.748 -0.1769  0.4308  0.1577
  138MOL   H30244416   3.703   3.817   7.658  0.7649 -1.8475 -1.7833
  138MOL   H30344417   3.742   4.062   7.607 -1.6416 -1.7355  1.3324
  138MOL   H30444418   3.955   4.163   7.634 -1.6672  0.6672  0.2728
  138MOL   H30544419   4.148   4.039   7.726  0.3148  0.9690 -2.7633
  138MOL   C30644420   4.236   3.723   7.693  0.1954 -0.0810  0.1633
  138MOL   C30744421   4.167   3.640   7.588 -0.4413 -0.1490 -0.0046
  138MOL   C30844422   4.266   3.542   7.524  0.1577 -0.1651 -0.2542
  138MOL   C30944423   4.367   3.590   7.441 -0.0578 -0.0878 -0.6535
  138MOL   C31044424   4.451   3.506   7.366  0.7473 -0.0695 -0.5744
  138MOL   C31144425   4.435   3.368   7.389 -0.3676 -0.0947 -0.7989
  138MOL   C31244426   4.333   3.314   7.471 -0.1428 -0.0064 -0.4497
  138MOL   C31344427   4.245   3.404   7.541  0.3493  1.1011  0.7306
  138MOL   H31444428   4.305   3.658   7.748  1.6461  2.5175  1.5221
  138MOL   H31544429   4.299   3.798   7.644  2.4294 -1.2331  1.1627
  138MOL   H31644430   4.126   3.718   7.524 -1.9959  0.9099  2.2026
  138MOL   H31744431   4.375   3.696   7.425  0.7720  0.0305  0.4194
  138MOL   H31844432   4.527   3.545   7.300  2.3791  1.1461  1.9600
  138MOL   H31944433   4.506   3.305   7.337  2.4427  1.6869  0.7706
  138MOL   H32044434   4.313   3.209   7.463 -2.8541  0.4755 -0.5127
  138MOL   H32144435   4.164   3.363   7.598  0.9602 -2.6316 -0.9481
  138MOL   H32244436   4.092   3.578   7.637 -1.0270 -0.1814 -0.9303
  139MOL     C144437   4.856   0.127   7.912  0.2202 -0.4667  0.1162
  139MOL     C244438   4.722   0.094   7.973  0.7277 -0.5220 -0.9067
  139MOL     C344439   4.627   0.200   7.935  0.3989 -0.3024  0.7487
  139MOL     C444440   4.612   0.230   7.799 -0.1445 -0.2601  0.4319
  139MOL     C544441   4.504   0.320   7.762 -0.6541  0.1701 -0.3621
  139MOL     C644442   4.426   0.382   7.861  0.3723 -0.2509  0.2634
  139MOL     C744443   4.453   0.361   7.998 -0.1249  0.0212  0.1889
  139MOL     C844444   4.551   0.268   8.036 -0.2216  0.0768  0.9661
  139MOL     H944445   4.883   0.231   7.931  1.8573 -0.2909 -2.9577
  139MOL    H1044446   4.933   0.067   7.962 -0.0998  0.8736  2.3080
  139MOL    H1144447   4.739   0.091   8.080  0.0451  0.5331 -0.7603
  139MOL    H1244448   4.665   0.183   7.717  2.6177 -1.7303  2.9664
  139MOL    H1344449   4.482   0.327   7.657  0.0849 -1.1994 -0.6220
  139MOL    H1444450   4.344   0.444   7.828  0.1100  0.4798  2.2555
  139MOL    H1544451   4.390   0.412   8.070 -2.1427 -2.8196  0.5512
  139MOL    H1644452   4.547   0.241   0.026 -1.2378  0.9057  1.1554
  139MOL    H1744453   4.866   0.122   7.804 -0.3206  0.0117  0.0416
  139MOL    C1844454   4.667   8.074   7.939  0.0610  0.1721 -0.6238
  139MOL    C1944455   4.756   7.961   8.006 -0.1314  0.3996  0.4835
  139MOL    C2044456   4.751   7.967   0.040 -0.1685  0.4833 -0.1572
  139MOL    C2144457   4.640   7.985   0.120  0.1814  0.5095 -0.4935
  139MOL    C2244458   4.650   7.995   0.263 -1.1864 -1.0780 -1.1261
  139MOL    C2344459   4.778   8.012   0.320 -0.6200 -0.4069  0.2813
  139MOL    C2444460   4.896   7.994   0.243 -0.1949 -0.4592 -0.9737
  139MOL    C2544461   4.876   7.974   0.103 -0.2854  0.3449  0.4227
  139MOL    H2644462   4.656   8.064   7.831 -0.1200 -1.5672 -0.4496
  139MOL    H2744463   4.568   8.062   7.983  0.4854 -0.7729  0.0908
  139MOL    H2844464   4.858   7.969   7.969 -0.7946  2.5621 -1.0105
  139MOL    H2944465   4.539   7.973   0.082 -1.2858 -0.3478  3.3831
  139MOL    H3044466   4.559   8.007   0.319  0.4099  0.1043  1.2882
  139MOL    H3144467   4.786   8.054   0.419 -1.7429  0.3751  0.0532
  139MOL    H3244468   4.992   8.002   0.290 -1.0422  1.9151  0.4462
  139MOL    H3344469   4.962   7.963   0.039 -0.4742 -0.2653  0.2708
  139MOL    C3444470   4.713   7.821   7.953 -0.0835 -0.1956 -0.1525
  139MOL    C3544471   4.744   7.792   7.802 -0.1332  0.3935 -0.7084
  139MOL    C3644472   4.894   7.744   7.780  0.9891 -0.0850 -0.0155
  139MOL    C3744473   4.968   7.798   7.675  0.2407 -0.0502  0.5674
  139MOL    C3844474   5.105   7.757   7.645  1.2429 -0.0143  1.2320
  139MOL    C3944475   5.159   7.652   7.720 -0.2756 -0.4219 -0.7915
  139MOL    C4044476   5.084   7.599   7.826 -0.0037  0.4141  0.0343
  139MOL    C4144477   4.957   7.645   7.860  0.4149  0.5018  0.5093
  139MOL    H4244478   4.604   7.819   7.964 -0.0135  0.4797  0.8351
  139MOL    H4344479   4.731   7.739   8.022 -2.5462 -0.8174 -0.1718
  139MOL    H4444480   4.721   7.883   7.747 -2.4578  0.2835  0.0314
  139MOL    H4544481   4.923   7.871   7.609  0.4088  0.8361  1.4155
  139MOL    H4644482   5.157   7.797   7.560 -0.9917  0.2540 -0.0435
  139MOL    H4744483   5.248   7.602   7.685 -0.6914 -2.2104  0.6097
  139MOL    H4844484   5.134   7.528   7.890 -0.9685 -0.2765  0.0315
  139MOL    H4944485   4.910   7.609   7.950 -2.2963  1.6432 -0.4032
  139MOL    C5044486   4.644   7.685   7.753 -0.0066 -0.2288  0.3760
  139MOL    C5144487   4.500   7.735   7.728 -0.0146  0.1186 -0.0602
  139MOL    C5244488   4.488   7.869   7.656  0.1128  0.2298 -0.4576
  139MOL    C5344489   4.420   7.976   7.721 -1.0193  0.3626 -0.4118
  139MOL    C5444490   4.432   8.102   7.660 -0.5957  0.2870  0.4417
  139MOL    C5544491   4.501   0.005   7.540  0.5633 -0.3890  0.9440
  139MOL    C5644492   4.569   8.014   7.477  0.0507  0.3523  0.2755
  139MOL    C5744493   4.564   7.887   7.535  0.2986 -0.1998 -0.1056
  139MOL    H5844494   4.641   7.603   7.825 -1.6177 -0.3885  0.1402
  139MOL    H5944495   4.685   7.641   7.661  2.1978  0.2136  1.1214
  139MOL    H6044496   4.465   7.753   7.830  1.3703 -0.8502  0.6041
  139MOL    H6144497   4.354   7.964   7.806 -1.5514  0.2040 -0.8435
  139MOL    H6244498   4.388   0.077   7.702  1.0415  1.3514 -0.0764
  139MOL    H6344499   4.512   0.099   7.488 -0.6639 -1.1774 -0.7565
  139MOL    H6444500   4.623   8.030   7.385 -0.3427 -0.8431 -0.1692
  139MOL    H6544501   4.619   7.808   7.486  1.5933 -0.0557  1.0933
  139MOL    C6644502   4.405   7.629   7.669  0.2656  0.0886 -0.4155
  139MOL    C6744503   4.273   7.610   7.746 -0.0063 -0.4811 -0.5820
  139MOL    C6844504   4.289   7.571   7.893 -0.3360  0.4625 -0.0550
  139MOL    C6944505   4.308   7.666   7.991 -0.7637  0.6890 -0.5733
  139MOL    C7044506   4.319   7.627   0.010  0.1757  0.3966  0.1667
  139MOL    C7144507   4.312   7.491   0.048 -0.0903  0.1366  0.0143
  139MOL    C7244508   4.275   7.401   8.061 -0.5889 -0.2088 -0.3459
  139MOL    C7344509   4.269   7.439   7.928 -0.0352 -1.0155 -0.3630
  139MOL    H7444510   4.457   7.534   7.678  0.5781  0.3884  1.0025
  139MOL    H7544511   4.384   7.650   7.564  1.1508 -0.9858 -0.8151
  139MOL    H7644512   4.217   7.525   7.706  0.9665 -0.7137 -1.4800
  139MOL    H7744513   4.320   7.772   7.972  0.9818  0.9866  1.9583
  139MOL    H7844514   4.331   7.702   0.087  1.3105 -1.0347  1.3986
  139MOL    H7944515   4.317   7.465   0.153 -1.4706  1.4189  0.4150
  139MOL    H8044516   4.244   7.299   8.081 -2.3966  0.5475  0.8508
  139MOL    H8144517   4.236   7.369   7.852 -0.5598 -0.7037 -0.4196
  139MOL    C8244518   4.172   7.730   7.725 -0.0235 -0.2791  0.3388
  139MOL    C8344519   4.128   7.774   7.583 -0.2962  0.7318  0.0120
  139MOL    C8444520   4.094   7.656   7.494  0.3826  0.6495 -0.0145
  139MOL    C8544521   3.971   7.588   7.534  0.1038  0.2369  0.2990
  139MOL    C8644522   3.930   7.475   7.460 -0.2762 -0.3063  0.1369
  139MOL    C8744523   4.003   7.430   7.347 -0.0227 -0.0434 -0.3517
  139MOL    C8844524   4.114   7.505   7.306  0.1225  0.3403 -0.2935
  139MOL    C8944525   4.165   7.608   7.385 -0.0231  0.2190  0.6687
  139MOL    H9044526   4.207   7.813   7.787  0.2722 -0.2341  0.1115
  139MOL    H9144527   4.082   7.705   7.781  0.2203  1.4054  1.5124
  139MOL    H9244528   4.222   7.806   7.538 -0.8539 -1.7654 -3.1377
  139MOL    H9344529   3.928   7.622   7.627 -0.0582  0.0646  0.2868
  139MOL    H9444530   3.846   7.415   7.490  0.3440 -1.5477 -0.5793
  139MOL    H9544531   3.981   7.340   7.292  2.0444 -2.1567  2.1430
  139MOL    H9644532   4.174   7.487   7.219 -0.3120 -0.3974 -0.4397
  139MOL    H9744533   4.250   7.662   7.348 -0.9200  0.7125 -0.7207
  139MOL    C9844534   4.032   7.895   7.574  0.0204  0.7593  0.5669
  139MOL    C9944535   4.011   7.957   7.436  0.5026 -0.3759  0.1961
  139MOL   C10044536   3.912   8.071   7.440 -0.3953  0.1956 -0.2654
  139MOL   C10144537   3.932   0.073   7.519  0.3001  0.1703 -0.4885
  139MOL   C10244538   3.836   0.178   7.504  0.3294 -0.0222 -0.1174
  139MOL   C10344539   3.714   0.152   7.440  0.8159 -0.0443  0.0162
  139MOL   C10444540   3.689   0.035   7.366  0.2387 -0.0277 -1.1941
  139MOL   C10544541   3.791   8.058   7.363  0.2104 -0.4664 -0.4506
  139MOL   H10644542   4.061   7.974   7.644 -0.5268  2.8968 -1.5631
  139MOL   H10744543   3.936   7.871   7.619 -0.4003 -0.4102 -0.9298
  139MOL   H10844544   3.972   7.870   7.382  0.5617 -0.0088 -0.4320
  139MOL   H10944545   4.017   0.081   7.585 -0.6927  0.0917  0.8386
  139MOL   H11044546   3.842   0.270   7.559  1.7718  0.1892 -0.6040
  139MOL   H11144547   3.626   0.214   7.450  0.7848  0.1174 -1.1738
  139MOL   H11244548   3.589   0.006   7.335 -0.3382  0.2177  0.3839
  139MOL   H11344549   3.785   7.962   7.314 -1.0407  0.8190 -2.9003
  139MOL   C11444550   4.150   7.993   7.370  0.2112  0.2293  0.3294
  139MOL   C11544551   4.154   8.056   7.230 -0.5815  0.5948 -0.3164
  139MOL   C11644552   4.276   0.032   7.205  0.5392 -0.0865 -0.1904
  139MOL   C11744553   4.255   0.168   7.223  0.3794  0.0418  0.4421
  139MOL   C11844554   4.361   0.253   7.225 -0.1943 -0.2126  0.3271
  139MOL   C11944555   4.488   0.200   7.198  0.6902 -0.7760  0.2990
  139MOL   C12044556   4.516   0.067   7.166 -0.1260 -0.9443  0.0522
  139MOL   C12144557   4.406   8.097   7.179  0.4436  0.6467  0.1128
  139MOL   H12244558   4.219   7.909   7.369 -0.9675 -0.7379 -1.2419
  139MOL   H12344559   4.208   8.056   7.438  0.2900  1.9534 -1.2694
  139MOL   H12444560   4.081   0.022   7.226 -0.5295  0.6430 -0.2828
  139MOL   H12544561   4.157   0.200   7.253  1.1546  1.9247  1.0672
  139MOL   H12644562   4.349   0.354   7.262  0.7567 -1.1601  3.4181
  139MOL   H12744563   4.576   0.262   7.204 -0.6974  1.4903 -1.9422
  139MOL   H12844564   4.615   0.027   7.152  0.5357  1.3824 -2.2752
  139MOL   H12944565   4.427   7.991   7.185  0.6235  0.6184 -0.9246
  139MOL   C13044566   4.129   7.952   7.119  0.2715  0.4121 -0.3598
  139MOL   C13144567   4.114   8.001   6.974  0.2122 -1.0056  0.3178
  139MOL   C13244568   4.113   7.885   6.871  0.0065 -0.5229 -0.2703
  139MOL   C13344569   4.099   7.750   6.902  0.0789 -0.1815 -0.5478
  139MOL   C13444570   4.110   7.641   6.809 -0.5246  0.4257  0.1130
  139MOL   C13544571   4.108   7.673   6.670 -0.1518 -0.2588 -0.2543
  139MOL   C13644572   4.107   7.812   6.635 -0.6880 -0.7239 -0.6621
  139MOL   C13744573   4.104   7.916   6.731 -0.6241 -0.2773  0.3677
  139MOL   H13844574   4.052   7.876   7.131 -0.3047  0.6794 -2.1797
  139MOL   H13944575   4.208   7.877   7.119  0.7430  0.8968  1.0808
  139MOL   H14044576   4.202   8.057   6.940  0.3637 -1.9523 -0.8856
  139MOL   H14144577   4.101   7.718   7.005 -0.5599  1.7186  0.0797
  139MOL   H14244578   4.123   7.542   6.851 -0.4502  1.0795  1.6882
  139MOL   H14344579   4.119   7.598   6.593 -1.4449  1.1431 -1.8657
  139MOL   H14444580   4.119   7.852   6.535  0.6908 -0.3201 -0.3344
  139MOL   H14544581   4.102   8.018   6.698 -4.0868  0.1622  1.7209
  139MOL   C14644582   3.982   8.088   6.967  0.3641  0.7003  0.3424
  139MOL   C14744583   4.012   0.124   6.950  0.0277 -0.1902 -0.2270
  139MOL   C14844584   4.062   0.163   6.810  0.8350  0.0268 -0.0881
  139MOL   C14944585   4.198   0.195   6.788 -0.0820 -0.2224  1.2661
  139MOL   C15044586   4.243   0.225   6.656 -0.2995  0.2690 -0.0416
  139MOL   C15144587   4.158   0.204   6.545 -0.3443 -0.9720 -0.6815
  139MOL   C15244588   4.026   0.166   6.575  0.1677 -0.8472 -0.3170
  139MOL   C15344589   3.970   0.149   6.705  0.0098  0.0262  0.5917
  139MOL   H15444590   3.921   8.067   7.055  1.0430  0.2707  0.7218
  139MOL   H15544591   3.916   8.049   6.890 -1.1069 -0.7680  2.2967
  139MOL   H15644592   4.091   0.143   7.022 -0.6357 -0.0563  0.4648
  139MOL   H15744593   4.260   0.216   6.874  1.2312 -1.3029  0.6193
  139MOL   H15844594   4.341   0.261   6.624 -0.5353  0.0067 -1.0818
  139MOL   H15944595   4.182   0.225   6.442 -0.9137  0.1681 -0.5846
  139MOL   H16044596   3.964   0.159   6.487 -1.4150  0.8135  0.6424
  139MOL   H16144597   3.866   0.121   6.716  0.4723 -2.5221 -1.1966
  139MOL   C16244598   3.904   0.213   7.004  0.2765 -0.4518 -0.1314
  139MOL   C16344599   3.932   0.371   6.993 -0.6297 -0.1629 -0.1479
  139MOL   C16444600   3.811   0.448   7.041 -0.0646 -0.0099  0.4172
  139MOL   C16544601   3.811   0.503   7.170 -0.5455 -0.1285 -0.4435
  139MOL   C16644602   3.698   0.576   7.207  0.5077  0.0616 -0.4249
  139MOL   C16744603   3.590   0.584   7.126  0.7760  0.0660  0.4315
  139MOL   C16844604   3.587   0.535   6.995 -1.4701  0.0791  0.5069
  139MOL   C16944605   3.701   0.466   6.949  0.2566  0.0009  0.2166
  139MOL   H17044606   3.879   0.190   7.108 -0.0650 -2.3301 -0.6065
  139MOL   H17144607   3.814   0.194   6.945  1.2651 -0.5574 -1.6271
  139MOL   H17244608   3.925   0.386   6.885 -0.5957 -1.1619 -0.3004
  139MOL   H17344609   3.892   0.501   7.241  0.5739  3.0113 -1.5200
  139MOL   H17444610   3.686   0.621   7.305 -2.7324 -0.3231 -0.5716
  139MOL   H17544611   3.501   0.634   7.163  1.2512  0.4330  1.0831
  139MOL   H17644612   3.498   0.541   6.933 -1.0400 -1.4556 -0.2814
  139MOL   H17744613   3.694   0.424   6.849 -1.0722 -1.7051  1.0026
  139MOL   C17844614   4.069   0.427   7.046  0.1855  0.6301 -0.4010
  139MOL   C17944615   4.100   0.573   7.026 -0.5270  0.3302  0.5546
  139MOL   C18044616   4.231   0.584   7.097 -0.1803 -0.0743  0.7580
  139MOL   C18144617   4.241   0.655   7.219 -0.3237 -0.2858  0.1026
  139MOL   C18244618   4.360   0.670   7.289  0.0353 -0.5970  0.6328
  139MOL   C18344619   4.475   0.615   7.241  0.3484 -0.9250 -0.0079
  139MOL   C18444620   4.471   0.539   7.117  0.6029  0.3606  0.4483
  139MOL   C18544621   4.350   0.525   7.043  0.3446  0.2815  0.2370
  139MOL   H18644622   4.148   0.371   6.994  2.2742  2.3043  0.8756
  139MOL   H18744623   4.074   0.409   7.154  0.2206 -1.1008 -0.6627
  139MOL   H18844624   4.023   0.641   7.063 -2.4549 -0.7320 -1.3751
  139MOL   H18944625   4.156   0.701   7.266  0.6946  2.0721 -0.2768
  139MOL   H19044626   4.359   0.721   7.384  2.4596  2.2766 -0.8020
  139MOL   H19144627   4.564   0.618   7.301  1.1862 -0.5337 -1.2628
  139MOL   H19244628   4.561   0.491   7.083 -0.5185 -1.4671 -0.0282
  139MOL   H19344629   4.336   0.475   6.948  1.7342  0.8049 -0.2491
  139MOL   C19444630   4.117   0.588   6.879  0.3298 -0.1241  0.5621
  139MOL   C19544631   3.996   0.658   6.796  0.2720  0.0848  0.0312
  139MOL   C19644632   3.972   0.801   6.853  0.1757 -0.2550 -0.5560
  139MOL   C19744633   4.059   0.910   6.834 -0.2287 -0.3092 -0.1386
  139MOL   C19844634   4.040   1.032   6.898 -0.2345 -0.1151  0.0468
  139MOL   C19944635   3.924   1.058   6.970 -0.0173  0.6630  0.2873
  139MOL   C20044636   3.828   0.953   6.975 -0.3247 -0.1586  0.2902
  139MOL   C20144637   3.856   0.826   6.926 -0.0677 -0.6521 -0.1769
  139MOL   H20244638   4.147   0.499   6.823 -1.1965 -1.3943  1.7167
  139MOL   H20344639   4.197   0.661   6.867  4.6258 -4.1721  2.7639
  139MOL   H20444640   3.907   0.596   6.810  2.0878 -1.9662  2.9549
  139MOL   H20544641   4.143   0.894   6.768 -0.6842  0.2716 -0.8667
  139MOL   H20644642   4.114   1.110   6.889  1.4239 -1.6985 -0.3144
  139MOL   H20744643   3.907   1.150   7.025 -0.4286 -0.4453  2.0592
  139MOL   H20844644   3.736   0.962   7.030  0.4944 -1.6133  1.9356
  139MOL   H20944645   3.779   0.751   6.931 -0.2447 -0.4568  0.0800
  139MOL   C21044646   4.016   0.656   6.643 -0.0632 -0.6878  0.4714
  139MOL   C21144647   3.907   0.733   6.572  0.6847 -0.0350  0.4859
  139MOL   C21244648   3.959   0.784   6.434  0.4113  0.1382 -0.1524
  139MOL   C21344649   3.969   0.921   6.414  0.3465 -0.3585  0.0254
  139MOL   C21444650   4.025   0.970   6.296 -0.1000 -0.3910  0.0343
  139MOL   C21544651   4.072   0.876   6.197  0.3372 -0.1933  0.0583
  139MOL   C21644652   4.058   0.735   6.209  0.2548  0.0752  0.0277
  139MOL   C21744653   4.009   0.694   6.335 -0.0711  0.1071  0.1892
  139MOL   H21844654   4.007   0.557   6.599 -0.2678 -0.7082  0.5593
  139MOL   H21944655   4.112   0.698   6.613 -1.5853  0.9131 -2.3164
  139MOL   H22044656   3.890   0.830   6.621 -1.0867 -0.5439  0.9150
  139MOL   H22144657   3.938   0.989   6.492 -0.8691 -1.4587  0.5365
  139MOL   H22244658   4.037   1.076   6.274  1.8008 -0.7799 -0.9549
  139MOL   H22344659   4.124   0.920   6.114  0.4319  1.7062  1.0909
  139MOL   H22444660   4.097   0.666   6.136 -0.0713  0.4562 -0.5135
  139MOL   H22544661   4.020   0.589   6.359  0.8455 -0.1267 -1.1977
  139MOL   C22644662   3.772   0.652   6.556 -0.9097  0.2220  0.3287
  139MOL   C22744663   3.656   0.740   6.515  0.3035 -0.2684 -0.1872
  139MOL   C22844664   3.550   0.670   6.436  0.8712 -0.1006 -0.7469
  139MOL   C22944665   3.539   0.677   6.299  0.3956  0.9337  0.5464
  139MOL   C23044666   3.445   0.600   6.227  0.0653 -0.4823  0.8837
  139MOL   C23144667   3.346   0.532   6.299 -0.0524 -0.0131 -0.5016
  139MOL   C23244668   3.350   0.524   6.437 -0.2476 -0.0441  0.8249
  139MOL   C23344669   3.452   0.592   6.501 -0.1674  0.0764  0.0275
  139MOL   H23444670   3.747   0.606   6.652  1.3843 -1.4056  0.1891
  139MOL   H23544671   3.794   0.569   6.489 -2.1134 -0.8156  1.1942
  139MOL   H23644672   3.696   0.812   6.444  2.4269 -0.8224  0.4214
  139MOL   H23744673   3.616   0.734   6.251  0.0463  0.7736 -0.2096
  139MOL   H23844674   3.439   0.595   6.119  0.0473  1.1824  0.7898
  139MOL   H23944675   3.262   0.477   6.258 -1.4546  0.9208  1.0442
  139MOL   H24044676   3.280   0.460   6.489 -0.8571 -0.9237 -1.0601
  139MOL   H24144677   3.441   0.590   6.609  0.0015  0.4430  0.0509
  139MOL   C24244678   3.613   0.831   6.634 -0.2340 -0.3762 -0.4649
  139MOL   C24344679   3.496   0.932   6.625  0.4243  0.1543 -0.2243
  139MOL   C24444680   3.458   1.007   6.758  0.5421  0.2948  0.3433
  139MOL   C24544681   3.552   1.093   6.825 -0.1075 -0.1945  0.8288
  139MOL   C24644682   3.523   1.150   6.949 -0.4664  0.0508  1.0803
  139MOL   C24744683   3.399   1.133   7.004 -0.5449  0.3788  0.1366
  139MOL   C24844684   3.305   1.053   6.937  0.3757  0.0342  0.6656
  139MOL   C24944685   3.329   0.999   6.814  0.0641 -0.0446  0.1839
  139MOL   H25044686   3.703   0.884   6.665 -0.8121  1.2204 -1.4349
  139MOL   H25144687   3.604   0.777   6.728 -1.0607 -0.5804 -0.6555
  139MOL   H25244688   3.412   0.870   6.594 -0.5072  1.1139  0.3344
  139MOL   H25344689   3.644   1.113   6.772 -1.6602  2.5748 -0.8945
  139MOL   H25444690   3.598   1.201   7.007 -0.9060  1.5196  0.3684
  139MOL   H25544691   3.373   1.178   7.099 -0.2102  0.6062  0.1192
  139MOL   H25644692   3.209   1.039   6.985 -0.3879 -0.2462 -0.9194
  139MOL   H25744693   3.254   0.948   6.755 -0.1578  0.5016 -0.0097
  139MOL   C25844694   3.533   1.041   6.517 -0.5470  0.1914  0.2583
  139MOL   C25944695   3.448   1.038   6.385  0.6221  0.2254 -0.2540
  139MOL   C26044696   3.298   1.029   6.415  0.1449 -0.3476  0.3656
  139MOL   C26144697   3.237   1.139   6.477  0.4297 -0.6124  0.2190
  139MOL   C26244698   3.101   1.125   6.512  0.2612 -0.0546  0.2941
  139MOL   C26344699   3.024   1.012   6.501  0.5994  0.3538 -0.2468
  139MOL   C26444700   3.087   0.907   6.428  0.1907 -0.1949  0.3811
  139MOL   C26544701   3.223   0.914   6.382 -0.2414 -0.2872 -0.2064
  139MOL   H26644702   3.639   1.035   6.492 -0.3411 -0.9828  1.3637
  139MOL   H26744703   3.511   1.141   6.553 -0.8316  0.2339 -0.0374
  139MOL   H26844704   3.470   0.945   6.333  0.1600  0.2016 -0.4141
  139MOL   H26944705   3.288   1.230   6.504 -1.7004  0.0266  2.3035
  139MOL   H27044706   3.064   1.214   6.561  0.7229  1.6231 -2.2612
  139MOL   H27144707   2.926   1.010   6.546  1.0602  1.8240  0.8346
  139MOL   H27244708   3.028   0.820   6.405 -0.6800  0.8665 -1.4548
  139MOL   H27344709   3.265   0.822   6.347 -1.6774 -1.1402  0.2597
  139MOL   C27444710   3.489   1.159   6.295 -0.2278  0.1992  0.6527
  139MOL   C27544711   3.618   1.137   6.215  0.1524  0.2087 -0.4877
  139MOL   C27644712   3.617   1.017   6.116 -0.3583 -0.6261  0.0623
  139MOL   C27744713   3.503   0.986   6.045 -0.0229  0.2453 -0.0116
  139MOL   C27844714   3.504   0.877   5.954 -0.2376 -0.1738 -0.1599
  139MOL   C27944715   3.626   0.808   5.940 -0.5542  0.0244 -0.4204
  139MOL   C28044716   3.745   0.837   6.013  0.2292  0.1741  0.5955
  139MOL   C28144717   3.737   0.950   6.100  0.2983 -0.6755  0.3308
  139MOL   H28244718   3.489   1.253   6.349 -2.2692 -0.1126  1.2192
  139MOL   H28344719   3.414   1.193   6.223 -1.3291 -0.9699  1.2246
  139MOL   H28444720   3.696   1.107   6.285  0.3127  1.8901  0.0764
  139MOL   H28544721   3.409   1.039   6.055  0.2852  0.7776  0.0521
  139MOL   H28644722   3.413   0.848   5.903 -1.1959  0.2510  1.2697
  139MOL   H28744723   3.619   0.719   5.879 -1.6658 -1.1610  1.4154
  139MOL   H28844724   3.828   0.769   5.998  1.3168  0.9911  2.7107
  139MOL   H28944725   3.822   0.977   6.162  0.1875 -1.3428  0.7906
  139MOL   C29044726   3.696   1.260   6.157 -0.3730  0.5839 -0.5407
  139MOL   C29144727   3.726   1.379   6.256 -0.3808 -0.0985 -0.7327
  139MOL   C29244728   3.723   1.357   6.404 -0.0432  0.3363  0.3580
  139MOL   C29344729   3.821   1.275   6.467 -0.3060  0.0793  0.2218
  139MOL   C29444730   3.819   1.256   6.607 -0.4153  0.1411  0.4719
  139MOL   C29544731   3.736   1.333   6.685  0.8230 -0.4881 -0.0613
  139MOL   C29644732   3.646   1.420   6.625  0.2942  0.0564  0.6569
  139MOL   C29744733   3.635   1.432   6.486  0.0518  0.0296 -0.5942
  139MOL   H29844734   3.648   1.302   6.069  1.9346  1.1852 -1.5604
  139MOL   H29944735   3.788   1.212   6.122 -0.2506 -0.0418  0.6099
  139MOL   H30044736   3.635   1.433   6.231 -0.9003 -0.4130  0.4686
  139MOL   H30144737   3.896   1.242   6.398 -1.7943 -0.0443 -1.3510
  139MOL   H30244738   3.905   1.209   6.653  0.4255  2.1128  0.9711
  139MOL   H30344739   3.739   1.336   6.793 -0.3988  2.4244 -0.0703
  139MOL   H30444740   3.583   1.492   6.674 -0.2128  0.7322 -0.9475
  139MOL   H30544741   3.574   1.512   6.445 -1.9167 -1.1748 -0.0845
  139MOL   C30644742   3.847   1.475   6.222  0.0539  1.0386 -0.2469
  139MOL   C30744743   3.844   1.501   6.067  0.0278 -0.5475  0.4461
  139MOL   C30844744   3.737   1.597   6.017 -0.4214 -0.7407  0.6097
  139MOL   C30944745   3.661   1.571   5.901 -0.0778 -0.5985  0.1905
  139MOL   C31044746   3.572   1.664   5.845  0.5367 -0.1651 -0.2030
  139MOL   C31144747   3.552   1.789   5.909  0.2350  0.3087 -0.0506
  139MOL   C31244748   3.628   1.814   6.024 -0.3914  0.3753 -0.6953
  139MOL   C31344749   3.712   1.722   6.077 -0.0458  0.1793  0.7197
  139MOL   H31444750   3.946   1.431   6.240 -0.5832 -0.7871 -1.0679
  139MOL   H31544751   3.846   1.567   6.280  0.5044  1.3565 -0.7316
  139MOL   H31644752   3.851   1.416   5.999 -0.6811 -1.3290  1.3310
  139MOL   H31744753   3.674   1.477   5.851  3.0216  0.0482 -0.2949
  139MOL   H31844754   3.536   1.636   5.747  0.1536 -0.3598 -0.0054
  139MOL   H31944755   3.496   1.868   5.862  1.1087  0.7587 -0.3507
  139MOL   H32044756   3.631   1.905   6.082 -0.1702 -0.4458  0.5965
  139MOL   H32144757   3.759   1.735   6.173  2.3977 -0.8219 -0.2759
  139MOL   H32244758   3.940   1.551   6.060  0.6201 -1.5693  1.2059
  140MOL     C144759   1.879   5.571   6.805 -0.0893 -0.4081  0.9185
  140MOL     C244760   2.037   5.564   6.805  0.1295 -0.2130  0.8683
  140MOL     C344761   2.089   5.420   6.797  0.4120  0.3415  0.4455
  140MOL     C444762   2.200   5.382   6.878  0.1678 -0.8038  0.9534
  140MOL     C544763   2.252   5.251   6.870  0.2634  0.4026  0.5015
  140MOL     C644764   2.206   5.159   6.769 -0.0686  0.4355 -0.1386
  140MOL     C744765   2.107   5.209   6.682  0.2485  0.0405  0.1216
  140MOL     C844766   2.036   5.328   6.708  0.0944  0.1385  0.1059
  140MOL     H944767   1.847   5.676   6.805  3.2906  0.8145 -4.7899
  140MOL    H1044768   1.829   5.530   6.718 -0.5502  0.1012  0.9400
  140MOL    H1144769   2.051   5.600   6.907 -0.5149  0.3306  0.7686
  140MOL    H1244770   2.249   5.457   6.940 -1.0585 -0.7643  1.8844
  140MOL    H1344771   2.336   5.215   6.928  1.9938 -1.7185 -3.1354
  140MOL    H1444772   2.242   5.057   6.767  1.2344  0.9125 -1.9412
  140MOL    H1544773   2.076   5.147   6.599  1.1489 -0.8374  0.4403
  140MOL    H1644774   1.947   5.346   6.650  0.8593  1.7090 -0.6306
  140MOL    H1744775   1.838   5.528   6.896  0.8640 -0.3619  1.3835
  140MOL    C1844776   2.107   5.658   6.700 -0.0009 -0.1125 -0.9181
  140MOL    C1944777   2.132   5.809   6.742  0.7390  0.3697 -0.5759
  140MOL    C2044778   2.178   5.815   6.889  0.0050 -0.2883 -0.2282
  140MOL    C2144779   2.087   5.868   6.982  0.0152 -0.7267 -0.3191
  140MOL    C2244780   2.126   5.863   7.118  0.3535  0.0498 -0.0730
  140MOL    C2344781   2.246   5.815   7.163 -0.1868  0.1070  0.0710
  140MOL    C2444782   2.342   5.773   7.071  0.1596  0.2182  0.5445
  140MOL    C2544783   2.307   5.772   6.931  0.9062 -0.2632 -0.1539
  140MOL    H2644784   2.069   5.645   6.599 -0.2028 -0.3721 -0.8091
  140MOL    H2744785   2.208   5.619   6.687 -0.1843 -0.5306 -1.0748
  140MOL    H2844786   2.038   5.864   6.729 -0.3518 -0.8868  1.5644
  140MOL    H2944787   1.982   5.878   6.960  0.0965 -0.3881 -0.5655
  140MOL    H3044788   2.052   5.895   7.190 -1.5199 -0.6795 -1.6387
  140MOL    H3144789   2.271   5.810   7.268 -0.0623 -1.5812 -0.0365
  140MOL    H3244790   2.432   5.738   7.119  1.0396  2.0556  0.2631
  140MOL    H3344791   2.385   5.736   6.864  1.7292  1.1631  0.0100
  140MOL    C3444792   2.231   5.868   6.636 -0.1307 -0.7882 -0.5906
  140MOL    C3544793   2.274   6.014   6.676  0.0653 -0.8245  0.3006
  140MOL    C3644794   2.418   6.046   6.623  0.5429 -0.4223 -0.5675
  140MOL    C3744795   2.524   6.060   6.718 -0.5316  0.6883 -0.7579
  140MOL    C3844796   2.654   6.089   6.669  0.1113  0.2284  0.1908
  140MOL    C3944797   2.676   6.110   6.529  0.5897  0.0596  0.3088
  140MOL    C4044798   2.564   6.112   6.437 -0.3645 -0.1114 -0.2890
  140MOL    C4144799   2.437   6.072   6.489  0.7136 -0.1922  0.2905
  140MOL    H4244800   2.177   5.883   6.543  0.6729  2.1554 -0.6462
  140MOL    H4344801   2.315   5.799   6.632 -0.1461 -0.8026 -0.6463
  140MOL    H4444802   2.278   6.033   6.783 -4.4806  0.2852  0.4107
  140MOL    H4544803   2.504   6.047   6.824  2.0391  0.1753 -0.2958
  140MOL    H4644804   2.741   6.090   6.734  1.6314 -0.9471 -1.7439
  140MOL    H4744805   2.776   6.114   6.489  1.3462 -1.3638  2.0133
  140MOL    H4844806   2.581   6.135   6.333  1.3101  1.5496  0.3249
  140MOL    H4944807   2.358   6.061   6.417 -0.4701  1.3277  1.3239
  140MOL    C5044808   2.175   6.132   6.639  0.3508 -0.2254 -1.0085
  140MOL    C5144809   2.218   6.268   6.700  0.2234  0.3762 -0.0273
  140MOL    C5244810   2.154   6.383   6.630 -0.0671  0.1528  0.4891
  140MOL    C5344811   2.013   6.398   6.625  0.5273 -0.2477  0.1662
  140MOL    C5444812   1.963   6.520   6.567 -0.1395 -0.0575 -0.2673
  140MOL    C5544813   2.046   6.604   6.493  0.6807 -0.5079  0.0144
  140MOL    C5644814   2.180   6.570   6.472  0.2038  0.1969  0.3151
  140MOL    C5744815   2.235   6.464   6.547  0.0547  0.6711 -0.0030
  140MOL    H5844816   2.076   6.111   6.678  0.6077 -0.5059 -0.5045
  140MOL    H5944817   2.166   6.145   6.531 -0.5607 -2.2327 -1.1869
  140MOL    H6044818   2.325   6.284   6.686  0.8338 -3.1155  0.2304
  140MOL    H6144819   1.947   6.328   6.676  0.4581 -0.7026 -0.5518
  140MOL    H6244820   1.859   6.547   6.572 -0.5282 -1.6683  0.8762
  140MOL    H6344821   2.007   6.696   6.450  1.7587  0.0324  0.1723
  140MOL    H6444822   2.241   6.636   6.412  0.1993 -1.0720 -1.1248
  140MOL    H6544823   2.340   6.442   6.533 -0.1338  0.7895 -1.7111
  140MOL    C6644824   2.198   6.271   6.851 -0.2492  0.2643  1.5339
  140MOL    C6744825   2.196   6.419   6.911  0.3469  0.3716  0.7062
  140MOL    C6844826   2.160   6.407   7.062  0.1726 -0.0841  0.2583
  140MOL    C6944827   2.249   6.339   7.150 -0.2778 -0.3721  0.0717
  140MOL    C7044828   2.228   6.327   7.287  0.0788  0.1763 -0.1045
  140MOL    C7144829   2.103   6.375   7.342 -0.2736  0.1173 -0.5569
  140MOL    C7244830   2.009   6.431   7.252  0.0836 -1.3888  0.1973
  140MOL    C7344831   2.042   6.459   7.113 -0.0351 -0.1136 -1.0036
  140MOL    H7444832   2.269   6.206   6.900  1.9188  1.5902  0.2233
  140MOL    H7544833   2.105   6.222   6.879 -1.2271  2.5846  2.5078
  140MOL    H7644834   2.112   6.468   6.863 -1.4414 -2.2129  1.1081
  140MOL    H7744835   2.335   6.284   7.116 -0.0346  0.2910 -0.3909
  140MOL    H7844836   2.298   6.280   7.353 -1.3994 -1.9333  0.0129
  140MOL    H7944837   2.073   6.370   7.446 -0.4364  1.6448 -0.5125
  140MOL    H8044838   1.911   6.453   7.293  1.2435 -0.9001  2.8466
  140MOL    H8144839   1.973   6.516   7.053 -1.1935 -1.4308 -0.9350
  140MOL    C8244840   2.331   6.501   6.892  0.4736 -0.8528  0.6768
  140MOL    C8344841   2.312   6.651   6.943 -0.3059  0.5785  0.9440
  140MOL    C8444842   2.458   6.703   6.975  0.2154  0.1699  0.6760
  140MOL    C8544843   2.489   6.745   7.106 -0.5769  0.3552  0.2555
  140MOL    C8644844   2.625   6.774   7.136 -0.4076 -0.0558  0.5672
  140MOL    C8744845   2.727   6.779   7.041  0.0386 -0.2213  0.2958
  140MOL    C8844846   2.689   6.746   6.912  0.6881  0.0700 -0.4787
  140MOL    C8944847   2.559   6.697   6.880  0.2487 -0.4124  0.2964
  140MOL    H9044848   2.371   6.494   6.791 -2.1719  2.6390 -0.7138
  140MOL    H9144849   2.405   6.450   6.952 -0.2256 -2.1328  0.4863
  140MOL    H9244850   2.265   6.648   7.041 -3.3236 -0.3597 -0.4679
  140MOL    H9344851   2.416   6.759   7.184 -1.3088  1.5556 -0.6290
  140MOL    H9444852   2.647   6.814   7.233 -0.8512 -1.3951  1.2319
  140MOL    H9544853   2.830   6.798   7.067 -0.5824  0.6469  2.2866
  140MOL    H9644854   2.764   6.741   6.833  2.0753 -0.5110  0.8565
  140MOL    H9744855   2.531   6.659   6.783 -0.3115  1.7554 -0.4106
  140MOL    C9844856   2.222   6.733   6.848  0.4829  0.0857  0.0446
  140MOL    C9944857   2.250   6.884   6.842 -0.4313  0.2383 -0.0020
  140MOL   C10044858   2.294   6.928   6.701 -0.4472 -0.9763 -0.5952
  140MOL   C10144859   2.211   6.903   6.587 -0.8294 -0.3388  0.1031
  140MOL   C10244860   2.239   6.940   6.454 -0.0842 -0.2357  0.2420
  140MOL   C10344861   2.367   6.998   6.430 -0.0498 -0.0717  0.6433
  140MOL   C10444862   2.460   7.021   6.536 -0.2558  0.7040 -0.3666
  140MOL   C10544863   2.422   6.980   6.669 -0.6932  0.0986  0.1221
  140MOL   H10644864   2.115   6.711   6.846  0.4702  0.1888 -1.8380
  140MOL   H10744865   2.259   6.711   6.748  2.7821 -1.2409  1.1559
  140MOL   H10844866   2.335   6.902   6.908  0.6651  2.0949 -1.8583
  140MOL   H10944867   2.116   6.851   6.597 -1.5251  0.4208 -2.1763
  140MOL   H11044868   2.170   6.930   6.371  2.3037  0.4179 -1.8900
  140MOL   H11144869   2.404   7.030   6.335  0.0131  1.1294  1.0667
  140MOL   H11244870   2.554   7.071   6.519 -0.2515  0.8736  0.1443
  140MOL   H11344871   2.496   6.987   6.747  0.8845  0.9419 -1.4162
  140MOL   C11444872   2.132   6.969   6.898  0.2215 -0.5386  0.1113
  140MOL   C11544873   2.112   6.970   7.051  0.7777 -0.5009  0.4054
  140MOL   C11644874   2.238   6.998   7.131 -0.3317  0.0627  0.2342
  140MOL   C11744875   2.255   6.932   7.253 -0.1671  0.0025 -0.6416
  140MOL   C11844876   2.364   6.959   7.333  0.1118  0.1083 -0.0225
  140MOL   C11944877   2.469   7.049   7.294 -0.2032  0.4707 -0.9138
  140MOL   C12044878   2.454   7.110   7.174 -0.2568  0.1095 -0.1382
  140MOL   C12144879   2.330   7.095   7.097  0.0229 -0.7940 -0.4963
  140MOL   H12244880   2.040   6.963   6.839  1.2794 -0.5612 -1.5757
  140MOL   H12344881   2.160   7.071   6.869 -0.9422  0.4660  2.4112
  140MOL   H12444882   2.079   6.869   7.077 -0.6517 -0.3089 -0.6616
  140MOL   H12544883   2.177   6.869   7.293  0.2610  1.3719  2.4541
  140MOL   H12644884   2.364   6.915   7.431  0.8741  2.1903  0.9446
  140MOL   H12744885   2.562   7.061   7.348 -0.9379  1.0390  0.2369
  140MOL   H12844886   2.533   7.172   7.134  1.1866 -1.9936 -0.6157
  140MOL   H12944887   2.321   7.143   7.000 -1.8082 -1.7422 -0.8056
  140MOL   C13044888   2.008   7.068   7.102  0.3245 -0.2202 -0.6305
  140MOL   C13144889   1.864   7.030   7.090  0.1938 -0.4123  0.3668
  140MOL   C13244890   1.809   7.013   7.228  0.2507 -0.3531  0.0570
  140MOL   C13344891   1.802   7.115   7.328 -0.0767 -0.0702  0.1626
  140MOL   C13444892   1.743   7.090   7.458 -0.8859  1.0746 -0.7051
  140MOL   C13544893   1.690   6.966   7.487 -0.1364  0.5284  0.1475
  140MOL   C13644894   1.701   6.865   7.384  1.0614 -0.1385 -0.6276
  140MOL   C13744895   1.751   6.894   7.260 -0.6470 -0.3546 -0.7606
  140MOL   H13844896   2.010   7.154   7.034 -1.4017 -1.1302 -1.8536
  140MOL   H13944897   2.039   7.102   7.201  1.9929 -3.0121 -0.1413
  140MOL   H14044898   1.871   6.936   7.035  2.7275 -0.5315  0.8398
  140MOL   H14144899   1.839   7.214   7.307  0.5355 -0.2320  0.4806
  140MOL   H14244900   1.728   7.170   7.529 -1.0796 -1.0472  1.7392
  140MOL   H14344901   1.648   6.939   7.583 -0.6773 -0.6593 -0.4154
  140MOL   H14444902   1.679   6.768   7.426  0.2954  0.5287  0.5108
  140MOL   H14544903   1.746   6.813   7.188 -0.6776 -0.8918 -0.1630
  140MOL   C14644904   1.773   7.135   7.009 -0.1673 -0.6129 -0.6528
  140MOL   C14744905   1.800   7.136   6.856 -0.2885 -0.2445 -0.5204
  140MOL   C14844906   1.748   7.013   6.786 -0.3460 -0.0025 -0.5442
  140MOL   C14944907   1.636   6.936   6.830  0.4487 -0.7667 -0.6419
  140MOL   C15044908   1.589   6.829   6.753 -0.0256  0.1320  0.1058
  140MOL   C15144909   1.644   6.795   6.630  0.2633 -0.2618 -0.7143
  140MOL   C15244910   1.757   6.866   6.584 -0.8508 -0.6325  0.3403
  140MOL   C15344911   1.813   6.971   6.667  0.7473  0.2645 -0.3619
  140MOL   H15444912   1.804   7.230   7.052 -1.9457  0.1237 -0.9503
  140MOL   H15544913   1.666   7.127   7.026 -0.2748  0.4987 -0.7751
  140MOL   H15644914   1.906   7.125   6.836 -0.4291 -0.8454 -0.9882
  140MOL   H15744915   1.577   6.956   6.919  1.5329  0.2775 -0.1451
  140MOL   H15844916   1.502   6.777   6.791 -1.2802  1.9574 -0.2404
  140MOL   H15944917   1.590   6.718   6.577 -0.9418  1.4317 -2.0235
  140MOL   H16044918   1.801   6.832   6.491  1.2275 -1.4414  1.5862
  140MOL   H16144919   1.897   7.031   6.632 -0.6104  1.0274 -2.4292
  140MOL   C16244920   1.754   7.262   6.782  0.8322 -0.2496 -0.5106
  140MOL   C16344921   1.845   7.384   6.795 -0.3177  0.0698  0.2598
  140MOL   C16444922   1.995   7.358   6.772 -0.5299 -0.0663 -0.2327
  140MOL   C16544923   2.095   7.402   6.857 -0.3199 -0.1592  0.0818
  140MOL   C16644924   2.229   7.377   6.835 -0.5094 -0.3473  0.3241
  140MOL   C16744925   2.267   7.303   6.724  0.1150 -0.4488 -0.1030
  140MOL   C16844926   2.170   7.257   6.634 -0.3457  0.4637  0.3598
  140MOL   C16944927   2.038   7.282   6.658 -0.5653 -0.1846 -0.4163
  140MOL   H17044928   1.655   7.277   6.826 -0.0102 -4.2736 -0.7801
  140MOL   H17144929   1.739   7.242   6.676  1.9858  1.3392 -0.9876
  140MOL   H17244930   1.840   7.412   6.900  1.0773  1.0248  0.0813
  140MOL   H17344931   2.064   7.458   6.943  1.6898 -0.9117  1.3251
  140MOL   H17444932   2.299   7.406   6.913 -0.5251  2.0923 -0.5190
  140MOL   H17544933   2.363   7.255   6.713 -2.1780 -5.0853 -0.7428
  140MOL   H17644934   2.200   7.197   6.548 -2.5418 -0.9220  0.5115
  140MOL   H17744935   1.976   7.250   6.576 -1.8766  2.0874 -0.3587
  140MOL   C17844936   1.796   7.506   6.714  0.0170 -0.0942 -0.7675
  140MOL   C17944937   1.866   7.642   6.745 -0.4537 -0.4670 -0.5138
  140MOL   C18044938   1.843   7.742   6.630  0.5066  0.0536 -0.6301
  140MOL   C18144939   1.938   7.842   6.595  0.1837  0.0932  0.2419
  140MOL   C18244940   1.910   7.941   6.499  0.1078  0.0115  0.3171
  140MOL   C18344941   1.789   7.940   6.437  0.0156 -0.1496  0.1224
  140MOL   C18444942   1.692   7.837   6.457 -0.3235 -0.0378 -0.2829
  140MOL   C18544943   1.722   7.737   6.554 -0.2634 -0.7414  0.6043
  140MOL   H18644944   1.687   7.509   6.718  0.0209 -1.1356  0.2994
  140MOL   H18744945   1.811   7.475   6.611 -1.5620  0.0143 -1.0498
  140MOL   H18844946   1.971   7.614   6.745 -0.4672 -0.5163  0.1452
  140MOL   H18944947   2.036   7.844   6.641 -0.3141 -0.0977  1.3391
  140MOL   H19044948   1.987   8.016   6.487  0.8162 -0.9371 -1.0735
  140MOL   H19144949   1.765   8.021   6.369  0.6639 -0.9125 -1.0166
  140MOL   H19244950   1.593   7.843   6.416 -1.1430 -2.5340  1.2094
  140MOL   H19344951   1.647   7.667   6.588  0.0302 -1.5530 -0.3621
  140MOL   C19444952   1.837   7.698   6.883 -0.4536  0.3525  0.0423
  140MOL   C19544953   1.689   7.724   6.925  0.8047 -0.0253  0.0296
  140MOL   C19644954   1.634   7.603   7.002 -0.1598 -0.1729 -0.1698
  140MOL   C19744955   1.516   7.542   6.962 -0.6804  0.5834 -0.5054
  140MOL   C19844956   1.468   7.433   7.035  0.6310  0.0269  0.7057
  140MOL   C19944957   1.523   7.401   7.163  0.0780 -0.3459  0.4191
  140MOL   C20044958   1.633   7.467   7.211 -0.2885  0.1501  0.3421
  140MOL   C20144959   1.691   7.563   7.127 -0.2713  0.2395  0.5308
  140MOL   H20244960   1.896   7.789   6.886  0.1878 -0.0708  0.6844
  140MOL   H20344961   1.884   7.633   6.958  1.2293 -1.5368 -2.5592
  140MOL   H20444962   1.626   7.739   6.837  2.9048 -0.5492 -1.5983
  140MOL   H20544963   1.462   7.578   6.876 -0.6018  0.8376 -0.4491
  140MOL   H20644964   1.379   7.385   6.998  0.8602 -0.6193  0.9891
  140MOL   H20744965   1.483   7.319   7.221 -0.9753 -0.1534 -0.0145
  140MOL   H20844966   1.685   7.439   7.302  0.2094 -1.2055 -0.3587
  140MOL   H20944967   1.783   7.610   7.160  0.7045 -1.1260 -0.2193
  140MOL   C21044968   1.680   7.851   7.011 -0.4914  0.7162  0.0639
  140MOL   C21144969   1.649   7.980   6.933  0.2421  0.3346 -0.0081
  140MOL   C21244970   1.527   7.969   6.836 -1.0133  0.1345  0.2008
  140MOL   C21344971   1.546   8.004   6.701 -0.1680  0.5771  0.0769
  140MOL   C21444972   1.445   7.980   6.607  0.4611  0.4706 -0.6011
  140MOL   C21544973   1.323   7.926   6.649  0.2588  0.3903  0.1999
  140MOL   C21644974   1.298   7.898   6.781  0.4408 -0.0197 -0.9471
  140MOL   C21744975   1.399   7.918   6.871 -0.4737  0.3228 -0.2586
  140MOL   H21844976   1.766   7.857   7.078  1.1676 -0.6340 -1.8793
  140MOL   H21944977   1.597   7.842   7.081 -0.7203  2.8901  0.1253
  140MOL   H22044978   1.737   7.983   6.868 -1.2470  0.0732 -2.0866
  140MOL   H22144979   1.647   8.034   6.676  0.2871 -0.8260  0.1453
  140MOL   H22244980   1.470   8.012   6.507 -1.5563 -1.0950 -1.6413
  140MOL   H22344981   1.261   7.882   6.573  2.3250 -2.9000  0.3276
  140MOL   H22444982   1.204   7.854   6.812  0.1348  0.6511 -0.9117
  140MOL   H22544983   1.384   7.884   6.973  0.4014  0.7361  0.0132
  140MOL   C22644984   1.644   8.103   7.017  0.3194  0.9052  1.0192
  140MOL   C22744985   1.527   0.010   7.110  0.3415  0.0758 -0.2915
  140MOL   C22844986   1.535   8.038   7.236  0.0463 -0.0557 -0.7110
  140MOL   C22944987   1.644   8.032   7.327 -0.9208  0.2373 -0.1058
  140MOL   C23044988   1.644   7.937   7.426  0.2681 -0.0160  0.4435
  140MOL   C23144989   1.534   7.846   7.447 -0.6930  0.0223  0.0785
  140MOL   C23244990   1.418   7.865   7.373 -0.9416  0.6769 -0.0252
  140MOL   C23344991   1.425   7.952   7.265 -0.2169 -0.0993 -0.1252
  140MOL   H23444992   1.653   0.071   6.947 -1.1495  0.6960  0.5647
  140MOL   H23544993   1.737   8.098   7.073  1.0942 -0.9461 -0.3372
  140MOL   H23644994   1.431   8.100   7.066 -0.3214  0.4592  0.9100
  140MOL   H23744995   1.732   8.093   7.314 -1.1869  0.6605  0.0618
  140MOL   H23844996   1.730   7.928   7.490 -0.3143  1.0403  1.4098
  140MOL   H23944997   1.527   7.786   7.536 -2.1536  1.3897  0.9146
  140MOL   H24044998   1.337   7.796   7.389  0.1723 -0.0455  2.7329
  140MOL   H24144999   1.347   7.948   7.191 -0.7448  2.9455  0.1930
  140MOL   C24245000   1.520   0.159   7.151  0.2766 -0.6154  0.8937
  140MOL   C24345001   1.436   0.242   7.049  0.3381 -0.3596 -0.3305
  140MOL   C24445002   1.335   0.323   7.132  0.1783 -0.9247 -0.4416
  140MOL   C24545003   1.202   0.299   7.115  0.1373 -0.3644 -0.4591
  140MOL   C24645004   1.104   0.366   7.193  0.1227 -0.7225 -0.0395
  140MOL   C24745005   1.144   0.460   7.291  0.0644  0.4501  0.8970
  140MOL   C24845006   1.280   0.491   7.299  0.4917 -0.2789 -0.0554
  140MOL   C24945007   1.378   0.429   7.216  0.0002 -0.0312  0.0438
  140MOL   H25045008   1.620   0.195   7.176  1.4289 -2.5215 -0.8059
  140MOL   H25145009   1.476   0.181   7.248 -0.5265  1.0189  0.1722
  140MOL   H25245010   1.380   0.175   6.984 -0.2924  1.8006 -2.0990
  140MOL   H25345011   1.182   0.225   7.039  0.1070 -0.7619 -0.0651
  140MOL   H25445012   0.999   0.343   7.187 -0.3382  0.9752  1.0124
  140MOL   H25545013   1.068   0.502   7.355 -1.8866 -2.0545  0.2824
  140MOL   H25645014   1.294   0.574   7.367  0.8946 -0.2075 -0.2263
  140MOL   H25745015   1.478   0.468   7.221  0.0633 -0.0425 -1.0104
  140MOL   C25845016   1.522   0.330   6.953  0.1177  0.0626  0.3875
  140MOL   C25945017   1.503   0.315   6.805  0.4918  0.8769 -0.0445
  140MOL   C26045018   1.357   0.298   6.765 -0.4171  0.5949 -0.0112
  140MOL   C26145019   1.265   0.405   6.763 -0.0280 -0.2553 -0.1852
  140MOL   C26245020   1.130   0.383   6.742 -0.0543  0.2112  0.3568
  140MOL   C26345021   1.089   0.254   6.707  0.1123  0.8988 -0.8373
  140MOL   C26445022   1.176   0.143   6.712 -0.0715  0.6329 -0.0895
  140MOL   C26545023   1.307   0.163   6.745 -0.6096  0.4615 -0.3780
  140MOL   H26645024   1.626   0.299   6.960 -0.3725 -1.1753  2.7642
  140MOL   H26745025   1.523   0.428   7.001 -1.8928  1.1055 -1.5899
  140MOL   H26845026   1.545   0.223   6.764 -0.7232 -0.3869  1.4796
  140MOL   H26945027   1.295   0.497   6.812 -2.5636  0.8138 -0.5853
  140MOL   H27045028   1.067   0.470   6.754  0.0273  0.5002 -1.1990
  140MOL   H27145029   0.984   0.244   6.683 -0.0964  2.2966 -0.5778
  140MOL   H27245030   1.147   0.045   6.675 -0.1360  0.3395  0.7374
  140MOL   H27345031   1.382   0.085   6.750 -0.7415  0.2141 -2.1326
  140MOL   C27445032   1.579   0.426   6.730  0.2302  0.1213  0.2198
  140MOL   C27545033   1.569   0.429   6.576  0.2902 -0.3204 -0.0961
  140MOL   C27645034   1.564   0.573   6.528 -0.0371 -0.1581 -0.4296
  140MOL   C27745035   1.680   0.643   6.503  0.1070 -0.4166 -0.7739
  140MOL   C27845036   1.676   0.782   6.469  0.7018  0.6429  0.9497
  140MOL   C27945037   1.550   0.847   6.462 -0.7134  0.0445 -0.0730
  140MOL   C28045038   1.430   0.777   6.490  0.1548 -0.6706 -0.7925
  140MOL   C28145039   1.441   0.639   6.515  0.3115 -0.7088  0.8668
  140MOL   H28245040   1.683   0.421   6.764  1.0215 -2.7679 -2.4099
  140MOL   H28345041   1.540   0.522   6.764 -2.3551 -0.2845 -1.4208
  140MOL   H28445042   1.471   0.396   6.544 -0.0712  1.3908 -0.7904
  140MOL   H28545043   1.774   0.591   6.494  0.7568  0.6690 -0.3755
  140MOL   H28645044   1.767   0.832   6.440 -0.1859  0.3080 -2.6017
  140MOL   H28745045   1.536   0.949   6.432  2.1117 -0.1785 -2.3623
  140MOL   H28845046   1.333   0.822   6.478  0.6154  0.6213  0.1712
  140MOL   H28945047   1.348   0.585   6.526  0.5773 -1.1103  1.1551
  140MOL   C29045048   1.675   0.337   6.515 -0.2817  0.2099  0.2631
  140MOL   C29145049   1.632   0.292   6.367  0.0361  0.1255  0.2419
  140MOL   C29245050   1.750   0.277   6.273 -0.3943 -0.1309  0.0317
  140MOL   C29345051   1.777   0.371   6.177  0.2686 -0.0119  0.2323
  140MOL   C29445052   1.875   0.354   6.078  1.1829  0.6684  0.0869
  140MOL   C29545053   1.965   0.251   6.092 -0.3208  0.4199  0.3657
  140MOL   C29645054   1.959   0.164   6.204  0.1617 -0.4405  0.7992
  140MOL   C29745055   1.854   0.182   6.293  0.4926  0.1011 -0.1387
  140MOL   H29845056   1.705   0.249   6.572  0.0035 -1.2343 -2.0273
  140MOL   H29945057   1.773   0.384   6.510 -0.1047 -0.2700 -1.0463
  140MOL   H30045058   1.562   0.369   6.333  0.1508 -1.2171 -3.1726
  140MOL   H30145059   1.715   0.457   6.161  1.3630  0.6870 -0.3395
  140MOL   H30245060   1.881   0.435   6.007  2.3815  0.8244  0.3517
  140MOL   H30345061   2.040   0.251   6.014 -0.5797  2.0275  0.0845
  140MOL   H30445062   2.041   0.095   6.216  1.3575  1.2565  2.6500
  140MOL   H30545063   1.861   0.119   6.381 -0.6291  0.1854  0.0267
  140MOL   C30645064   1.535   0.170   6.358 -0.1269 -0.5931  0.1305
  140MOL   C30745065   1.485   0.122   6.223 -0.5024 -0.7065 -1.0639
  140MOL   C30845066   1.483   8.086   6.214 -0.0858 -0.6200  0.5420
  140MOL   C30945067   1.580   8.011   6.137  0.0593  0.0308 -0.4167
  140MOL   C31045068   1.570   7.876   6.125  0.5322 -0.4353  0.4208
  140MOL   C31145069   1.458   7.809   6.177 -1.2427  0.1172 -0.2081
  140MOL   C31245070   1.363   7.875   6.249  0.6199 -0.1547 -0.5374
  140MOL   C31345071   1.370   8.013   6.268 -0.5837 -0.7642 -0.1946
  140MOL   H31445072   1.451   0.180   6.427  0.9647 -0.6342  1.4707
  140MOL   H31545073   1.600   0.088   6.388 -0.8857 -0.9354  0.8706
  140MOL   H31645074   1.526   0.172   6.136  1.1331 -0.3733 -0.1106
  140MOL   H31745075   1.662   8.055   6.082  0.1535 -0.4202 -0.6348
  140MOL   H31845076   1.649   7.835   6.063  2.2237 -0.3239  2.4503
  140MOL   H31945077   1.436   7.704   6.166  0.8317 -0.5626  1.6056
  140MOL   H32045078   1.288   7.810   6.291 -0.2269  0.7601 -0.6129
  140MOL   H32145079   1.296   8.059   6.332 -1.3094  1.1656 -2.3348
  140MOL   H32245080   1.379   0.148   6.213 -0.4384 -0.4814 -1.1511
  141MOL     C145081   0.651   0.602   6.765 -0.4798 -0.4419 -0.0566
  141MOL     C245082   0.765   0.643   6.666 -0.2405 -0.2549  0.0321
  141MOL     C345083   0.879   0.709   6.744  0.1845 -0.6897  0.3203
  141MOL     C445084   0.942   0.656   6.863 -0.2389 -0.4726 -0.4295
  141MOL     C545085   1.056   0.718   6.911 -0.0448  0.2187  0.5542
  141MOL     C645086   1.102   0.838   6.853  0.6175 -0.5210  0.3420
  141MOL     C745087   1.034   0.904   6.746  0.3322 -0.1838 -0.1261
  141MOL     C845088   0.934   0.829   6.685  0.2703 -0.2053 -0.1164
  141MOL     H945089   0.588   0.525   6.721 -0.9072 -0.6106  0.8465
  141MOL    H1045090   0.688   0.548   6.852  0.1810  0.1275  0.0189
  141MOL    H1145091   0.728   0.713   6.591 -0.4740  1.1121  1.3930
  141MOL    H1245092   0.898   0.566   6.902 -1.2550 -0.1283 -0.7544
  141MOL    H1345093   1.107   0.669   6.992  1.4228  1.6590  0.5189
  141MOL    H1445094   1.189   0.884   6.896 -0.0405 -0.1682  1.3144
  141MOL    H1545095   1.082   0.997   6.721  0.5272  0.9247  3.9149
  141MOL    H1645096   0.891   0.878   6.599  0.4347 -0.5892 -0.4208
  141MOL    H1745097   0.586   0.683   6.799 -1.6284 -2.4186  2.6022
  141MOL    C1845098   0.812   0.518   6.585 -0.0320  0.5155 -0.5022
  141MOL    C1945099   0.909   0.551   6.461 -0.1080 -0.5195 -0.3056
  141MOL    C2045100   0.975   0.432   6.397 -0.7960 -0.1803  0.4475
  141MOL    C2145101   1.110   0.410   6.410  0.3341 -0.7608  0.3668
  141MOL    C2245102   1.174   0.310   6.339 -0.5192 -0.3180 -0.3202
  141MOL    C2345103   1.108   0.216   6.261  0.2049  0.5081 -0.0173
  141MOL    C2445104   0.972   0.238   6.249  0.8726  0.7546  0.0594
  141MOL    C2545105   0.905   0.344   6.317  0.2632  0.7810  0.4159
  141MOL    H2645106   0.736   0.449   6.550  0.3820  0.0701 -0.5266
  141MOL    H2745107   0.865   0.453   6.655  1.3386  2.3526  0.1985
  141MOL    H2845108   1.000   0.599   6.498  0.8508 -1.9290 -0.7951
  141MOL    H2945109   1.167   0.478   6.471  1.0016 -0.5718 -0.4472
  141MOL    H3045110   1.281   0.302   6.345 -0.4362 -0.2363 -1.4671
  141MOL    H3145111   1.163   0.134   6.216 -0.2432  0.5798 -0.7076
  141MOL    H3245112   0.907   0.184   6.181  1.2748  0.5675 -0.1737
  141MOL    H3345113   0.799   0.363   6.310  0.1503 -0.1808 -0.5597
  141MOL    C3445114   0.844   0.650   6.352  0.3088  0.4599 -0.5425
  141MOL    C3545115   0.933   0.681   6.230  0.3654 -0.3640 -0.2758
  141MOL    C3645116   0.841   0.750   6.126  0.9728 -0.6150 -0.1724
  141MOL    C3745117   0.778   0.671   6.030 -0.3716  0.0627  0.4896
  141MOL    C3845118   0.691   0.731   5.936  0.1635  0.5215 -0.3548
  141MOL    C3945119   0.662   0.871   5.953  0.3316 -0.1214 -0.3551
  141MOL    C4045120   0.723   0.954   6.046  0.1321  0.0490 -0.9747
  141MOL    C4145121   0.806   0.892   6.138 -0.9976  0.2400  0.0300
  141MOL    H4245122   0.809   0.746   6.391 -1.8697 -0.5646  0.0999
  141MOL    H4345123   0.756   0.598   6.316 -0.5782  0.7478  1.1798
  141MOL    H4445124   0.955   0.583   6.188 -1.3305 -0.4483 -1.0030
  141MOL    H4545125   0.816   0.570   6.026 -1.2024 -0.2206 -0.6163
  141MOL    H4645126   0.647   0.680   5.851  0.8960 -0.6289 -0.0575
  141MOL    H4745127   0.599   0.920   5.880  0.9643  1.7006  0.3077
  141MOL    H4845128   0.695   1.058   6.054  0.0755  0.0734 -1.4596
  141MOL    H4945129   0.856   0.946   6.217 -1.9699 -0.2714  1.0051
  141MOL    C5045130   1.066   0.755   6.260  0.1331  0.0579  0.2584
  141MOL    C5145131   1.175   0.746   6.155 -0.5039  0.3955  0.1232
  141MOL    C5245132   1.228   0.604   6.109 -0.1461 -0.0704 -0.1098
  141MOL    C5345133   1.148   0.522   6.021 -0.2245  0.0828  0.0202
  141MOL    C5445134   1.198   0.402   5.963 -0.6404  0.6773 -0.1837
  141MOL    C5545135   1.326   0.354   6.005  0.2062 -0.0848  0.4402
  141MOL    C5645136   1.395   0.426   6.105 -0.0887  0.1537  0.7778
  141MOL    C5745137   1.348   0.549   6.159  0.1988 -0.2482 -0.3422
  141MOL    H5845138   1.107   0.718   6.354  0.5018  0.4307  0.2419
  141MOL    H5945139   1.037   0.857   6.286 -0.1988  0.1574 -0.4925
  141MOL    H6045140   1.261   0.807   6.185 -0.4168  0.9498 -1.2108
  141MOL    H6145141   1.048   0.555   6.000 -0.9629  0.1960  3.5261
  141MOL    H6245142   1.139   0.349   5.890  1.0073 -0.9383 -0.4036
  141MOL    H6345143   1.386   0.274   5.964 -1.1677 -0.8296 -0.1299
  141MOL    H6445144   1.494   0.395   6.137  1.4686  1.9660 -2.0805
  141MOL    H6545145   1.403   0.610   6.229 -0.9988  0.9945 -0.4464
  141MOL    C6645146   1.136   0.828   6.031 -0.7003  0.1120 -0.3427
  141MOL    C6745147   1.227   0.829   5.909 -0.1988  0.0558 -0.3511
  141MOL    C6845148   1.146   0.790   5.785 -0.5720  0.2934 -0.2805
  141MOL    C6945149   1.193   0.681   5.711  0.3980 -0.1185 -0.1201
  141MOL    C7045150   1.107   0.624   5.622 -0.1887 -0.1279 -0.9536
  141MOL    C7145151   0.984   0.683   5.591 -0.1238  0.1417  0.5881
  141MOL    C7245152   0.936   0.797   5.657 -0.5412  0.2807  0.1568
  141MOL    C7345153   1.022   0.849   5.758  0.3523 -0.5116 -0.1686
  141MOL    H7445154   1.122   0.931   6.064  2.4554  0.3186  0.4566
  141MOL    H7545155   1.037   0.796   5.996 -1.0753 -0.6499  1.3402
  141MOL    H7645156   1.311   0.762   5.930  1.1645  2.5381  2.3624
  141MOL    H7745157   1.285   0.628   5.733  0.5837 -0.7354 -2.3199
  141MOL    H7845158   1.150   0.551   5.555  1.9845 -0.3456  0.6265
  141MOL    H7945159   0.939   0.640   5.502  1.1239 -0.2422  0.1415
  141MOL    H8045160   0.843   0.840   5.622 -1.3650 -4.2411 -3.9257
  141MOL    H8145161   0.987   0.938   5.808 -0.2773  0.7433 -2.7060
  141MOL    C8245162   1.299   0.961   5.895  0.1044 -0.3773  0.5479
  141MOL    C8345163   1.415   0.988   6.000 -0.4442 -1.1426  0.3795
  141MOL    C8445164   1.539   0.896   5.983 -0.5229 -0.3125 -0.2072
  141MOL    C8545165   1.599   0.827   6.095  0.6231 -0.1274  0.8057
  141MOL    C8645166   1.724   0.759   6.083  0.2124 -0.0817 -0.5042
  141MOL    C8745167   1.765   0.733   5.952 -0.0818  0.1249 -0.2769
  141MOL    C8845168   1.697   0.782   5.838  0.4530  0.1323  0.0781
  141MOL    C8945169   1.587   0.871   5.859 -0.1658  0.2000  0.2955
  141MOL    H9045170   1.216   1.032   5.904  1.0320  1.0242 -1.4825
  141MOL    H9145171   1.344   0.962   5.795 -2.8518  0.0291 -0.8358
  141MOL    H9245172   1.374   0.971   6.099 -4.7754 -1.9071 -1.4243
  141MOL    H9345173   1.564   0.854   6.194 -0.3900 -2.0754  1.0069
  141MOL    H9445174   1.760   0.711   6.173 -0.6305 -0.1682 -0.2149
  141MOL    H9545175   1.858   0.680   5.935  0.4590  0.3953  1.6790
  141MOL    H9645176   1.733   0.782   5.736  0.3188  2.1037  0.0143
  141MOL    H9745177   1.545   0.919   5.772  1.4182  2.6591  0.8238
  141MOL    C9845178   1.470   1.128   6.007  0.3515  0.0072 -0.8659
  141MOL    C9945179   1.366   1.239   6.050  0.4225 -0.3305 -0.6730
  141MOL   C10045180   1.277   1.196   6.164 -0.2732  0.0411 -1.1093
  141MOL   C10145181   1.329   1.140   6.285 -0.3684 -0.5460  0.9520
  141MOL   C10245182   1.238   1.104   6.392 -0.3690  0.7903 -0.0042
  141MOL   C10345183   1.100   1.110   6.371 -0.5563  0.4029 -0.0991
  141MOL   C10445184   1.048   1.172   6.257 -0.1366  0.5589  0.3231
  141MOL   C10545185   1.137   1.207   6.154  0.5841  0.0819  0.0359
  141MOL   H10645186   1.511   1.160   5.911 -1.4376  0.5754 -1.4578
  141MOL   H10745187   1.555   1.131   6.076  1.3197 -1.4658 -1.9642
  141MOL   H10845188   1.297   1.259   5.968 -1.0694  0.4592  0.7291
  141MOL   H10945189   1.436   1.144   6.301 -0.1411 -3.1762  0.3365
  141MOL   H11045190   1.277   1.066   6.484  0.8859 -2.8291 -1.9434
  141MOL   H11145191   1.033   1.072   6.447 -1.1448  1.5807 -0.0280
  141MOL   H11245192   0.947   1.172   6.220  0.4686 -1.6682 -1.4610
  141MOL   H11345193   1.086   1.239   6.064  0.8571 -0.8981 -0.4777
  141MOL   C11445194   1.423   1.376   6.075 -0.6952 -0.2960 -0.5223
  141MOL   C11545195   1.315   1.490   6.069 -0.2312 -0.3224 -0.0779
  141MOL   C11645196   1.347   1.585   6.181 -0.4063 -0.7257  0.0002
  141MOL   C11745197   1.246   1.615   6.275  0.1433 -0.5625  0.7531
  141MOL   C11845198   1.258   1.725   6.361 -0.0813 -0.0916  0.0466
  141MOL   C11945199   1.380   1.796   6.370  0.3589 -0.5688 -0.3671
  141MOL   C12045200   1.488   1.763   6.287 -0.4997 -0.1949 -0.2738
  141MOL   C12145201   1.471   1.662   6.189 -0.0657 -0.3120 -0.1628
  141MOL   H12245202   1.492   1.401   5.994 -0.7918 -0.4334 -0.6455
  141MOL   H12345203   1.482   1.376   6.167 -2.4874  2.3599  0.7101
  141MOL   H12445204   1.216   1.450   6.091 -0.2593 -0.1265  0.1531
  141MOL   H12545205   1.154   1.559   6.283 -0.7910  1.1974  2.8885
  141MOL   H12645206   1.168   1.752   6.414 -1.1298 -2.5033 -0.4781
  141MOL   H12745207   1.395   1.875   6.442 -0.6421 -2.2966  1.8003
  141MOL   H12845208   1.577   1.824   6.286  0.3389 -1.3702  1.2644
  141MOL   H12945209   1.552   1.631   6.125  0.0884  0.4735 -0.3506
  141MOL   C13045210   1.304   1.575   5.936 -0.2323  0.1775  0.2388
  141MOL   C13145211   1.230   1.504   5.814  0.1494 -0.4676  0.0758
  141MOL   C13245212   1.316   1.407   5.735  0.1551 -0.0880  0.1600
  141MOL   C13345213   1.280   1.272   5.712 -0.1233 -0.0717  0.4890
  141MOL   C13445214   1.364   1.188   5.636  0.3917  0.2667 -0.1006
  141MOL   C13545215   1.490   1.232   5.595  0.4569  0.5243  0.4203
  141MOL   C13645216   1.529   1.364   5.618 -0.1724  0.7752  0.0657
  141MOL   C13745217   1.447   1.448   5.696 -0.4064 -0.3671 -0.4448
  141MOL   H13845218   1.405   1.606   5.909  0.1740  2.2257  3.8598
  141MOL   H13945219   1.248   1.662   5.970 -1.8181 -0.1804 -1.4077
  141MOL   H14045220   1.221   1.588   5.744 -0.8866 -0.1967  0.5293
  141MOL   H14145221   1.181   1.241   5.742 -0.4426  0.1637 -0.3015
  141MOL   H14245222   1.324   1.090   5.614 -0.1005 -0.0944  2.2468
  141MOL   H14345223   1.560   1.170   5.541 -0.5380 -0.1415 -0.1294
  141MOL   H14445224   1.624   1.396   5.580 -0.1259  0.0588 -0.4156
  141MOL   H14545225   1.481   1.550   5.697  1.8904 -1.0619 -2.0368
  141MOL   C14645226   1.091   1.451   5.850  0.5317  0.4505 -0.5980
  141MOL   C14745227   0.976   1.457   5.747  0.0308  0.6028 -0.2472
  141MOL   C14845228   0.850   1.373   5.791 -0.2492  0.1095 -0.2314
  141MOL   C14945229   0.798   1.381   5.920 -1.2311  0.7030  0.2483
  141MOL   C15045230   0.697   1.300   5.957 -0.0582 -0.0541 -0.2899
  141MOL   C15145231   0.625   1.230   5.854  0.3965 -0.3164  0.6653
  141MOL   C15245232   0.676   1.215   5.725  0.7517  0.4528 -0.0303
  141MOL   C15345233   0.789   1.295   5.691 -0.6399 -0.1787  0.0831
  141MOL   H15445234   1.047   1.508   5.932 -0.4447 -1.9899  0.6377
  141MOL   H15545235   1.094   1.354   5.899  0.0874  0.8359  0.2054
  141MOL   H15645236   1.013   1.406   5.658  0.6831  0.8627 -0.1329
  141MOL   H15745237   0.854   1.438   5.993 -1.5536  1.1880  0.1210
  141MOL   H15845238   0.650   1.299   6.055 -1.8885  2.2078 -1.0874
  141MOL   H15945239   0.527   1.192   5.883  0.2351  0.4899  1.1904
  141MOL   H16045240   0.623   1.166   5.645  0.1534  1.7309 -0.4279
  141MOL   H16145241   0.828   1.285   5.591  2.4402  2.7670  0.9062
  141MOL   C16245242   0.949   1.596   5.692 -0.0760 -0.2621  0.5484
  141MOL   C16345243   0.881   1.703   5.786 -0.8221 -1.3819  0.2447
  141MOL   C16445244   0.980   1.786   5.870 -0.1578 -0.4938 -0.4090
  141MOL   C16545245   1.085   1.860   5.818  0.1587 -0.6877 -0.2686
  141MOL   C16645246   1.163   1.936   5.905  0.2931 -0.8750  0.1240
  141MOL   C16745247   1.146   1.937   6.046 -0.1757  0.0874  0.6156
  141MOL   C16845248   1.040   1.867   6.091 -0.4450  0.7312 -0.4636
  141MOL   C16945249   0.957   1.786   6.007  0.2175  0.0622  0.2217
  141MOL   H17045250   0.878   1.579   5.611  0.9556 -1.7314 -0.0567
  141MOL   H17145251   1.037   1.630   5.638  0.3306 -2.0465  0.0333
  141MOL   H17245252   0.820   1.643   5.853 -0.0832 -3.5300 -0.9544
  141MOL   H17345253   1.092   1.856   5.710  0.6834 -0.3630 -0.2462
  141MOL   H17445254   1.241   1.996   5.861  1.5223 -1.0628  1.9953
  141MOL   H17545255   1.211   1.998   6.106 -0.3339  3.2258 -2.3296
  141MOL   H17645256   1.015   1.875   6.196  1.3583  3.1037 -0.1940
  141MOL   H17745257   0.883   1.728   6.060  1.1263 -0.0211  1.4229
  141MOL   C17845258   0.788   1.795   5.702 -0.0488 -0.4571  1.1293
  141MOL   C17945259   0.642   1.747   5.670 -0.5654 -0.5976 -0.6538
  141MOL   C18045260   0.560   1.719   5.791  0.0007  0.0386 -0.7498
  141MOL   C18145261   0.525   1.586   5.831 -0.1527 -0.6112 -0.2932
  141MOL   C18245262   0.444   1.568   5.942  0.1857  0.5756 -0.3139
  141MOL   C18345263   0.412   1.676   6.028  0.1375  0.8080 -0.9609
  141MOL   C18445264   0.452   1.806   5.996 -0.8192  0.4664 -0.4220
  141MOL   C18545265   0.519   1.828   5.868 -0.0850  1.2020 -0.3012
  141MOL   H18645266   0.840   1.819   5.609 -0.9690 -0.0866  0.7070
  141MOL   H18745267   0.766   1.889   5.752 -0.2680  0.0209  0.1556
  141MOL   H18845268   0.652   1.650   5.621 -0.4426 -0.8941 -0.0414
  141MOL   H18945269   0.573   1.506   5.775  0.5250 -1.5621  1.5867
  141MOL   H19045270   0.407   1.469   5.964 -0.6327  0.5541 -1.7224
  141MOL   H19145271   0.351   1.645   6.111  0.6204 -0.7779 -1.1735
  141MOL   H19245272   0.433   1.894   6.055  0.3015  0.8364 -0.5900
  141MOL   H19345273   0.550   1.929   5.842  1.1856  1.3347  1.6253
  141MOL   C19445274   0.565   1.851   5.577  0.1848 -0.0025 -0.2445
  141MOL   C19545275   0.615   1.859   5.428 -0.0809 -0.2208  0.1733
  141MOL   C19645276   0.660   1.724   5.377  0.0286 -0.4882  0.1833
  141MOL   C19745277   0.573   1.614   5.372  0.2936  0.2984 -0.2883
  141MOL   C19845278   0.624   1.487   5.336  0.5092  0.8562  0.1960
  141MOL   C19945279   0.763   1.472   5.301  0.1857 -0.1455  0.9591
  141MOL   C20045280   0.837   1.588   5.296 -0.5522 -0.2491 -0.0673
  141MOL   C20145281   0.789   1.715   5.324  0.6782  0.1282 -0.8038
  141MOL   H20245282   0.567   1.954   5.611  2.7858 -0.1528  0.1252
  141MOL   H20345283   0.464   1.814   5.557  0.9665 -1.6166 -1.2631
  141MOL   H20445284   0.706   1.918   5.433 -0.3615  0.2652 -0.4327
  141MOL   H20545285   0.469   1.616   5.402  0.3235 -0.3410 -0.1424
  141MOL   H20645286   0.560   1.401   5.328 -1.5731  2.3541  0.3918
  141MOL   H20745287   0.812   1.380   5.272  0.4890 -0.0650  1.2087
  141MOL   H20845288   0.940   1.593   5.263 -0.4314  0.7238  0.4428
  141MOL   H20945289   0.857   1.799   5.314  1.2529  0.0609  2.0528
  141MOL   C21045290   0.515   1.926   5.340 -0.0926 -0.4304  0.2720
  141MOL   C21145291   0.540   1.923   5.183 -0.0143 -0.0918 -1.1632
  141MOL   C21245292   0.409   1.945   5.113 -0.0076 -0.0455  0.1884
  141MOL   C21345293   0.355   2.070   5.073 -0.7689 -0.2124 -0.7041
  141MOL   C21445294   0.231   2.072   5.003  0.5936 -0.2157 -0.1137
  141MOL   C21545295   0.179   1.955   4.950 -0.7124 -0.2377  0.1330
  141MOL   C21645296   0.238   1.827   4.974 -0.2162 -0.0275 -0.5924
  141MOL   C21745297   0.352   1.827   5.056 -0.2805 -0.2055 -0.1484
  141MOL   H21845298   0.496   2.028   5.375 -0.7630  0.4462 -2.5264
  141MOL   H21945299   0.425   1.866   5.352 -0.9416  0.5178 -1.1167
  141MOL   H22045300   0.573   1.823   5.158 -1.4330 -0.5732 -1.1791
  141MOL   H22145301   0.392   2.167   5.103  0.5049 -1.6546  2.6561
  141MOL   H22245302   0.177   2.158   4.965 -1.9080 -0.8230  1.9037
  141MOL   H22345303   0.095   1.962   4.882 -0.1768 -0.8629 -0.6030
  141MOL   H22445304   0.190   1.742   4.928  0.2983 -0.2907 -0.6369
  141MOL   H22545305   0.399   1.733   5.078  0.3142 -0.1972 -1.3389
  141MOL   C22645306   0.649   2.028   5.143 -0.6516  0.1635  0.4171
  141MOL   C22745307   0.714   1.990   5.008 -0.0796  0.0397 -0.0454
  141MOL   C22845308   0.748   2.121   4.936  0.0697 -0.8229 -0.0155
  141MOL   C22945309   0.687   2.155   4.810  0.2511 -0.4421 -0.0899
  141MOL   C23045310   0.734   2.268   4.745 -0.2594  0.4265 -0.4453
  141MOL   C23145311   0.838   2.349   4.794  0.7190 -0.4346 -0.6230
  141MOL   C23245312   0.895   2.309   4.917 -0.2628 -0.2258  0.4839
  141MOL   C23345313   0.845   2.200   4.989 -0.0405  0.0468  0.5756
  141MOL   H23445314   0.721   2.032   5.225  0.3428 -0.1869 -0.4422
  141MOL   H23545315   0.599   2.125   5.140 -2.5155 -0.6015  3.6410
  141MOL   H23645316   0.639   1.936   4.952  0.1787 -0.8028  0.4223
  141MOL   H23745317   0.615   2.089   4.765 -0.6202  0.8378 -0.6108
  141MOL   H23845318   0.692   2.282   4.646 -0.8630 -2.3080 -0.6208
  141MOL   H23945319   0.872   2.433   4.735  0.0311 -0.0937 -0.5362
  141MOL   H24045320   0.977   2.365   4.959  1.0731 -1.0921 -0.9422
  141MOL   H24145321   0.911   2.169   5.068  0.6154 -1.0093 -0.3587
  141MOL   C24245322   0.834   1.896   5.032  0.6242 -0.2097 -0.2677
  141MOL   C24345323   0.909   1.856   4.903  0.7201  0.3964  0.1021
  141MOL   C24445324   1.051   1.917   4.901  0.3923  0.5160  0.7228
  141MOL   C24545325   1.072   2.035   4.822  0.0204  0.2318 -0.5044
  141MOL   C24645326   1.198   2.095   4.819 -0.9420  0.8204 -0.9031
  141MOL   C24745327   1.300   2.040   4.898 -0.7511 -0.0449 -0.9993
  141MOL   C24845328   1.279   1.917   4.960  0.2832  0.6042  0.7202
  141MOL   C24945329   1.154   1.859   4.973  0.3101  0.4752  0.1154
  141MOL   H25045330   0.799   1.809   5.089  0.4979 -0.0878 -0.1582
  141MOL   H25145331   0.900   1.942   5.106 -0.0083 -2.1620  1.5748
  141MOL   H25245332   0.855   1.897   4.817 -2.7018  0.6102  2.2514
  141MOL   H25345333   0.989   2.085   4.775 -1.1285 -1.0201  0.1829
  141MOL   H25445334   1.208   2.185   4.760 -0.7987  1.3609 -0.0596
  141MOL   H25545335   1.397   2.088   4.900 -0.6940 -0.2268  1.0692
  141MOL   H25645336   1.364   1.874   5.010 -0.3928  0.4451  1.7542
  141MOL   H25745337   1.127   1.769   5.028 -0.3695 -0.3814 -1.5952
  141MOL   C25845338   0.927   1.706   4.890 -0.2037 -0.1749  0.8303
  141MOL   C25945339   0.794   1.633   4.860  0.0584  0.3399  0.0819
  141MOL   C26045340   0.722   1.700   4.739  0.3528  0.3337  0.1795
  141MOL   C26145341   0.783   1.712   4.610  0.4550 -0.5212  0.1826
  141MOL   C26245342   0.716   1.769   4.501  0.5866  0.0996 -0.2507
  141MOL   C26345343   0.587   1.833   4.523  1.2705 -0.3869 -0.0498
  141MOL   C26445344   0.527   1.812   4.646 -0.0185  0.4844  0.7738
  141MOL   C26545345   0.593   1.750   4.756  0.8393  0.3957  0.3523
  141MOL   H26645346   0.975   1.664   4.979  1.1070 -0.4230  0.0318
  141MOL   H26745347   0.994   1.686   4.806 -0.9755  0.6985  0.0079
  141MOL   H26845348   0.741   1.648   4.954  0.6037  0.2374  0.4104
  141MOL   H26945349   0.883   1.678   4.590 -0.6967 -3.3599 -0.9836
  141MOL   H27045350   0.769   1.782   4.408 -0.5567 -1.0203 -1.0662
  141MOL   H27145351   0.545   1.890   4.442 -0.9560  0.6238  1.7391
  141MOL   H27245352   0.430   1.860   4.656  0.1920  1.5004 -1.5713
  141MOL   H27345353   0.540   1.753   4.850 -0.3563 -2.8155 -0.1758
  141MOL   C27445354   0.804   1.479   4.840  0.3081 -0.5832  0.5443
  141MOL   C27545355   0.669   1.398   4.815 -0.7490 -0.2803  0.3812
  141MOL   C27645356   0.700   1.250   4.780 -0.1340 -0.5047  0.0872
  141MOL   C27745357   0.651   1.188   4.664  0.0587 -0.7128 -0.6930
  141MOL   C27845358   0.698   1.058   4.627  0.2765  0.2343  0.1085
  141MOL   C27945359   0.796   0.991   4.709 -0.0870 -0.1923  0.1216
  141MOL   C28045360   0.827   1.044   4.835 -0.4562  0.1666 -0.1561
  141MOL   C28145361   0.782   1.176   4.861  0.2642 -0.5871  0.1613
  141MOL   H28245362   0.841   1.440   4.934 -1.0435 -0.4914  1.1338
  141MOL   H28345363   0.876   1.465   4.760  0.5998  0.9509  0.5421
  141MOL   H28445364   0.622   1.445   4.729  2.2999  0.9444 -0.7005
  141MOL   H28545365   0.574   1.243   4.611  0.0395  0.8275  0.9111
  141MOL   H28645366   0.651   1.010   4.542  1.4703 -1.8505  0.5785
  141MOL   H28745367   0.828   0.889   4.689 -0.1215  0.0323 -1.1575
  141MOL   H28845368   0.886   0.987   4.906  0.9480 -0.1102 -1.5120
  141MOL   H28945369   0.816   1.212   4.956 -1.4846  0.7866  0.2931
  141MOL   C29045370   0.566   1.404   4.930  0.1151  0.0938  0.0734
  141MOL   C29145371   0.437   1.334   4.896 -0.0253 -0.4251 -0.6070
  141MOL   C29245372   0.355   1.295   5.013 -0.2164 -0.0457 -0.1736
  141MOL   C29345373   0.326   1.391   5.113 -0.6288  0.2713  0.2163
  141MOL   C29445374   0.247   1.363   5.223  0.1387  0.1082 -0.0799
  141MOL   C29545375   0.194   1.232   5.241  0.2215  0.3862 -0.2937
  141MOL   C29645376   0.231   1.137   5.147 -0.4814  0.1906  0.8295
  141MOL   C29745377   0.309   1.167   5.032 -0.6837  0.0909  0.0223
  141MOL   H29845378   0.544   1.506   4.959 -1.3174  0.3472 -1.7923
  141MOL   H29945379   0.609   1.365   5.022 -0.4248 -0.0333  0.2724
  141MOL   H30045380   0.454   1.243   4.838 -1.2558 -0.4599 -0.9228
  141MOL   H30145381   0.369   1.490   5.109 -1.4431  0.6252  0.1578
  141MOL   H30245382   0.224   1.445   5.290  0.1743 -0.3145  0.4586
  141MOL   H30345383   0.138   1.197   5.327 -0.7379  0.3562 -0.9200
  141MOL   H30445384   0.184   1.041   5.164 -1.7531  0.9451  1.6694
  141MOL   H30545385   0.319   1.092   4.955 -0.8180  0.1476 -0.0495
  141MOL   C30645386   0.355   1.426   4.801 -0.3552  0.7699 -0.2544
  141MOL   C30745387   0.231   1.355   4.738 -1.0139 -0.0661  0.1095
  141MOL   C30845388   0.117   1.438   4.700 -1.0561  0.8435  0.3737
  141MOL   C30945389   0.044   1.509   4.802  0.3552  0.2911  0.4019
  141MOL   C31045390   8.045   1.577   4.760  0.0571  0.1085 -1.0542
  141MOL   C31145391   8.021   1.590   4.624  0.5505  0.3920  0.6724
  141MOL   C31245392   8.087   1.519   4.523 -0.2048 -0.0680 -0.0218
  141MOL   C31345393   0.078   1.433   4.567 -0.7086 -0.2528  0.5701
  141MOL   H31445394   0.418   1.459   4.718 -2.6520  0.7717 -2.0629
  141MOL   H31545395   0.325   1.516   4.856  1.0486  0.9052  0.3048
  141MOL   H31645396   0.187   1.287   4.811 -0.2130 -1.5103 -0.7496
  141MOL   H31745397   0.083   1.513   4.903  0.3376 -0.3286  0.4327
  141MOL   H31845398   7.979   1.627   4.829  0.2207 -0.3453 -0.5621
  141MOL   H31945399   7.942   1.660   4.599 -1.8561 -2.5777 -0.5260
  141MOL   H32045400   8.064   1.542   4.420  0.8553 -0.4342 -0.3431
  141MOL   H32145401   0.141   1.394   4.488 -0.4986  1.3221 -0.0613
  141MOL   H32245402   0.244   1.294   4.649 -2.2308  1.2987 -1.0321
  142MOL     C145403   2.964   4.411   0.877 -0.6863  0.1206  0.4377
  142MOL     C245404   2.997   4.457   1.025 -0.3714 -0.1855  0.1210
  142MOL     C345405   3.132   4.404   1.075  0.9105 -0.8557 -0.3531
  142MOL     C445406   3.248   4.458   1.022 -0.3537  0.1887 -0.2352
  142MOL     C545407   3.370   4.400   1.054  0.0508 -1.1698  0.2907
  142MOL     C645408   3.382   4.281   1.124 -0.0929 -0.0181  0.3412
  142MOL     C745409   3.263   4.224   1.175 -0.7134  1.1114 -0.1158
  142MOL     C845410   3.135   4.282   1.148 -0.1790  0.3271  0.4399
  142MOL     H945411   3.033   4.454   0.805 -1.0455  0.1206  0.0892
  142MOL    H1045412   2.954   4.304   0.858  0.7081  0.2515 -1.0989
  142MOL    H1145413   2.923   4.408   1.088 -0.0605 -3.7243 -2.1583
  142MOL    H1245414   3.243   4.545   0.959 -1.3575 -1.2192 -2.1636
  142MOL    H1345415   3.456   4.451   1.012  0.8625 -2.2762  0.5691
  142MOL    H1445416   3.477   4.236   1.147 -0.6093 -1.5571 -0.4638
  142MOL    H1545417   3.257   4.135   1.236  1.3640  2.1950  1.7387
  142MOL    H1645418   3.046   4.232   1.183  0.3418  0.0499  1.3924
  142MOL    H1745419   2.868   4.459   0.858 -0.5655  0.8647  1.6508
  142MOL    C1845420   2.974   4.606   1.052 -0.4801  0.7966  0.4071
  142MOL    C1945421   2.829   4.651   1.047 -0.7868 -0.2958  0.2149
  142MOL    C2045422   2.741   4.562   1.141  0.1394  0.5241  0.1822
  142MOL    C2145423   2.644   4.475   1.086 -1.0127  0.0977  0.5824
  142MOL    C2245424   2.554   4.402   1.161  0.5258 -0.0492 -0.0347
  142MOL    C2345425   2.574   4.403   1.298  1.3946 -0.0589  0.1308
  142MOL    C2445426   2.679   4.465   1.354  0.5212  0.2676 -0.1398
  142MOL    C2545427   2.756   4.555   1.279 -0.1919 -0.3550 -0.0907
  142MOL    H2645428   3.037   4.662   0.983 -1.9189 -0.2371 -1.7816
  142MOL    H2745429   3.015   4.631   1.150 -0.7432 -1.2529  1.0651
  142MOL    H2845430   2.788   4.642   0.946 -1.3274  1.0914  0.2991
  142MOL    H2945431   2.619   4.470   0.981 -1.2083 -3.3546  0.7452
  142MOL    H3045432   2.478   4.341   1.115 -0.3337  0.8475  0.1659
  142MOL    H3145433   2.502   4.346   1.355  1.3951 -1.3016 -1.0720
  142MOL    H3245434   2.706   4.449   1.457 -1.5841 -0.8241  0.2793
  142MOL    H3345435   2.825   4.622   1.329 -1.6520  2.0910 -1.2506
  142MOL    C3445436   2.812   4.800   1.089 -1.0567 -0.9848 -0.4094
  142MOL    C3545437   2.851   4.897   0.966  0.7254 -0.5909 -1.0369
  142MOL    C3645438   2.755   4.896   0.847 -0.0503 -0.5606  0.2260
  142MOL    C3745439   2.630   4.960   0.855 -0.0160  0.1674 -0.1330
  142MOL    C3845440   2.540   4.971   0.747 -0.6306  0.5704  0.0698
  142MOL    C3945441   2.590   4.936   0.619 -0.1431  1.1678 -0.3724
  142MOL    C4045442   2.711   4.863   0.605  0.5069  0.3531 -0.0245
  142MOL    C4145443   2.794   4.850   0.717  0.5676  0.3142 -0.4412
  142MOL    H4245444   2.864   4.830   1.180  0.2962  1.3743 -1.8927
  142MOL    H4345445   2.707   4.822   1.107 -0.6207 -0.5936  1.7002
  142MOL    H4445446   2.944   4.851   0.930 -0.1353 -1.2577 -2.4650
  142MOL    H4545447   2.606   4.991   0.956  1.0675  0.3324  0.0838
  142MOL    H4645448   2.442   5.012   0.767 -1.0036  0.6794 -1.9306
  142MOL    H4745449   2.534   4.963   0.530 -0.3518 -0.6127 -0.7958
  142MOL    H4845450   2.748   4.829   0.510 -0.7287  0.7660 -0.6704
  142MOL    H4945451   2.897   4.828   0.690 -0.0821 -0.4118 -2.3976
  142MOL    C5045452   2.877   5.046   1.010 -0.2389  0.1447 -0.1011
  142MOL    C5145453   3.012   5.053   1.095  1.0432 -0.7539  0.3934
  142MOL    C5245454   3.130   4.993   1.027  0.2585  0.2981  0.2865
  142MOL    C5345455   3.204   4.885   1.079  0.0034 -0.0735  0.1689
  142MOL    C5445456   3.313   4.826   1.007  0.6922 -0.5348  1.0261
  142MOL    C5545457   3.351   4.879   0.885  0.4154 -0.4394  1.1464
  142MOL    C5645458   3.288   4.994   0.841  0.6224 -0.4378 -0.6550
  142MOL    C5745459   3.177   5.048   0.905 -0.4091  0.1247  0.5430
  142MOL    H5845460   2.790   5.082   1.064 -0.4206 -1.5146  0.7643
  142MOL    H5945461   2.881   5.122   0.932 -3.1170  0.3665 -0.0604
  142MOL    H6045462   2.999   4.995   1.186 -0.6020 -0.8331  0.1077
  142MOL    H6145463   3.167   4.842   1.171  1.6354  0.2124  0.9951
  142MOL    H6245464   3.363   4.737   1.043 -1.0134 -1.9283  0.0278
  142MOL    H6345465   3.429   4.837   0.823 -0.2695  1.3604 -0.9906
  142MOL    H6445466   3.319   5.033   0.745 -0.1795  0.3671 -0.5968
  142MOL    H6545467   3.130   5.139   0.873 -0.3384  0.3072  0.9442
  142MOL    C6645468   3.045   5.197   1.134 -0.1733  0.4765 -0.4335
  142MOL    C6745469   3.156   5.210   1.238  0.3232 -0.5427  0.3087
  142MOL    C6845470   3.207   5.354   1.234 -0.7502 -0.6108  0.0752
  142MOL    C6945471   3.345   5.384   1.201  0.0014  0.6220 -0.4225
  142MOL    C7045472   3.389   5.516   1.200 -0.1566 -0.6065 -0.0435
  142MOL    C7145473   3.303   5.627   1.216 -0.2454 -0.6504  0.8597
  142MOL    C7245474   3.169   5.600   1.244  0.0957 -0.4479  0.1082
  142MOL    C7345475   3.124   5.470   1.246  0.6622  0.2603  0.5527
  142MOL    H7445476   2.955   5.240   1.178  1.3684  0.8448  2.4607
  142MOL    H7545477   3.070   5.261   1.050 -1.4589 -0.7979 -1.8124
  142MOL    H7645478   3.252   5.162   1.220  1.3379  1.6518 -0.3581
  142MOL    H7745479   3.415   5.312   1.163 -1.6332 -1.2178 -0.0128
  142MOL    H7845480   3.486   5.544   1.161  0.0562  0.8886  1.5070
  142MOL    H7945481   3.345   5.726   1.224 -0.3765 -0.4025 -1.3264
  142MOL    H8045482   3.102   5.680   1.274  0.2096  0.0478 -0.9382
  142MOL    H8145483   3.022   5.454   1.277  0.6449 -0.0229  0.3504
  142MOL    C8245484   3.109   5.178   1.386  0.5766 -0.4081  1.0067
  142MOL    C8345485   3.218   5.223   1.490  0.0801 -1.2591 -0.5136
  142MOL    C8445486   3.155   5.239   1.629  0.2274 -0.0709 -0.0369
  142MOL    C8545487   3.143   5.361   1.700  0.4409  0.6269 -0.5113
  142MOL    C8645488   3.089   5.362   1.829  0.0854  0.4040  0.0351
  142MOL    C8745489   3.043   5.240   1.879 -0.4564  0.8636 -0.1090
  142MOL    C8845490   3.050   5.120   1.814  0.7016 -0.1364  0.6912
  142MOL    C8945491   3.105   5.119   1.686  0.8129  0.2975 -0.4112
  142MOL    H9045492   3.083   5.072   1.393  0.9290 -0.5835 -0.2145
  142MOL    H9145493   3.022   5.240   1.406  0.1833 -0.4103 -0.6748
  142MOL    H9245494   3.254   5.323   1.466  1.0227 -1.7703 -1.2761
  142MOL    H9345495   3.179   5.456   1.662  0.6807  0.2132 -1.3273
  142MOL    H9445496   3.086   5.455   1.884  0.0229 -0.6334  1.8520
  142MOL    H9545497   3.002   5.245   1.979 -2.3148 -0.9722 -0.7275
  142MOL    H9645498   2.996   5.042   1.866 -1.7785  0.7073 -0.5071
  142MOL    H9745499   3.111   5.026   1.631 -2.3765 -0.0352 -0.3421
  142MOL    C9845500   3.341   5.134   1.495  0.3518  0.2733 -0.1350
  142MOL    C9945501   3.480   5.169   1.564  0.7320 -0.3087  0.2727
  142MOL   C10045502   3.547   5.308   1.536  0.0568  0.5263  0.2105
  142MOL   C10145503   3.472   5.433   1.555 -0.4058 -0.0944 -0.1060
  142MOL   C10245504   3.536   5.556   1.530  0.3292 -0.3646  0.8290
  142MOL   C10345505   3.671   5.560   1.488 -0.6366  0.3132  1.0365
  142MOL   C10445506   3.738   5.437   1.467  0.1630  0.0819  0.4344
  142MOL   C10545507   3.676   5.314   1.493 -0.2231  0.2525  0.3613
  142MOL   H10645508   3.362   5.119   1.389  0.7008  1.3010 -0.2160
  142MOL   H10745509   3.300   5.037   1.525 -0.6776  0.9866  0.7945
  142MOL   H10845510   3.543   5.085   1.536  0.1779 -1.9541  3.7307
  142MOL   H10945511   3.370   5.442   1.587 -0.9239 -2.8041 -0.8678
  142MOL   H11045512   3.488   5.653   1.536  1.5650  0.2215  1.3620
  142MOL   H11145513   3.727   5.652   1.481  1.6990 -1.1367  0.3023
  142MOL   H11245514   3.839   5.439   1.428 -0.7681  0.6997 -2.0346
  142MOL   H11345515   3.741   5.229   1.479 -0.1288  0.5557 -1.1540
  142MOL   C11445516   3.474   5.149   1.717 -0.1964  1.0360  0.5480
  142MOL   C11545517   3.446   5.012   1.775  0.6013  0.5025 -0.1830
  142MOL   C11645518   3.533   4.902   1.714  0.3745  0.2304  0.2522
  142MOL   C11745519   3.671   4.900   1.707  0.5081  0.6001 -0.3979
  142MOL   C11845520   3.739   4.804   1.636 -0.3946  0.3300  0.2012
  142MOL   C11945521   3.677   4.689   1.582 -0.0072  0.1903  0.0251
  142MOL   C12045522   3.532   4.686   1.604 -0.9319 -0.2496  0.2665
  142MOL   C12145523   3.466   4.786   1.668 -0.3065  0.4764 -0.2735
  142MOL   H12245524   3.400   5.222   1.750  0.9429  2.0479  0.8765
  142MOL   H12345525   3.570   5.176   1.760  0.6058 -2.3405  1.0474
  142MOL   H12445526   3.343   4.988   1.747  0.9454 -0.4246 -0.6758
  142MOL   H12545527   3.718   4.991   1.739  2.3521 -0.8104  1.0707
  142MOL   H12645528   3.846   4.816   1.626 -0.2849  0.7911  1.8213
  142MOL   H12745529   3.717   4.610   1.519 -3.1918 -0.1781 -1.6430
  142MOL   H12845530   3.473   4.606   1.564 -0.5682 -0.9043  1.0260
  142MOL   H12945531   3.360   4.770   1.684  0.0218 -0.3880  1.1125
  142MOL   C13045532   3.468   5.009   1.932 -0.2685  0.5372 -0.7170
  142MOL   C13145533   3.404   4.889   2.014  0.0154 -0.6588 -0.1927
  142MOL   C13245534   3.442   4.891   2.158 -0.1213 -0.1738  0.7111
  142MOL   C13345535   3.367   4.969   2.246  0.1889  0.6339  0.0673
  142MOL   C13445536   3.393   4.985   2.377 -0.0362 -0.5236 -0.6468
  142MOL   C13545537   3.500   4.913   2.433 -0.1449 -0.4744 -0.8955
  142MOL   C13645538   3.574   4.827   2.352 -0.7870 -0.4912 -0.9702
  142MOL   C13745539   3.552   4.817   2.215  0.1667  0.0510  0.5783
  142MOL   H13845540   3.428   5.100   1.975 -0.7101 -0.6252  1.3748
  142MOL   H13945541   3.574   5.011   1.956 -0.7469  2.5031  1.3772
  142MOL   H14045542   3.457   4.803   1.972  1.5760 -0.2199  0.8214
  142MOL   H14145543   3.290   5.028   2.198  0.2301  1.2851  0.7753
  142MOL   H14245544   3.339   5.053   2.441  0.1752  0.4115 -1.4566
  142MOL   H14345545   3.531   4.934   2.535 -0.2620 -1.2858 -0.6927
  142MOL   H14445546   3.643   4.766   2.408  0.4680  0.3506 -1.5793
  142MOL   H14545547   3.606   4.756   2.144 -1.6944 -1.9884  0.8681
  142MOL   C14645548   3.254   4.865   1.989 -0.2094  0.7914  0.5530
  142MOL   C14745549   3.193   4.736   2.055  0.2875 -0.2520 -1.0105
  142MOL   C14845550   3.049   4.768   2.102  0.1850  0.2268  0.5361
  142MOL   C14945551   3.015   4.767   2.237 -0.7213 -0.2723  0.0892
  142MOL   C15045552   2.888   4.801   2.275 -0.1181 -0.1302  0.0532
  142MOL   C15145553   2.790   4.829   2.177 -0.0280 -0.3108  0.8246
  142MOL   C15245554   2.824   4.829   2.043  0.1366  0.1269  0.2836
  142MOL   C15345555   2.952   4.796   2.003 -0.0933 -0.3102  0.1174
  142MOL   H15445556   3.239   4.870   1.881  1.8962  1.8686  0.2938
  142MOL   H15545557   3.213   4.959   2.026  4.0055  1.8419  2.8744
  142MOL   H15645558   3.251   4.714   2.145 -1.8861 -1.1570  0.2153
  142MOL   H15745559   3.087   4.735   2.311 -1.0956 -1.4028 -0.0183
  142MOL   H15845560   2.868   4.809   2.381  0.7127 -1.9590  0.3670
  142MOL   H15945561   2.691   4.857   2.210 -0.5457  0.3900 -1.2557
  142MOL   H16045562   2.758   4.867   1.967  0.6759 -1.0812 -0.8143
  142MOL   H16145563   2.980   4.799   1.898 -0.4944  1.4818  0.0557
  142MOL   C16245564   3.203   4.606   1.966 -0.8616  0.4583 -0.3924
  142MOL   C16345565   3.323   4.508   1.988 -0.1561  0.2815  0.5259
  142MOL   C16445566   3.333   4.477   2.136  0.0511 -0.2789  0.0724
  142MOL   C16545567   3.218   4.423   2.199  1.3200  0.0021  0.0446
  142MOL   C16645568   3.219   4.384   2.332  0.4636 -0.0778 -0.1845
  142MOL   C16745569   3.338   4.406   2.411 -0.1411  0.3089  0.5454
  142MOL   C16845570   3.449   4.460   2.345 -0.3124 -0.1651 -0.4132
  142MOL   C16945571   3.453   4.494   2.210 -0.4092 -0.6236  0.1507
  142MOL   H17045572   3.194   4.636   1.861  1.4441  2.0985 -0.1531
  142MOL   H17145573   3.115   4.548   1.995 -0.4234  0.8633  1.8419
  142MOL   H17245574   3.418   4.557   1.967 -1.0323  1.8383  0.0684
  142MOL   H17345575   3.129   4.402   2.142  0.1875 -1.9274  2.4328
  142MOL   H17445576   3.130   4.330   2.359 -0.8151  0.6946 -2.7534
  142MOL   H17545577   3.333   4.368   2.512 -0.7250 -1.5227 -0.1488
  142MOL   H17645578   3.547   4.451   2.390  0.6415  0.6386 -2.2944
  142MOL   H17745579   3.536   4.548   2.166 -0.6840  0.3137  0.7477
  142MOL   C17845580   3.305   4.378   1.908  0.9722 -0.3890  0.0027
  142MOL   C17945581   3.351   4.383   1.761 -0.3621 -0.1173 -0.2473
  142MOL   C18045582   3.493   4.327   1.746 -0.0156 -0.4058  0.4751
  142MOL   C18145583   3.605   4.415   1.760  1.5467  0.3218  0.5215
  142MOL   C18245584   3.735   4.368   1.759  0.3504 -0.3082 -0.9659
  142MOL   C18345585   3.750   4.226   1.750  0.2464 -0.0392 -0.1273
  142MOL   C18445586   3.647   4.138   1.717 -0.3860 -0.0356 -0.4410
  142MOL   C18545587   3.517   4.186   1.728 -0.0013 -0.5793  0.2449
  142MOL   H18645588   3.204   4.339   1.919  0.9047 -0.9533 -2.1939
  142MOL   H18745589   3.361   4.301   1.961 -0.0522 -0.5015  0.9396
  142MOL   H18845590   3.349   4.488   1.735 -0.4464  0.0285  0.3266
  142MOL   H18945591   3.580   4.520   1.768  2.3693  0.4386  1.6357
  142MOL   H19045592   3.816   4.436   1.777  0.0547 -0.2522  0.2533
  142MOL   H19145593   3.852   4.189   1.752 -0.5955 -2.5616 -1.4145
  142MOL   H19245594   3.672   4.033   1.705 -0.9733 -0.1542 -0.6300
  142MOL   H19345595   3.436   4.116   1.717  0.0777 -0.4476 -1.2324
  142MOL   C19445596   3.245   4.307   1.673  0.2969  0.1336  0.6566
  142MOL   C19545597   3.114   4.379   1.641  0.3768 -0.0547 -0.4798
  142MOL   C19645598   3.141   4.508   1.556 -0.9439  0.0768 -0.5179
  142MOL   C19745599   3.235   4.516   1.455 -0.3371  0.0334  0.6301
  142MOL   C19845600   3.265   4.627   1.373 -0.1105  0.4901  0.0040
  142MOL   C19945601   3.216   4.752   1.421  0.2121 -0.0662  0.0365
  142MOL   C20045602   3.112   4.752   1.518 -0.3137 -0.0244  0.4195
  142MOL   C20145603   3.078   4.632   1.586 -0.3092  0.0722 -0.3268
  142MOL   H20245604   3.230   4.217   1.732  0.0679 -0.4799 -0.3439
  142MOL   H20345605   3.286   4.286   1.574  0.9163  1.0169  0.7170
  142MOL   H20445606   3.073   4.418   1.734 -0.2962 -1.4006 -0.1966
  142MOL   H20545607   3.281   4.425   1.419 -1.4374 -0.4663  0.4658
  142MOL   H20645608   3.325   4.622   1.283 -2.1731 -1.4477 -1.3083
  142MOL   H20745609   3.242   4.848   1.378 -1.5934  1.2783  1.8440
  142MOL   H20845610   3.052   4.841   1.533  0.8326  1.2106 -2.0231
  142MOL   H20945611   2.995   4.627   1.655 -0.3460  1.4286 -0.2603
  142MOL   C21045612   3.004   4.298   1.584 -0.7789  0.1334 -0.3009
  142MOL   C21145613   2.934   4.204   1.684 -1.0851  0.2150 -0.1194
  142MOL   C21245614   2.881   4.278   1.804 -0.1604 -0.1993 -0.2168
  142MOL   C21345615   2.799   4.390   1.788  0.0232  0.6917 -0.1118
  142MOL   C21445616   2.758   4.461   1.899  0.7036  0.0658 -0.7450
  142MOL   C21545617   2.782   4.419   2.025  0.0721 -0.0077 -0.3718
  142MOL   C21645618   2.854   4.300   2.046  0.4740 -0.8582 -0.3664
  142MOL   C21745619   2.900   4.228   1.936  0.6709 -0.1784  0.2785
  142MOL   H21845620   3.054   4.229   1.516 -2.0448  0.6574 -1.7714
  142MOL   H21945621   2.932   4.352   1.524 -0.8807  1.4142  0.9464
  142MOL   H22045622   3.010   4.139   1.727 -2.0610 -0.9925 -0.1836
  142MOL   H22145623   2.774   4.432   1.692  0.1714  3.3603  0.9701
  142MOL   H22245624   2.704   4.554   1.892  1.2638  0.3607 -1.1642
  142MOL   H22345625   2.755   4.477   2.112  1.5601  1.3864 -0.8184
  142MOL   H22445626   2.876   4.264   2.145 -0.4335  1.9533  0.9325
  142MOL   H22545627   2.953   4.135   1.948 -0.2835 -0.5632  1.6231
  142MOL   C22645628   2.834   4.101   1.616 -0.2428 -0.2836 -0.1583
  142MOL   C22745629   2.894   3.999   1.516  0.2637 -0.9879  0.3699
  142MOL   C22845630   3.033   3.939   1.552  0.1003 -0.0306 -0.5782
  142MOL   C22945631   3.139   3.958   1.461  0.0561  0.8360  0.1339
  142MOL   C23045632   3.259   3.890   1.492 -0.1522 -0.3041  0.3145
  142MOL   C23145633   3.279   3.823   1.618 -0.3646 -0.0121 -0.1789
  142MOL   C23245634   3.165   3.804   1.699  0.4214 -0.0739  0.6760
  142MOL   C23345635   3.037   3.861   1.672 -0.3709  0.4355  0.0062
  142MOL   H23445636   2.753   4.160   1.574  1.3304  2.5712  0.6660
  142MOL   H23545637   2.783   4.040   1.690  0.3613 -1.3022 -0.5683
  142MOL   H23645638   2.910   4.042   1.417 -0.0371 -1.3456  0.1597
  142MOL   H23745639   3.131   4.019   1.372  1.9059 -0.7115 -1.1376
  142MOL   H23845640   3.347   3.896   1.430 -0.3902 -1.2232 -0.1333
  142MOL   H23945641   3.380   3.787   1.628 -0.0998 -0.3668 -3.5062
  142MOL   H24045642   3.178   3.749   1.791  0.1277 -1.6655 -0.2124
  142MOL   H24145643   2.948   3.849   1.732 -1.4681 -2.3035 -2.0558
  142MOL   C24245644   2.792   3.883   1.488  0.3753  0.4648  0.1581
  142MOL   C24345645   2.657   3.916   1.410  0.1726  0.0366 -0.8136
  142MOL   C24445646   2.699   3.945   1.268  0.1400  0.1049 -0.2793
  142MOL   C24545647   2.730   3.846   1.171 -0.2088  0.2704 -0.1528
  142MOL   C24645648   2.781   3.890   1.048  0.4360  0.4906  0.9161
  142MOL   C24745649   2.795   4.025   1.016 -0.1571 -0.1058  0.7083
  142MOL   C24845650   2.764   4.126   1.114 -0.0009  0.4418 -0.0544
  142MOL   C24945651   2.710   4.084   1.238 -0.3510 -0.3123  1.3597
  142MOL   H25045652   2.770   3.833   1.583 -0.2287 -1.2169 -0.8551
  142MOL   H25145653   2.837   3.798   1.438  2.4670  1.7950 -0.2803
  142MOL   H25245654   2.622   4.007   1.459  3.3106 -0.8091  3.2180
  142MOL   H25345655   2.719   3.740   1.187  0.7799  0.1433 -0.2948
  142MOL   H25445656   2.825   3.812   0.988 -0.1212  0.3423  0.7015
  142MOL   H25545657   2.831   4.047   0.917 -0.3392 -0.9469  0.4463
  142MOL   H25645658   2.771   4.230   1.086 -0.6687  0.0159 -1.8898
  142MOL   H25745659   2.677   4.148   1.318  1.2600  2.5414 -0.1785
  142MOL   C25845660   2.548   3.806   1.416 -0.2834 -0.2508 -0.6040
  142MOL   C25945661   2.491   3.789   1.556  0.3637  0.4528  0.1976
  142MOL   C26045662   2.513   3.903   1.657  0.8197  0.4248  0.3983
  142MOL   C26145663   2.456   4.022   1.637 -0.0115  0.5220  0.0301
  142MOL   C26245664   2.463   4.131   1.728  0.4592  0.3199  0.5953
  142MOL   C26345665   2.530   4.113   1.849  0.1939  0.5791  0.0289
  142MOL   C26445666   2.601   3.992   1.872  0.5312  0.8058 -0.4793
  142MOL   C26545667   2.579   3.880   1.780  0.0010  0.0055  0.6930
  142MOL   H26645668   2.603   3.718   1.380  0.6164  0.2291 -0.4072
  142MOL   H26745669   2.465   3.826   1.348 -0.5318  3.5913  0.7442
  142MOL   H26845670   2.549   3.703   1.591  2.0346  2.0451  1.4211
  142MOL   H26945671   2.398   4.038   1.547  1.7281  1.3522 -0.9671
  142MOL   H27045672   2.422   4.227   1.702  1.5562  0.6543  0.1099
  142MOL   H27145673   2.524   4.197   1.915 -2.4897 -0.0871  0.7092
  142MOL   H27245674   2.648   3.980   1.968  0.7695  2.4091 -0.3817
  142MOL   H27345675   2.622   3.786   1.811 -1.3796 -0.6590  0.6335
  142MOL   C27445676   2.342   3.753   1.562  0.4162 -0.0884 -0.1628
  142MOL   C27545677   2.285   3.704   1.698 -0.0256 -0.5117  0.7127
  142MOL   C27645678   2.136   3.751   1.706  0.1415 -0.8373 -0.4704
  142MOL   C27745679   2.097   3.848   1.797 -0.4153 -0.0603 -0.4800
  142MOL   C27845680   1.968   3.891   1.814  0.1227  0.4511  0.2416
  142MOL   C27945681   1.870   3.835   1.724 -0.3416 -0.6434 -0.3263
  142MOL   C28045682   1.906   3.736   1.623  1.1282 -0.1877 -0.0502
  142MOL   C28145683   2.042   3.699   1.610  0.0410  0.1406  0.0950
  142MOL   H28245684   2.333   3.692   1.472 -2.4248 -0.4673  0.3369
  142MOL   H28345685   2.290   3.842   1.527  2.0115  1.5204  1.3987
  142MOL   H28445686   2.339   3.749   1.781 -0.0972  4.2726 -1.6603
  142MOL   H28545687   2.181   3.900   1.842  1.4094 -1.2839 -2.3777
  142MOL   H28645688   1.936   3.956   1.894  0.0430  1.5285 -0.6523
  142MOL   H28745689   1.767   3.865   1.728 -0.3750 -0.2577 -3.0188
  142MOL   H28845690   1.836   3.697   1.551 -0.9705  0.0717  1.7765
  142MOL   H28945691   2.069   3.619   1.543 -0.7260  2.8376 -3.6203
  142MOL   C29045692   2.303   3.556   1.716 -0.5599  0.7443 -0.1317
  142MOL   C29145693   2.261   3.508   1.850  0.1184  0.2406  0.2965
  142MOL   C29245694   2.265   3.349   1.857 -0.7096  0.0978 -0.7886
  142MOL   C29345695   2.153   3.270   1.874 -0.2552 -0.8505 -0.7730
  142MOL   C29445696   2.172   3.131   1.862 -0.0466 -0.2377 -0.6090
  142MOL   C29545697   2.302   3.074   1.861  0.0003 -0.8982 -0.0924
  142MOL   C29645698   2.412   3.155   1.851 -0.2821 -0.1183 -0.5402
  142MOL   C29745699   2.394   3.294   1.841 -0.0362  0.4259  0.6349
  142MOL   H29845700   2.404   3.524   1.688 -1.2323 -2.9005  1.3357
  142MOL   H29945701   2.243   3.502   1.643  0.3659  0.1028 -0.4412
  142MOL   H30045702   2.155   3.532   1.862 -0.0090 -0.1252 -0.0684
  142MOL   H30145703   2.058   3.320   1.880  1.4154  3.0327 -3.9678
  142MOL   H30245704   2.085   3.067   1.865 -0.1677 -0.0373  0.2294
  142MOL   H30345705   2.315   2.967   1.863  0.0405 -0.8860  0.3448
  142MOL   H30445706   2.507   3.103   1.850  0.4596  1.2342 -1.5593
  142MOL   H30545707   2.466   3.373   1.829  1.4996 -0.7709  1.7621
  142MOL   C30645708   2.329   3.581   1.971  0.5209  0.3462  1.3294
  142MOL   C30745709   2.314   3.526   2.112  0.0556  0.3826  0.1617
  142MOL   C30845710   2.380   3.617   2.212 -0.2370 -0.0161 -0.6115
  142MOL   C30945711   2.521   3.618   2.215 -0.3918  0.0760 -0.1745
  142MOL   C31045712   2.595   3.697   2.303  0.1602  0.1317  0.1312
  142MOL   C31145713   2.525   3.791   2.381  0.1150  0.3367  0.0070
  142MOL   C31245714   2.385   3.788   2.391 -0.2735 -0.2103  0.1845
  142MOL   C31345715   2.313   3.695   2.308  0.1855  0.2638 -0.2546
  142MOL   H31445716   2.306   3.688   1.974  0.2929  0.3581 -0.5190
  142MOL   H31545717   2.434   3.584   1.943 -0.3687 -3.3300 -2.8095
  142MOL   H31645718   2.366   3.430   2.104 -3.1818 -1.4821  0.2787
  142MOL   H31745719   2.563   3.556   2.138 -0.7049  1.1248 -1.2097
  142MOL   H31845720   2.703   3.701   2.307  0.0792  1.0969  2.6694
  142MOL   H31945721   2.581   3.864   2.439  1.1362  0.7004 -1.4086
  142MOL   H32045722   2.344   3.855   2.465 -0.5218  3.1315 -2.8353
  142MOL   H32145723   2.206   3.681   2.312  0.2537  0.1963  1.4064
  142MOL   H32245724   2.213   3.515   2.152 -0.5092 -0.3767 -1.4594
  143MOL     C145725   3.080   6.846   4.329  0.7905  0.7357 -0.0197
  143MOL     C245726   3.077   6.994   4.396  0.4188 -0.6531 -0.1803
  143MOL     C345727   3.198   7.017   4.492 -0.3471  0.4636 -0.3422
  143MOL     C445728   3.333   7.020   4.444  0.1434 -0.3561  0.3871
  143MOL     C545729   3.444   7.038   4.530  0.0014  0.4797  0.1805
  143MOL     C645730   3.423   7.077   4.669  0.0669  0.0319 -0.0755
  143MOL     C745731   3.288   7.083   4.715  0.1100  0.0594  0.1121
  143MOL     C845732   3.181   7.047   4.630 -0.1088 -0.3908 -0.5759
  143MOL     H945733   3.053   6.767   4.400  2.0027  1.0407  0.7805
  143MOL    H1045734   3.003   6.841   4.251 -0.2454  2.4630  0.8509
  143MOL    H1145735   2.981   6.993   4.449  0.7914  1.5871  0.5538
  143MOL    H1245736   3.359   6.990   4.344 -0.7886 -0.8844  0.2947
  143MOL    H1345737   3.543   7.013   4.494  0.0744  0.5258  0.3532
  143MOL    H1445738   3.501   7.086   4.744 -1.0918 -1.4264  1.3512
  143MOL    H1545739   3.267   7.114   4.817 -2.6361  2.2485 -1.0514
  143MOL    H1645740   3.084   7.044   4.677 -0.9995  0.7796 -2.3091
  143MOL    H1745741   3.178   6.825   4.287 -0.5374 -2.0672 -1.9073
  143MOL    C1845742   3.061   7.117   4.294  0.2611  0.3496 -0.3978
  143MOL    C1945743   2.912   7.130   4.233  0.5364 -0.1608 -0.2168
  143MOL    C2045744   2.802   7.155   4.334  0.2493 -0.6964  0.8846
  143MOL    C2145745   2.825   7.236   4.450 -0.3832 -0.2233 -0.6265
  143MOL    C2245746   2.707   7.261   4.528 -0.0351 -0.0545 -0.1947
  143MOL    C2345747   2.584   7.198   4.516  0.2734  0.4550  0.5763
  143MOL    C2445748   2.568   7.107   4.405  0.0305  0.0004  0.2160
  143MOL    C2545749   2.672   7.100   4.315  0.0063  0.5938  0.0080
  143MOL    H2645750   3.134   7.096   4.215  0.4091  1.3332 -0.5250
  143MOL    H2745751   3.094   7.211   4.338 -1.7824  1.2188 -0.7058
  143MOL    H2845752   2.888   7.033   4.189 -1.5366 -0.1865  0.9467
  143MOL    H2945753   2.920   7.282   4.473 -0.5784 -0.1823  0.1239
  143MOL    H3045754   2.728   7.330   4.608  3.0978 -2.1720  0.8566
  143MOL    H3145755   2.502   7.213   4.584 -0.4858 -3.3556  0.6022
  143MOL    H3245756   2.480   7.045   4.399  0.0329  0.0561 -0.4478
  143MOL    H3345757   2.667   7.030   4.233  1.3936 -0.3997  0.7521
  143MOL    C3445758   2.899   7.237   4.117 -0.7175  0.1279  0.2881
  143MOL    C3545759   2.964   7.199   3.976 -0.0482 -0.5863 -0.6461
  143MOL    C3645760   2.917   7.060   3.924  0.4812  0.0273 -0.9301
  143MOL    C3745761   3.013   6.983   3.862  0.2948 -0.4643 -0.6562
  143MOL    C3845762   2.980   6.856   3.816  0.0065 -0.4210 -0.1309
  143MOL    C3945763   2.849   6.804   3.830  0.1824  0.2244  0.5581
  143MOL    C4045764   2.754   6.879   3.899 -0.1122 -0.2997  0.3515
  143MOL    C4145765   2.786   7.010   3.939  0.0222 -0.6350 -0.0398
  143MOL    H4245766   2.947   7.328   4.154  0.3608  0.1370 -1.0731
  143MOL    H4345767   2.794   7.260   4.101  0.2966  2.3002 -4.0382
  143MOL    H4445768   3.070   7.192   3.997  0.2984  1.5498 -1.5254
  143MOL    H4545769   3.116   7.012   3.845 -0.5314  2.5765 -0.8279
  143MOL    H4645770   3.060   6.811   3.760  0.8484  1.2819 -0.3245
  143MOL    H4745771   2.824   6.711   3.782  0.0616  0.5727 -0.0653
  143MOL    H4845772   2.652   6.842   3.901 -0.0551 -0.4471  0.5411
  143MOL    H4945773   2.711   7.079   3.975  0.7103 -1.0411  2.2891
  143MOL    C5045774   2.925   7.314   3.878 -0.3365  0.5734  0.1113
  143MOL    C5145775   2.967   7.461   3.918 -0.4803  0.3380  0.1335
  143MOL    C5245776   3.111   7.463   3.975 -0.6005  0.8874 -0.2327
  143MOL    C5345777   3.144   7.535   4.090 -0.1886  0.2791  0.0011
  143MOL    C5445778   3.274   7.546   4.130  0.5941 -1.2030 -0.3291
  143MOL    C5545779   3.381   7.490   4.059  0.0067  0.6693  0.2909
  143MOL    C5645780   3.355   7.425   3.938  0.2390  0.1253  0.9662
  143MOL    C5745781   3.218   7.406   3.899 -0.4233 -0.0148 -0.3740
  143MOL    H5845782   2.818   7.305   3.859 -0.1587 -3.5856  0.5875
  143MOL    H5945783   2.990   7.293   3.793  1.4612  0.9612  1.3603
  143MOL    H6045784   2.911   7.509   3.998  2.4279  2.1750  1.1238
  143MOL    H6145785   3.066   7.570   4.157 -0.2257  1.0761 -0.4478
  143MOL    H6245786   3.291   7.612   4.214  0.0353  2.5337 -3.0139
  143MOL    H6345787   3.476   7.510   4.107  0.6495 -2.3643  0.3606
  143MOL    H6445788   3.434   7.384   3.877 -1.3083  0.2649 -1.1999
  143MOL    H6545789   3.196   7.352   3.808  0.3019  0.3533 -0.7707
  143MOL    C6645790   2.936   7.549   3.786  0.3317 -0.0025 -0.2743
  143MOL    C6745791   2.972   7.699   3.781 -0.1615 -0.6377 -0.7116
  143MOL    C6845792   2.992   7.745   3.632 -0.1660 -0.2710  0.1007
  143MOL    C6945793   3.122   7.786   3.591  0.0781  0.0897 -0.4906
  143MOL    C7045794   3.136   7.832   3.456 -0.1488 -0.1726  0.5641
  143MOL    C7145795   3.034   7.824   3.363 -0.7187  0.1718  0.9196
  143MOL    C7245796   2.913   7.773   3.403  0.2838  0.1533  0.2875
  143MOL    C7345797   2.891   7.734   3.540 -0.1881  0.0640 -0.0276
  143MOL    H7445798   2.829   7.541   3.763  0.3536  0.8268 -0.6838
  143MOL    H7545799   2.989   7.503   3.703 -0.9455 -1.9382 -0.0558
  143MOL    H7645800   3.068   7.716   3.830  0.0208 -2.2745 -0.4426
  143MOL    H7745801   3.202   7.799   3.662 -0.0216  1.5109 -0.6424
  143MOL    H7845802   3.234   7.862   3.422  0.1122  1.3987  2.5813
  143MOL    H7945803   3.061   7.848   3.261 -2.0094  1.5209  0.8800
  143MOL    H8045804   2.831   7.765   3.333  0.9473  1.0543 -0.6162
  143MOL    H8145805   2.801   7.688   3.577 -1.2044  1.0368 -1.2669
  143MOL    C8245806   2.880   7.785   3.866  0.1850 -0.4915  0.4510
  143MOL    C8345807   2.877   7.939   3.848 -0.4770  0.0804 -0.1095
  143MOL    C8445808   2.764   8.007   3.931 -0.0528  0.0458 -0.1407
  143MOL    C8545809   2.724   0.028   3.908 -0.7390  0.5493 -0.3342
  143MOL    C8645810   2.620   0.089   3.986  0.4110  0.0841  0.4188
  143MOL    C8745811   2.556   0.012   4.082 -0.0091  0.6350  0.2408
  143MOL    C8845812   2.577   7.991   4.095  0.0292 -0.3377 -1.2710
  143MOL    C8945813   2.686   7.929   4.023  0.2367 -0.2305 -0.2904
  143MOL    H9045814   2.886   7.758   3.972  1.3756 -1.9839  0.0300
  143MOL    H9145815   2.784   7.750   3.829  0.7768 -0.8245 -0.7924
  143MOL    H9245816   2.854   7.958   3.743  0.3504 -2.0475 -0.7132
  143MOL    H9345817   2.784   0.090   3.844  0.5711  0.1010  0.4283
  143MOL    H9445818   2.584   0.190   3.971 -1.7316 -0.3379  2.5431
  143MOL    H9545819   2.476   0.055   4.140  0.3568  0.8919  0.5548
  143MOL    H9645820   2.534   7.927   4.170  0.2641 -2.1588 -2.6597
  143MOL    H9745821   2.698   7.823   4.041  2.2163  0.2730  1.4903
  143MOL    C9845822   3.012   7.998   3.873  0.0440 -0.2032 -0.2026
  143MOL    C9945823   3.096   7.970   4.004  0.4496 -0.4914 -0.0093
  143MOL   C10045824   3.244   7.987   3.976 -0.3227 -0.3782 -0.3013
  143MOL   C10145825   3.334   7.877   3.987 -0.1732 -0.2744 -0.2710
  143MOL   C10245826   3.465   7.892   3.947  0.5421  0.0759 -0.2933
  143MOL   C10345827   3.516   8.020   3.924  0.7740  0.1589  0.0296
  143MOL   C10445828   3.427   0.013   3.911 -0.3366 -0.0408 -0.2296
  143MOL   C10545829   3.294   8.112   3.933  0.0811  0.2663 -0.1973
  143MOL   H10645830   3.002   8.105   3.857  0.0697 -0.1213  0.3126
  143MOL   H10745831   3.071   7.961   3.790  0.7778 -1.6677  0.9524
  143MOL   H10845832   3.086   7.862   4.018  0.2223 -0.5476 -0.5748
  143MOL   H10945833   3.298   7.777   4.003 -0.4880 -0.2956 -1.0573
  143MOL   H11045834   3.533   7.808   3.944 -0.7193 -0.9399 -0.9208
  143MOL   H11145835   3.618   8.050   3.903  0.2078  2.6934  0.6678
  143MOL   H11245836   3.474   0.104   3.876  0.9235 -1.0041 -1.1155
  143MOL   H11345837   3.229   0.080   3.909  0.0659  0.2335 -0.2678
  143MOL   C11445838   3.040   8.042   4.127 -0.0605 -0.5290  0.3125
  143MOL   C11545839   3.074   7.980   4.264 -0.7817  0.5013 -0.2561
  143MOL   C11645840   3.224   7.967   4.297 -0.0926  0.8932  0.1525
  143MOL   C11745841   3.304   8.084   4.303 -0.1677  0.1432  0.0814
  143MOL   C11845842   3.437   8.067   4.344 -0.7647  0.6713  0.1713
  143MOL   C11945843   3.487   7.937   4.377  0.4038  0.0412  0.1476
  143MOL   C12045844   3.402   7.825   4.379 -0.5177 -0.0504 -0.2080
  143MOL   C12145845   3.275   7.837   4.327  0.8412  0.0603  0.3085
  143MOL   H12245846   2.931   8.048   4.120 -0.1814 -2.4150  0.2566
  143MOL   H12345847   3.076   0.030   4.133  1.0535 -1.0263  3.1083
  143MOL   H12445848   3.029   7.881   4.261 -0.1913  0.2489 -0.8774
  143MOL   H12545849   3.258   0.059   4.264  0.2336  0.4143  0.2362
  143MOL   H12645850   3.487   0.047   4.349 -1.6101  1.1955 -0.9562
  143MOL   H12745851   3.590   7.917   4.404  0.2092 -0.2404  0.6763
  143MOL   H12845852   3.433   7.725   4.408 -0.6514  0.2957  1.1757
  143MOL   H12945853   3.208   7.752   4.331 -2.1954  2.4220  5.0736
  143MOL   C13045854   3.024   8.060   4.381  0.0982 -0.5686 -0.0283
  143MOL   C13145855   2.873   8.050   4.422  0.7769  0.4259  0.0742
  143MOL   C13245856   2.825   7.901   4.440 -0.0989  0.5060  0.5388
  143MOL   C13345857   2.907   7.813   4.508  0.3681  0.3136 -0.5918
  143MOL   C13445858   2.866   7.680   4.520  0.0301  0.3388 -0.0640
  143MOL   C13545859   2.743   7.633   4.459 -0.1360 -0.6551  0.1477
  143MOL   C13645860   2.657   7.729   4.404 -0.3802  0.1713  0.4919
  143MOL   C13745861   2.700   7.864   4.397  0.2745 -0.3069  0.7129
  143MOL   H13845862   3.051   0.050   4.365 -0.4170 -0.3586  0.4834
  143MOL   H13945863   3.079   8.023   4.468  1.4067  0.1763 -0.5194
  143MOL   H14045864   2.829   8.089   4.330  2.3851  0.5580 -0.6435
  143MOL   H14145865   2.994   7.849   4.560  0.5238  1.0259 -1.3416
  143MOL   H14245866   2.926   7.619   4.585 -0.8879 -1.4320 -0.8560
  143MOL   H14345867   2.708   7.532   4.476  1.2166 -1.1697 -0.1000
  143MOL   H14445868   2.559   7.690   4.380  0.1373 -0.2650 -1.0114
  143MOL   H14545869   2.643   7.948   4.361  1.0420 -0.5690 -1.1345
  143MOL   C14645870   2.828   0.018   4.538  0.3868 -0.3906  0.3141
  143MOL   C14745871   2.736   0.135   4.504 -0.6537 -0.3374  0.1331
  143MOL   C14845872   2.701   0.210   4.634 -0.0633 -0.2595 -0.4398
  143MOL   C14945873   2.805   0.278   4.708 -0.4159  1.0645  0.2057
  143MOL   C15045874   2.773   0.341   4.826  0.2198 -0.7403 -0.5403
  143MOL   C15145875   2.638   0.338   4.878 -0.3862  0.0240  0.6256
  143MOL   C15245876   2.538   0.270   4.803  0.0288 -0.1639 -0.0200
  143MOL   C15345877   2.576   0.199   4.695  0.1124 -0.6525 -0.1130
  143MOL   H15445878   2.901   0.042   4.615 -2.1676  2.8751  1.8438
  143MOL   H15545879   2.773   8.062   4.601  0.4271 -0.1734  0.5959
  143MOL   H15645880   2.648   0.082   4.468 -2.2425  0.5971  2.5043
  143MOL   H15745881   2.907   0.283   4.673  0.0696 -0.3927  1.3633
  143MOL   H15845882   2.853   0.389   4.880  1.0776 -1.9027 -0.7500
  143MOL   H15945883   2.614   0.381   4.974 -2.3285 -2.6257  1.3872
  143MOL   H16045884   2.438   0.266   4.844  0.6500  1.5102  1.7568
  143MOL   H16145885   2.497   0.143   4.647  0.8362  1.3359 -3.7647
  143MOL   C16245886   2.792   0.241   4.406  0.6458 -0.1071  0.2715
  143MOL   C16345887   2.715   0.364   4.368  0.6494  0.3184  0.2484
  143MOL   C16445888   2.803   0.441   4.272 -0.2120  0.2662 -0.0019
  143MOL   C16545889   2.843   0.573   4.303 -0.2009  0.1144 -0.2429
  143MOL   C16645890   2.936   0.641   4.222 -0.2944  0.1598 -0.2493
  143MOL   C16745891   2.997   0.577   4.113  0.0446  0.0631  0.0566
  143MOL   C16845892   2.954   0.450   4.080  0.1215 -0.2697  0.3000
  143MOL   C16945893   2.858   0.383   4.154  0.2629  0.6619 -0.8906
  143MOL   H17045894   2.818   0.187   4.315 -0.4817  1.6036 -1.1011
  143MOL   H17145895   2.885   0.280   4.448  0.7342  1.0603 -0.9914
  143MOL   H17245896   2.695   0.427   4.455 -0.9428  0.3182 -0.0954
  143MOL   H17345897   2.802   0.615   4.393 -3.0822 -0.2672 -1.3280
  143MOL   H17445898   2.962   0.739   4.258 -3.3318  0.4257  1.4101
  143MOL   H17545899   3.083   0.621   4.064  0.2412  0.1935  0.5231
  143MOL   H17645900   3.001   0.423   3.987 -1.4708 -1.1770 -0.2630
  143MOL   H17745901   2.841   0.281   4.123  0.5533  0.2050  0.4255
  143MOL   C17845902   2.582   0.337   4.300 -0.3217 -0.1112 -0.3060
  143MOL   C17945903   2.453   0.393   4.384 -0.5633 -0.3535 -0.4280
  143MOL   C18045904   2.470   0.544   4.404  0.3306  0.0408 -0.3646
  143MOL   C18145905   2.484   0.630   4.298 -0.0063 -0.6862 -0.8701
  143MOL   C18245906   2.472   0.771   4.316 -0.2020  0.0348 -0.2198
  143MOL   C18345907   2.473   0.823   4.447 -0.0886  0.1144  0.2699
  143MOL   C18445908   2.478   0.737   4.556 -0.3184 -0.0554  0.2999
  143MOL   C18545909   2.475   0.600   4.535  0.4421 -0.0833 -0.6552
  143MOL   H18645910   2.573   0.229   4.290  0.7699 -0.1063 -1.5013
  143MOL   H18745911   2.575   0.389   4.204  0.4059 -0.5419 -0.6017
  143MOL   H18845912   2.460   0.346   4.482 -0.4117 -1.9799 -1.2072
  143MOL   H18945913   2.491   0.588   4.199  0.3263 -0.2601 -1.0291
  143MOL   H19045914   2.474   0.838   4.232 -0.2540 -1.0919 -1.1256
  143MOL   H19145915   2.481   0.929   4.466 -0.1017 -0.1256  1.6737
  143MOL   H19245916   2.493   0.776   4.655  1.0867 -1.1901  0.5626
  143MOL   H19345917   2.483   0.536   4.621  1.2082  0.9718  0.0768
  143MOL   C19445918   2.314   0.373   4.322 -0.1402  0.2772  0.4690
  143MOL   C19545919   2.277   0.223   4.311 -0.4382 -0.0127 -0.0753
  143MOL   C19645920   2.290   0.151   4.444 -0.2475  0.2885 -0.0215
  143MOL   C19745921   2.358   0.033   4.448 -0.5802  0.2202  0.0297
  143MOL   C19845922   2.353   8.058   4.558  0.5122  0.1458 -0.6226
  143MOL   C19945923   2.273   8.089   4.671  0.2158  0.7705 -0.4327
  143MOL   C20045924   2.215   0.105   4.674 -0.5804  0.6644 -0.8042
  143MOL   C20145925   2.221   0.192   4.561  0.1386  0.8408 -0.7787
  143MOL   H20245926   2.310   0.426   4.227  1.0420  0.1270  0.3263
  143MOL   H20345927   2.239   0.418   4.387 -1.6031  0.4447 -1.2753
  143MOL   H20445928   2.356   0.171   4.257  0.2160 -0.8957  1.6847
  143MOL   H20545929   2.405   8.113   4.357 -0.1507 -1.0695  0.7397
  143MOL   H20645930   2.404   7.963   4.560  2.1012  0.9989  1.5582
  143MOL   H20745931   2.273   8.027   4.760 -1.3634 -1.1824 -1.7458
  143MOL   H20845932   2.153   0.138   4.756 -0.2432 -0.0747 -0.2458
  143MOL   H20945933   2.172   0.288   4.568  0.0542  0.9028 -2.1487
  143MOL   C21045934   2.138   0.181   4.248  0.5654  0.2486 -0.2398
  143MOL   C21145935   2.094   0.255   4.120  0.0241  0.0616  0.1350
  143MOL   C21245936   2.200   0.246   4.009 -0.1711  0.3066 -0.8494
  143MOL   C21345937   2.249   0.371   3.955 -0.1150  0.6472  0.1662
  143MOL   C21445938   2.333   0.368   3.846 -0.2258 -0.5293  0.3294
  143MOL   C21545939   2.375   0.238   3.803 -0.7524  0.3130  0.9648
  143MOL   C21645940   2.322   0.116   3.854 -0.5305 -0.1120  0.2847
  143MOL   C21745941   2.231   0.119   3.954  0.1727 -0.5864 -0.8665
  143MOL   H21845942   2.064   0.192   4.326  1.0377 -0.8524  0.3786
  143MOL   H21945943   2.132   0.072   4.240  0.1309  0.0353  2.6439
  143MOL   H22045944   2.092   0.360   4.149  3.7050  0.0211  0.7651
  143MOL   H22145945   2.224   0.466   4.001  1.0337  0.7654  0.5692
  143MOL   H22245946   2.373   0.464   3.818  1.1250 -1.2448 -0.2531
  143MOL   H22345947   2.458   0.239   3.733  0.8655  0.7465  2.8340
  143MOL   H22445948   2.350   0.019   3.816 -0.3362  0.5295 -1.2382
  143MOL   H22545949   2.200   0.025   3.999 -0.6875  1.2388  2.5391
  143MOL   C22645950   1.952   0.218   4.072 -0.2737  0.5956  0.8509
  143MOL   C22745951   1.912   0.284   3.932 -0.4889  0.2689  0.1432
  143MOL   C22845952   1.833   0.183   3.853  0.5824 -0.6303 -0.1314
  143MOL   C22945953   1.717   0.124   3.907 -0.3212  0.3423  0.9803
  143MOL   C23045954   1.637   0.030   3.832 -0.0917  0.4260 -0.1094
  143MOL   C23145955   1.685   8.113   3.706  0.8403  0.3447  0.7401
  143MOL   C23245956   1.805   0.051   3.649  0.4045  0.3521  0.1497
  143MOL   C23345957   1.876   0.146   3.725 -0.2293 -0.7635 -0.8271
  143MOL   H23445958   1.878   0.223   4.152  2.1377 -0.6017  3.2316
  143MOL   H23545959   1.971   0.111   4.072 -0.4141  0.4436  5.8626
  143MOL   H23645960   2.006   0.310   3.882 -0.0855 -2.0622 -0.3484
  143MOL   H23745961   1.682   0.156   4.004 -4.1382  1.3975 -0.6404
  143MOL   H23845962   1.544   8.109   3.873 -0.4461 -1.6230 -2.5640
  143MOL   H23945963   1.631   8.040   3.647  0.1500 -0.0877  1.8833
  143MOL   H24045964   1.834   0.020   3.550 -0.8334 -0.2071 -0.0504
  143MOL   H24145965   1.961   0.199   3.685 -0.3250  0.6230  0.7243
  143MOL   C24245966   1.839   0.418   3.945 -0.2643 -0.4436  0.3114
  143MOL   C24345967   1.788   0.486   3.814  0.2441  0.3548 -0.4041
  143MOL   C24445968   1.668   0.578   3.831 -0.7405 -0.2476 -0.5334
  143MOL   C24545969   1.541   0.562   3.763 -0.4325 -0.7619 -0.1280
  143MOL   C24645970   1.435   0.649   3.800  0.2092 -0.6490 -0.5924
  143MOL   C24745971   1.452   0.751   3.892  0.3849 -0.0191 -0.0150
  143MOL   C24845972   1.572   0.770   3.957 -0.0393 -0.4169  0.3136
  143MOL   C24945973   1.682   0.690   3.922 -0.5485  0.0647  0.6486
  143MOL   H25045974   1.886   0.489   4.013  0.4806 -0.9123  0.2888
  143MOL   H25145975   1.749   0.397   4.002  0.2668  2.5018  2.3251
  143MOL   H25245976   1.750   0.406   3.750 -0.4315 -0.2080  0.6764
  143MOL   H25345977   1.526   0.472   3.705  1.0009 -1.9948  1.3579
  143MOL   H25445978   1.334   0.633   3.767 -0.7957 -0.4854  2.3053
  143MOL   H25545979   1.375   0.817   3.929 -0.3803 -1.4839  1.0671
  143MOL   H25645980   1.584   0.850   4.028 -1.3279 -0.9149  1.1190
  143MOL   H25745981   1.776   0.720   3.965 -1.1466  1.8650  0.7790
  143MOL   C25845982   1.914   0.551   3.746  0.4124  0.3111 -0.8808
  143MOL   C25945983   1.887   0.601   3.601  0.1053  0.1170 -0.4127
  143MOL   C26045984   1.958   0.737   3.579  0.5760 -0.2682  0.0276
  143MOL   C26145985   1.886   0.861   3.553  0.3231  0.2749 -0.3183
  143MOL   C26245986   1.959   0.986   3.535  0.7456  1.0899  0.0532
  143MOL   C26345987   2.102   0.985   3.550  0.5758 -0.7133 -0.2319
  143MOL   C26445988   2.164   0.856   3.574 -0.5362 -0.2256 -0.0104
  143MOL   C26545989   2.094   0.739   3.589 -0.5497 -0.0088  0.8525
  143MOL   H26645990   1.999   0.483   3.743  1.0375  1.0924 -1.4455
  143MOL   H26745991   1.940   0.634   3.812  1.9552  0.0581 -1.1510
  143MOL   H26845992   1.785   0.640   3.602  0.4433  1.0135 -0.6819
  143MOL   H26945993   1.779   0.868   3.548  0.2380  0.4656  1.3376
  143MOL   H27045994   1.907   1.078   3.516  1.1001  0.6982 -3.1384
  143MOL   H27145995   2.155   1.078   3.539  2.2494 -1.6002  0.0471
  143MOL   H27245996   2.271   0.845   3.590 -0.2178 -0.4729 -2.1441
  143MOL   H27345997   2.149   0.649   3.611 -0.4523 -0.3272 -0.6238
  143MOL   C27445998   1.912   0.503   3.485 -0.2540  0.8036 -0.1386
  143MOL   C27545999   1.796   0.494   3.379 -0.9970  0.4120 -0.5567
  143MOL   C27646000   1.857   0.439   3.249  0.4169  0.3282  0.5624
  143MOL   C27746001   1.897   0.533   3.157  0.0724  0.2421  0.1421
  143MOL   C27846002   1.945   0.496   3.030  0.1433 -0.2748 -0.2519
  143MOL   C27946003   1.967   0.360   3.001  1.4165  0.2527  0.2470
  143MOL   C28046004   1.934   0.262   3.098  0.1091  0.5239 -0.0039
  143MOL   C28146005   1.883   0.301   3.225  0.3710  0.1174  0.2222
  143MOL   H28246006   1.922   0.405   3.533 -2.1634 -0.5267 -2.3393
  143MOL   H28346007   2.002   0.535   3.434 -0.2262 -0.0478 -0.6313
  143MOL   H28446008   1.765   0.597   3.363 -1.0950  0.9008  2.5318
  143MOL   H28546009   1.870   0.633   3.187  0.6485 -0.3791  2.8616
  143MOL   H28646010   1.969   0.575   2.961 -0.4388  0.9338  0.8984
  143MOL   H28746011   2.007   0.318   2.910  1.7099  0.7242  0.1572
  143MOL   H28846012   1.968   0.161   3.079 -0.3400 -0.2694  3.1966
  143MOL   H28946013   1.855   0.234   3.305 -1.8669  0.4488 -0.2405
  143MOL   C29046014   1.682   0.398   3.426 -0.0966 -0.9228  0.4814
  143MOL   C29146015   1.573   0.356   3.322 -0.1825  0.4022  0.7170
  143MOL   C29246016   1.500   0.226   3.362  0.3373 -0.5187 -0.5765
  143MOL   C29346017   1.524   0.108   3.290  0.4535 -0.2478 -0.4870
  143MOL   C29446018   1.473   8.106   3.342 -0.4588  0.0239 -0.1111
  143MOL   C29546019   1.387   8.109   3.454  0.6657 -0.7500 -0.1578
  143MOL   C29646020   1.359   0.113   3.521  0.2911 -0.4769  0.2674
  143MOL   C29746021   1.415   0.236   3.475  0.0087  0.1951 -0.1986
  143MOL   H29846022   1.624   0.444   3.506  0.4399  2.5632 -1.0335
  143MOL   H29946023   1.731   0.308   3.463  0.5878 -1.2968 -1.2536
  143MOL   H30046024   1.628   0.336   3.230  1.5600 -0.0118  1.8037
  143MOL   H30146025   1.588   0.102   3.203  1.3975  0.5107  0.1471
  143MOL   H30246026   1.496   8.010   3.301 -1.4616 -0.9408  1.5120
  143MOL   H30346027   1.348   8.018   3.498 -2.3527  0.2397 -0.6495
  143MOL   H30446028   1.294   0.113   3.608  1.3971  2.6127  1.1653
  143MOL   H30546029   1.407   0.328   3.531  0.9201  0.8571 -1.1339
  143MOL   C30646030   1.490   0.479   3.281 -0.3943 -0.0738  0.1615
  143MOL   C30746031   1.390   0.446   3.163 -0.1247 -0.4438 -0.0860
  143MOL   C30846032   1.319   0.563   3.101 -0.1470  0.1199  0.3455
  143MOL   C30946033   1.393   0.650   3.022  0.9632  0.6586  0.4005
  143MOL   C31046034   1.328   0.754   2.956  0.4457 -0.0214  0.2128
  143MOL   C31146035   1.186   0.771   2.961  0.6547  0.3170 -0.3649
  143MOL   C31246036   1.114   0.677   3.036 -0.5459  0.2673 -0.1116
  143MOL   C31346037   1.178   0.574   3.103  0.3516 -0.8823  0.0869
  143MOL   H31446038   1.561   0.555   3.247  0.6023 -0.9739  0.2276
  143MOL   H31546039   1.426   0.516   3.361 -0.6739  3.1138 -1.4541
  143MOL   H31646040   1.319   0.365   3.175 -0.2522 -0.1898  0.9463
  143MOL   H31746041   1.500   0.633   3.027  0.7363 -0.4841  1.5288
  143MOL   H31846042   1.384   0.815   2.887  0.1536 -0.5999 -0.5429
  143MOL   H31946043   1.125   0.847   2.913 -1.0511  0.2347  1.6210
  143MOL   H32046044   1.007   0.686   3.049 -0.4477 -0.5654  1.3707
  143MOL   H32146045   1.107   0.515   3.160  0.0695 -2.0893 -1.4743
  143MOL   H32246046   1.437   0.408   3.073  1.4129  2.0146 -0.3821
  144MOL     C146047   6.284   7.717   2.087 -0.2816 -0.2209  0.3587
  144MOL     C246048   6.249   7.821   1.976 -0.3420  1.1047 -0.1964
  144MOL     C346049   6.373   7.877   1.911 -0.3877 -0.0027  0.8788
  144MOL     C446050   6.480   7.790   1.865 -0.5650  0.1719 -0.2368
  144MOL     C546051   6.594   7.844   1.801  0.0293 -0.9329 -0.2750
  144MOL     C646052   6.605   7.977   1.769 -0.5952  0.5206  0.0975
  144MOL     C746053   6.492   8.065   1.803 -0.4398 -0.0863 -0.2348
  144MOL     C846054   6.379   8.014   1.871  0.4408 -0.2857  0.2316
  144MOL     H946055   6.194   7.673   2.129  0.6114 -0.9197  1.5769
  144MOL    H1046056   6.332   7.627   2.048 -0.5494 -0.8990  1.5793
  144MOL    H1146057   6.194   7.896   2.033  0.1080 -1.2654  3.5067
  144MOL    H1246058   6.471   7.684   1.878 -1.6054  0.2135 -0.5900
  144MOL    H1346059   6.668   7.781   1.755  2.3978  1.3151  0.3216
  144MOL    H1446060   6.688   8.028   1.723  0.7328 -1.3757  0.3543
  144MOL    H1546061   6.502   0.055   1.779  0.7024  0.0387  0.7721
  144MOL    H1646062   6.306   8.091   1.894  0.4170 -0.0109 -0.7584
  144MOL    H1746063   6.342   7.768   2.164  0.0240 -0.5080  0.3183
  144MOL    C1846064   6.166   7.748   1.873  0.1879  0.0677  0.1449
  144MOL    C1946065   6.078   7.840   1.777 -0.6384 -0.3727 -0.4184
  144MOL    C2046066   6.092   7.787   1.639 -0.0247  0.2792 -0.6680
  144MOL    C2146067   6.138   7.878   1.538 -0.2645 -0.3233 -0.3796
  144MOL    C2246068   6.160   7.833   1.402  0.2774 -0.4895 -0.3384
  144MOL    C2346069   6.145   7.696   1.371 -0.0909  0.9232  0.1296
  144MOL    C2446070   6.097   7.605   1.469  0.3696  0.3935  0.2664
  144MOL    C2546071   6.079   7.653   1.601 -0.5986  0.2265 -1.0712
  144MOL    H2646072   6.100   7.675   1.920 -0.7871  1.2568  0.6300
  144MOL    H2746073   6.226   7.693   1.799 -0.0288 -1.3560  1.0173
  144MOL    H2846074   6.127   7.937   1.780 -0.4502 -0.5252  2.2278
  144MOL    H2946075   6.160   7.981   1.561  0.3041 -0.7055  0.8259
  144MOL    H3046076   6.198   7.902   1.329  0.8413  0.7299  1.0845
  144MOL    H3146077   6.167   7.663   1.271  0.4333  0.0772  0.5190
  144MOL    H3246078   6.065   7.506   1.440 -1.6373  1.5681 -1.6509
  144MOL    H3346079   6.031   7.595   1.678 -1.8440  1.5662 -0.8236
  144MOL    C3446080   5.930   7.854   1.819 -0.3588  0.0160 -0.6670
  144MOL    C3546081   5.901   7.912   1.956 -0.5514 -0.8360  0.0802
  144MOL    C3646082   5.945   8.066   1.965 -0.2061 -0.6952  0.4422
  144MOL    C3746083   5.875   0.052   1.892  0.0885  0.0009  0.4595
  144MOL    C3846084   5.892   0.192   1.926  0.2990  0.2823  0.3593
  144MOL    C3946085   5.973   0.235   2.032  0.0594 -0.4609 -0.1902
  144MOL    C4046086   6.039   0.134   2.110  0.2346  0.1357  1.0246
  144MOL    C4146087   6.029   8.110   2.074 -0.5091  1.0859  0.3269
  144MOL    H4246088   5.883   7.756   1.811  1.3079 -0.9272  0.9295
  144MOL    H4346089   5.902   7.913   1.732  1.8938  2.0879 -0.0480
  144MOL    H4446090   5.975   7.873   2.025 -0.9120 -0.7177  0.5356
  144MOL    H4546091   5.806   0.019   1.816  0.3607 -1.0450  0.6614
  144MOL    H4646092   5.822   0.260   1.880 -0.2599 -1.3765 -1.2878
  144MOL    H4746093   5.976   0.334   2.076 -0.9583 -1.5852  2.5308
  144MOL    H4846094   6.093   0.176   2.194  0.4265 -0.0572  0.9987
  144MOL    H4946095   6.084   8.044   2.140  0.8597  2.2541  0.3697
  144MOL    C5046096   5.757   7.895   1.995  0.3224 -0.1080  0.1059
  144MOL    C5146097   5.726   7.759   2.068 -0.4666 -0.3545 -0.0116
  144MOL    C5246098   5.829   7.733   2.185 -0.2360 -0.3915  0.0046
  144MOL    C5346099   5.908   7.614   2.181 -0.3871  0.3968 -0.6962
  144MOL    C5446100   5.999   7.590   2.281 -0.0250  0.4639  0.0974
  144MOL    C5546101   6.011   7.683   2.390  0.9931  0.1056 -0.2209
  144MOL    C5646102   5.937   7.805   2.392  0.5075  0.6738 -0.4318
  144MOL    C5746103   5.845   7.828   2.286  0.0525 -0.3177 -0.2740
  144MOL    H5846104   5.693   7.906   1.908  2.1202  0.2842 -1.2025
  144MOL    H5946105   5.732   7.964   2.076 -0.9347  0.1685 -0.5069
  144MOL    H6046106   5.759   7.689   1.992  1.8453 -1.3839  1.8722
  144MOL    H6146107   5.892   7.531   2.114  2.0532 -1.5448  1.0186
  144MOL    H6246108   6.065   7.505   2.278  0.7842  1.0941  0.0010
  144MOL    H6346109   6.088   7.661   2.462  1.7720 -0.2570 -1.1424
  144MOL    H6446110   5.959   7.880   2.467  0.9423 -1.4666  1.6238
  144MOL    H6546111   5.800   7.926   2.280 -1.0351 -0.8243 -0.5542
  144MOL    C6646112   5.580   7.737   2.106  0.2141 -0.2773  0.1394
  144MOL    C6746113   5.496   7.699   1.984 -0.1172  0.0431 -0.6049
  144MOL    C6846114   5.535   7.568   1.925 -0.0561 -0.1435  0.2857
  144MOL    C6946115   5.592   7.580   1.795  0.6366 -0.5848  0.4483
  144MOL    C7046116   5.642   7.469   1.731 -0.6213  0.1160  0.3946
  144MOL    C7146117   5.652   7.349   1.808 -0.3441  0.4317  0.0295
  144MOL    C7246118   5.604   7.344   1.942  0.2184  0.0536 -0.3771
  144MOL    C7346119   5.533   7.451   1.999 -0.3706 -0.0006  0.5317
  144MOL    H7446120   5.547   7.828   2.157  1.5035  0.1365  0.2432
  144MOL    H7546121   5.562   7.657   2.178 -2.5364 -1.3995 -1.7294
  144MOL    H7646122   5.502   7.778   1.908 -0.7859  2.3082  1.6324
  144MOL    H7746123   5.602   7.676   1.747  2.4026 -0.8974  0.1524
  144MOL    H7846124   5.671   7.473   1.627 -0.3548  0.5858  0.4868
  144MOL    H7946125   5.688   7.255   1.769  0.1293 -0.3910  2.3459
  144MOL    H8046126   5.620   7.249   1.990 -0.0453  0.1528 -0.0876
  144MOL    H8146127   5.512   7.445   2.105  1.7621  2.2178  1.1211
  144MOL    C8246128   5.345   7.693   2.019 -0.0868  0.3313  0.3885
  144MOL    C8346129   5.260   7.710   1.896 -0.2922  0.6048 -0.0922
  144MOL    C8446130   5.116   7.651   1.923  0.5496 -0.0447  0.0467
  144MOL    C8546131   5.042   7.598   1.817 -0.3007 -0.6712  0.0802
  144MOL    C8646132   4.914   7.542   1.828  0.8891  0.1474 -0.1426
  144MOL    C8746133   4.849   7.539   1.957  0.1648  0.3931  0.4583
  144MOL    C8846134   4.919   7.596   2.068  0.3532 -0.0969 -0.6998
  144MOL    C8946135   5.052   7.647   2.055  0.8384  0.6095 -0.0632
  144MOL    H9046136   5.319   7.768   2.094 -0.3335  1.1656 -0.5268
  144MOL    H9146137   5.325   7.598   2.068  2.8426 -0.6961 -0.3042
  144MOL    H9246138   5.303   7.650   1.816 -0.8150  0.1113 -0.0032
  144MOL    H9346139   5.087   7.606   1.719 -0.4132  2.0125  0.2298
  144MOL    H9446140   4.869   7.512   1.735  1.1775 -1.6441  0.2743
  144MOL    H9546141   4.751   7.495   1.966  0.4296 -0.1518  0.6718
  144MOL    H9646142   4.868   7.584   2.162 -1.0076 -0.8379 -1.5150
  144MOL    H9746143   5.103   7.684   2.143 -0.2566  1.6510  0.1496
  144MOL    C9846144   5.247   7.852   1.843 -0.7884  0.5097  0.4279
  144MOL    C9946145   5.231   7.885   1.693  0.1530 -0.4439  0.5163
  144MOL   C10046146   5.145   8.011   1.664 -0.6733  0.2338 -0.4098
  144MOL   C10146147   5.177   0.018   1.717 -0.1025  0.2119  0.0066
  144MOL   C10246148   5.091   0.128   1.699 -0.4646 -0.0966  0.1244
  144MOL   C10346149   4.981   0.115   1.613  0.3101 -0.4875 -0.3813
  144MOL   C10446150   4.952   8.109   1.549  0.1010  0.1342 -0.0425
  144MOL   C10546151   5.033   7.997   1.574 -0.3497  0.2498 -0.0356
  144MOL   H10646152   5.322   7.921   1.882 -0.0852 -0.0239  0.0480
  144MOL   H10746153   5.157   7.870   1.902  0.6030  1.2059  2.3877
  144MOL   H10846154   5.169   7.802   1.658 -0.9452 -0.1273  1.6542
  144MOL   H10946155   5.257   0.015   1.790  1.6822  0.2946 -1.9073
  144MOL   H11046156   5.107   0.220   1.752 -1.4754  0.9191 -1.2797
  144MOL   H11146157   4.924   0.200   1.578  1.7417 -0.5657 -3.0564
  144MOL   H11246158   4.871   8.091   1.480  0.0800 -0.9227  0.2512
  144MOL   H11346159   5.007   7.906   1.521  0.9576 -0.6033  0.7572
  144MOL   C11446160   5.369   7.886   1.627  0.2418 -0.0129 -0.1919
  144MOL   C11546161   5.387   7.981   1.502  0.5490 -0.4402 -0.5901
  144MOL   C11646162   5.531   8.024   1.505  0.4076  0.0139  0.7547
  144MOL   C11746163   5.574   0.043   1.538  0.2440  0.5982  0.4486
  144MOL   C11846164   5.707   0.078   1.542 -0.1384 -0.2958 -0.0024
  144MOL   C11946165   5.811   8.100   1.505  0.2824  0.4145  0.0769
  144MOL   C12046166   5.772   7.963   1.477  0.2252 -0.0063 -0.1983
  144MOL   C12146167   5.632   7.922   1.479  0.5569 -0.0612 -0.4860
  144MOL   H12246168   5.411   7.786   1.614 -0.2104 -0.1070 -0.9997
  144MOL   H12346169   5.429   7.924   1.709 -0.0501 -0.3401  0.1755
  144MOL   H12446170   5.341   8.079   1.503  0.2090 -0.5952 -0.7846
  144MOL   H12546171   5.506   0.125   1.557 -0.1578  0.7118 -1.3791
  144MOL   H12646172   5.732   0.182   1.559 -1.4248  0.0225 -0.0554
  144MOL   H12746173   5.915   0.012   1.506  0.7212 -0.4953 -4.8138
  144MOL   H12846174   5.849   7.889   1.458  0.9056  0.3306  1.1608
  144MOL   H12946175   5.606   7.818   1.467 -1.0555  0.3671 -0.8679
  144MOL   C13046176   5.350   7.906   1.372  0.0865  0.6359  0.0075
  144MOL   C13146177   5.352   7.988   1.239  0.3914  0.4146 -0.6251
  144MOL   C13246178   5.353   7.902   1.109  0.6714 -0.5157 -0.4144
  144MOL   C13346179   5.309   7.771   1.107 -0.4369 -0.1668 -0.5589
  144MOL   C13446180   5.309   7.695   0.989 -0.4889  0.2854  0.3170
  144MOL   C13546181   5.366   7.749   0.874 -0.6650  0.1668  0.9559
  144MOL   C13646182   5.416   7.877   0.875  0.0973  0.2429  0.8347
  144MOL   C13746183   5.411   7.953   0.991 -0.4322  0.1356 -0.4850
  144MOL   H13846184   5.253   7.860   1.388  0.1664  0.6018  0.3924
  144MOL   H13946185   5.426   7.829   1.370  0.0487  0.5971  0.0796
  144MOL   H14046186   5.449   8.037   1.240  1.3057 -1.3211  0.8222
  144MOL   H14146187   5.266   7.714   1.187 -0.5862  1.2437  0.3685
  144MOL   H14246188   5.282   7.591   0.990  0.6212  0.0036  1.9439
  144MOL   H14346189   5.370   7.689   0.784  1.5834 -1.1472  1.8840
  144MOL   H14446190   5.451   7.908   0.778 -0.5381  0.7360  0.7525
  144MOL   H14546191   5.450   8.054   0.989 -0.5528  0.2199  1.1280
  144MOL   C14646192   5.242   8.096   1.237 -0.2425 -0.0648 -0.5265
  144MOL   C14746193   5.294   0.126   1.269 -0.2095 -0.5550 -0.3340
  144MOL   C14846194   5.396   0.172   1.173 -0.3474 -0.3142 -0.4707
  144MOL   C14946195   5.359   0.193   1.040 -0.2768 -0.0250 -0.1377
  144MOL   C15046196   5.451   0.232   0.936  0.0752  0.0994 -0.7129
  144MOL   C15146197   5.585   0.247   0.967 -0.3268  0.2459  0.2068
  144MOL   C15246198   5.628   0.217   1.097 -0.4810 -0.2125 -0.7610
  144MOL   C15346199   5.536   0.174   1.200 -0.0234  0.5365 -0.0255
  144MOL   H15446200   5.151   8.075   1.293  1.2988  0.4072  2.2529
  144MOL   H15546201   5.215   8.105   1.132  1.6296  1.0473 -0.9474
  144MOL   H15646202   5.353   0.123   1.361  2.3045 -1.2779 -1.8982
  144MOL   H15746203   5.253   0.180   1.024 -0.5106  0.6999  0.7865
  144MOL   H15846204   5.397   0.243   0.842  0.6513 -0.1263 -1.0701
  144MOL   H15946205   5.660   0.267   0.892 -1.4456 -0.1501 -1.0426
  144MOL   H16046206   5.733   0.226   1.120 -0.8347  2.2299  0.0050
  144MOL   H16146207   5.572   0.138   1.296 -0.4568  0.9247  0.2796
  144MOL   C16246208   5.178   0.228   1.284 -0.1465 -0.1279 -0.7536
  144MOL   C16346209   5.216   0.362   1.349 -0.7405 -0.1660 -0.2265
  144MOL   C16446210   5.130   0.476   1.298  0.0427  0.1777  0.2998
  144MOL   C16546211   5.185   0.594   1.235  0.0814  1.4471 -0.1212
  144MOL   C16646212   5.111   0.702   1.186 -1.1920  0.6790 -0.9591
  144MOL   C16746213   4.970   0.697   1.212 -0.9297 -0.5649  1.1395
  144MOL   C16846214   4.911   0.583   1.270  0.2725  0.2076 -0.6460
  144MOL   C16946215   4.986   0.472   1.315 -0.5456  0.8371  0.4952
  144MOL   H17046216   5.094   0.192   1.342 -1.1052  0.8893 -1.4863
  144MOL   H17146217   5.121   0.236   1.191  0.6996 -3.3994 -1.6275
  144MOL   H17246218   5.317   0.377   1.312 -0.7057  1.0734  0.3563
  144MOL   H17346219   5.293   0.597   1.226  0.2073  2.3785  1.4722
  144MOL   H17446220   5.158   0.791   1.146 -0.0169  0.2603 -0.5337
  144MOL   H17546221   4.915   0.784   1.179 -1.5497 -2.3831 -2.8713
  144MOL   H17646222   4.806   0.591   1.292  0.1461  1.8062 -1.8033
  144MOL   H17746223   4.954   0.384   1.370  3.9627 -0.3913  1.3173
  144MOL   C17846224   5.220   0.371   1.507 -0.7986  0.3624 -0.3567
  144MOL   C17946225   5.309   0.481   1.568 -0.1669  0.0063 -0.1063
  144MOL   C18046226   5.284   0.496   1.717  0.3754 -0.0176 -0.5118
  144MOL   C18146227   5.231   0.615   1.772 -0.2983 -0.7241 -0.7538
  144MOL   C18246228   5.199   0.629   1.907  0.5959 -0.2253 -0.1575
  144MOL   C18346229   5.223   0.525   1.990 -0.6279  0.3262 -0.0786
  144MOL   C18446230   5.276   0.407   1.940  0.0963 -0.3128 -0.0153
  144MOL   C18546231   5.308   0.392   1.803  0.4659 -0.2060  0.3243
  144MOL   H18646232   5.248   0.278   1.557 -2.5596 -1.3520 -2.4453
  144MOL   H18746233   5.115   0.371   1.534 -0.7788  1.7765 -0.2150
  144MOL   H18846234   5.273   0.573   1.522 -0.8011 -1.4683 -2.6600
  144MOL   H18946235   5.207   0.702   1.712  1.3146 -0.0821 -0.5166
  144MOL   H19046236   5.169   0.724   1.950 -2.7175 -1.2033 -0.1145
  144MOL   H19146237   5.194   0.521   2.094 -4.0208 -3.5399 -1.0556
  144MOL   H19246238   5.289   0.327   2.013 -1.7541 -2.1402 -1.6458
  144MOL   H19346239   5.342   0.293   1.777 -1.1438 -0.9988  1.1402
  144MOL   C19446240   5.455   0.463   1.526 -0.0518  0.3794 -0.1318
  144MOL   C19546241   5.569   0.554   1.581  0.0351  0.3649  0.5477
  144MOL   C19646242   5.707   0.490   1.553 -0.0321 -0.6797 -0.2696
  144MOL   C19746243   5.800   0.467   1.658 -0.3168  0.1258 -0.6564
  144MOL   C19846244   5.920   0.403   1.626  0.3383 -0.2052 -0.7575
  144MOL   C19946245   5.955   0.374   1.493  0.2686 -0.1257  0.1258
  144MOL   C20046246   5.860   0.404   1.387 -0.1972  0.8921  0.7906
  144MOL   C20146247   5.735   0.462   1.421  0.1611 -0.0476 -0.0935
  144MOL   H20246248   5.465   0.464   1.418 -1.4044  0.5140 -0.2537
  144MOL   H20346249   5.474   0.363   1.564 -1.4809  1.0329  2.4355
  144MOL   H20446250   5.564   0.554   1.690 -1.8377 -0.9180  0.4831
  144MOL   H20546251   5.789   0.502   1.759  2.6110 -0.4324 -0.1084
  144MOL   H20646252   5.973   0.389   1.719 -0.3254 -2.2341 -0.6722
  144MOL   H20746253   6.050   0.332   1.465  1.0717  2.9591 -2.0487
  144MOL   H20846254   5.879   0.374   1.285 -2.3715  2.2177 -0.0464
  144MOL   H20946255   5.659   0.475   1.346 -1.8255 -3.0705  1.3220
  144MOL   C21046256   5.558   0.696   1.536 -0.0845 -0.8896 -0.4609
  144MOL   C21146257   5.565   0.804   1.650  0.0277  0.9278 -0.4544
  144MOL   C21246258   5.676   0.789   1.751 -0.0210  0.1232 -0.1923
  144MOL   C21346259   5.651   0.760   1.885 -0.2347 -0.1310  0.1961
  144MOL   C21446260   5.747   0.747   1.980 -0.7662  0.1213 -0.0132
  144MOL   C21546261   5.882   0.766   1.943  0.0840 -0.5107 -0.3993
  144MOL   C21646262   5.911   0.780   1.810  0.0335  0.3000  0.1376
  144MOL   C21746263   5.809   0.799   1.713 -0.1433 -0.3017 -0.4672
  144MOL   H21846264   5.466   0.705   1.478 -0.2812 -2.3602 -0.3879
  144MOL   H21946265   5.632   0.721   1.460  1.0128  0.5661  1.0468
  144MOL   H22046266   5.474   0.797   1.709  0.4861  2.6238  0.5003
  144MOL   H22146267   5.547   0.738   1.904  0.0336 -0.3799  1.4059
  144MOL   H22246268   5.713   0.730   2.081 -0.3958 -2.0784 -0.2284
  144MOL   H22346269   5.959   0.762   2.018  1.2094  2.3110 -1.3410
  144MOL   H22446270   6.013   0.790   1.777  0.4134  0.8873  1.4449
  144MOL   H22546271   5.823   0.804   1.606 -1.8688 -0.0303 -0.6810
  144MOL   C22646272   5.562   0.953   1.604  0.0292  0.0920 -0.6293
  144MOL   C22746273   5.448   0.989   1.508 -0.7661 -0.2610 -0.1486
  144MOL   C22846274   5.308   0.964   1.563 -0.1926 -0.1784  0.0897
  144MOL   C22946275   5.283   0.996   1.696  0.0280 -0.7448 -0.4459
  144MOL   C23046276   5.154   0.979   1.743 -0.0876  0.2335 -0.2087
  144MOL   C23146277   5.062   0.915   1.665  0.3409 -0.0446 -0.5529
  144MOL   C23246278   5.080   0.884   1.533 -0.4159  0.1200 -0.1411
  144MOL   C23346279   5.206   0.913   1.480 -0.4666  0.1682 -0.3769
  144MOL   H23446280   5.657   0.967   1.552  0.0980 -0.9850 -0.8036
  144MOL   H23546281   5.558   1.022   1.688  0.4329  0.8437 -1.2192
  144MOL   H23646282   5.474   0.921   1.428  0.3764 -1.1944  1.0023
  144MOL   H23746283   5.367   1.035   1.752  0.8423  0.9040 -2.7479
  144MOL   H23846284   5.133   1.003   1.846  0.8703  1.2784 -0.2553
  144MOL   H23946285   4.966   0.893   1.710 -0.6604  2.5960 -1.3206
  144MOL   H24046286   5.003   0.828   1.483 -0.0724  0.2799 -0.8601
  144MOL   H24146287   5.237   0.886   1.380 -0.1847 -0.6414 -0.0772
  144MOL   C24246288   5.453   1.130   1.446  0.4967  0.0690 -0.4067
  144MOL   C24346289   5.553   1.159   1.337  0.7323 -0.5293 -0.2573
  144MOL   C24446290   5.539   1.067   1.219 -0.1535  0.1111 -0.3923
  144MOL   C24546291   5.447   1.076   1.115  0.2035 -0.2262  0.2608
  144MOL   C24646292   5.451   0.982   1.011 -0.7574  0.5693  0.2432
  144MOL   C24746293   5.547   0.880   1.006  0.0318 -0.4865 -0.1403
  144MOL   C24846294   5.640   0.870   1.115 -0.0439  0.0236 -0.3348
  144MOL   C24946295   5.629   0.954   1.226 -0.3559 -0.8443 -0.6887
  144MOL   H25046296   5.481   1.183   1.537 -1.0542  0.9703 -0.4380
  144MOL   H25146297   5.350   1.153   1.416 -0.4415 -1.5676  1.4894
  144MOL   H25246298   5.655   1.144   1.371  0.6148 -2.5405 -0.7144
  144MOL   H25346299   5.375   1.156   1.113  0.8738  0.5795  3.9869
  144MOL   H25446300   5.381   0.994   0.930  0.3854  2.2575 -0.5351
  144MOL   H25546301   5.573   0.814   0.925  2.9056 -1.0445  1.1565
  144MOL   H25646302   5.715   0.793   1.122  0.7758  0.7689 -0.7071
  144MOL   H25746303   5.701   0.941   1.306  1.8876 -0.4815 -2.5856
  144MOL   C25846304   5.559   1.308   1.298  0.7846  0.5273  0.3141
  144MOL   C25946305   5.631   1.354   1.175  0.7814  0.1336 -0.4819
  144MOL   C26046306   5.611   1.505   1.148 -0.5482  0.0070 -0.7421
  144MOL   C26146307   5.601   1.597   1.257  0.1853 -0.1242  0.8363
  144MOL   C26246308   5.579   1.736   1.227  0.7507  0.2772 -0.1767
  144MOL   C26346309   5.569   1.786   1.094 -0.2224 -0.0345 -0.2847
  144MOL   C26446310   5.587   1.691   0.991 -0.7433  0.3763 -0.0133
  144MOL   C26546311   5.609   1.554   1.016  0.1836  0.1961  0.5668
  144MOL   H26646312   5.578   1.362   1.390  2.5681 -0.8945  0.8091
  144MOL   H26746313   5.460   1.342   1.265  1.0303  1.1909  0.2584
  144MOL   H26846314   5.579   1.308   1.092 -0.4851  1.6072 -0.5287
  144MOL   H26946315   5.590   1.568   1.360  1.7241 -1.8546  0.5386
  144MOL   H27046316   5.572   1.812   1.304  0.6125 -0.7305  0.8226
  144MOL   H27146317   5.565   1.892   1.074  0.9298  0.1013  0.1047
  144MOL   H27246318   5.563   1.728   0.893  2.9642 -0.2292 -1.2260
  144MOL   H27346319   5.597   1.484   0.935 -3.4634  0.6750  0.6223
  144MOL   C27446320   5.778   1.310   1.175  0.3573  0.2410  0.0052
  144MOL   C27546321   5.883   1.380   1.264 -0.0185  0.2660  0.3311
  144MOL   C27646322   5.887   1.317   1.398  0.9412 -0.3702 -0.2229
  144MOL   C27746323   5.860   1.395   1.512  0.3487 -0.2604  0.2570
  144MOL   C27846324   5.845   1.331   1.638  0.3926 -0.2561 -0.2095
  144MOL   C27946325   5.868   1.195   1.649  0.2852  0.1007  0.0245
  144MOL   C28046326   5.914   1.123   1.541 -1.1054  0.5389 -0.2371
  144MOL   C28146327   5.926   1.183   1.412  0.0935  0.7036  0.5145
  144MOL   H28246328   5.815   1.321   1.073  2.9286  1.1466  1.0072
  144MOL   H28346329   5.780   1.202   1.185 -0.5395  0.1465 -0.7121
  144MOL   H28446330   5.856   1.485   1.273  2.0544  0.8065  0.5100
  144MOL   H28546331   5.827   1.497   1.498  0.9360 -0.2792 -1.3451
  144MOL   H28646332   5.808   1.386   1.723 -0.5943 -0.6268 -0.3812
  144MOL   H28746333   5.859   1.158   1.750 -2.2065  1.4312  0.3387
  144MOL   H28846334   5.931   1.017   1.555 -3.1249  0.3003  0.5739
  144MOL   H28946335   5.942   1.124   1.323  1.4392 -0.8307  1.7464
  144MOL   C29046336   6.020   1.391   1.203  0.5714 -0.7792  0.4479
  144MOL   C29146337   6.051   1.510   1.100  0.2725  0.4267  0.6464
  144MOL   C29246338   6.084   1.640   1.171  0.3484 -0.6360 -0.5691
  144MOL   C29346339   6.215   1.667   1.217 -0.4367  0.0268 -0.1497
  144MOL   C29446340   6.247   1.789   1.284 -0.5486  0.6823 -0.1823
  144MOL   C29546341   6.144   1.883   1.304 -0.2180 -0.4583  0.3544
  144MOL   C29646342   6.015   1.850   1.269  0.3565  0.2126 -0.0201
  144MOL   C29746343   5.982   1.730   1.204  0.2311 -0.1173 -0.1489
  144MOL   H29846344   6.050   1.298   1.155  1.8973 -0.2639  0.2464
  144MOL   H29946345   6.093   1.401   1.283 -0.6629  1.3107  1.3662
  144MOL   H30046346   5.967   1.536   1.036  1.0456  2.5751  0.4772
  144MOL   H30146347   6.298   1.602   1.195  1.2811  2.2193 -0.2742
  144MOL   H30246348   6.348   1.805   1.320 -0.6573  3.0326 -0.8775
  144MOL   H30346349   6.177   1.975   1.351  2.1783 -0.8302 -0.5100
  144MOL   H30446350   5.943   1.923   1.302 -0.3108 -0.4220 -0.0522
  144MOL   H30546351   5.883   1.700   1.172 -0.5909 -1.6860  3.5966
  144MOL   C30646352   6.165   1.473   1.003 -0.1262  0.3430 -0.5758
  144MOL   C30746353   6.128   1.409   0.862  0.0796  0.5926  0.2418
  144MOL   C30846354   6.246   1.407   0.772 -0.3403 -0.0754 -0.3107
  144MOL   C30946355   6.350   1.312   0.803 -0.0079  0.2621 -0.0682
  144MOL   C31046356   6.461   1.305   0.718 -0.8562 -0.6705 -0.2446
  144MOL   C31146357   6.481   1.401   0.612 -0.3049 -0.0069  0.1504
  144MOL   C31246358   6.370   1.487   0.572 -0.1412  0.3974 -0.8212
  144MOL   C31346359   6.261   1.497   0.656  0.1008  0.2563 -0.5066
  144MOL   H31446360   6.245   1.426   1.060 -0.2296 -0.7801 -1.3397
  144MOL   H31546361   6.212   1.569   0.983  2.2421 -0.5176  0.7368
  144MOL   H31646362   6.046   1.468   0.820 -0.5347 -0.3840  0.0602
  144MOL   H31746363   6.349   1.249   0.890 -2.6739  0.1258 -0.1650
  144MOL   H31846364   6.540   1.234   0.736  1.6142  1.6209 -1.6129
  144MOL   H31946365   6.563   1.395   0.543 -0.2478 -2.5922  0.4243
  144MOL   H32046366   6.381   1.551   0.486  2.1765  1.2404  0.0413
  144MOL   H32146367   6.187   1.570   0.628  1.0241  1.8448  1.0700
  144MOL   H32246368   6.092   1.308   0.879  2.7366 -0.9462 -2.7789
  145MOL     C146369   0.111   0.202   2.774 -0.3881  0.0702  0.0230
  145MOL     C246370   0.095   0.224   2.925 -0.7863  0.1870 -0.2381
  145MOL     C346371   8.062   0.263   2.963 -0.1304 -0.8577 -0.0401
  145MOL     C446372   7.952   0.182   2.938  0.4703  0.6411  0.4431
  145MOL     C546373   7.822   0.213   2.976  0.8122 -0.6866  0.4315
  145MOL     C646374   7.796   0.337   3.049 -0.3669  0.6006 -0.3568
  145MOL     C746375   7.905   0.424   3.064  0.1066 -0.2423 -0.0349
  145MOL     C846376   8.037   0.384   3.028  0.0048  0.0908  0.1157
  145MOL     H946377   0.060   0.110   2.747 -0.0416 -0.3685  0.8385
  145MOL    H1046378   0.087   0.294   2.721  0.0102  0.0293 -0.2382
  145MOL    H1146379   0.153   0.315   2.937 -1.5569  0.4544  1.8749
  145MOL    H1246380   7.961   0.098   2.870  0.8381  1.2041 -0.2181
  145MOL    H1346381   7.740   0.148   2.952 -0.6605  1.0628  0.6244
  145MOL    H1446382   7.695   0.372   3.064 -1.2178 -1.6839 -0.5269
  145MOL    H1546383   7.892   0.519   3.114 -1.5110 -0.1814 -0.5683
  145MOL    H1646384   0.005   0.452   3.041 -1.8942  2.3553  0.7173
  145MOL    H1746385   0.218   0.194   2.750 -0.7219  1.0841 -1.9388
  145MOL    C1846386   0.161   0.117   3.020 -0.1891 -0.6531 -0.5392
  145MOL    C1946387   0.143   0.139   3.180  0.2618  0.3008 -0.0325
  145MOL    C2046388   0.189   0.016   3.256 -0.4469  0.3382 -0.1401
  145MOL    C2146389   0.326   0.007   3.298  0.0618 -1.0779  0.6819
  145MOL    C2246390   0.376   8.009   3.364 -0.1111 -0.3337 -0.0106
  145MOL    C2346391   0.292   7.903   3.398  0.5396  0.0448 -0.4387
  145MOL    C2446392   0.155   7.909   3.361 -0.2059 -0.1478  0.3408
  145MOL    C2546393   0.107   8.022   3.284  0.5899  0.0045 -0.2238
  145MOL    H2646394   0.265   0.100   2.992 -0.3949 -1.5139 -0.8145
  145MOL    H2746395   0.113   0.023   2.993 -1.1914 -0.3763  0.2658
  145MOL    H2846396   0.035   0.140   3.189  0.2739  1.2858  0.0608
  145MOL    H2946397   0.404   0.072   3.261  0.1770 -0.7185  1.5475
  145MOL    H3046398   0.481   8.004   3.386  0.0088  0.1392 -0.4909
  145MOL    H3146399   0.320   7.807   3.440  0.3148  0.0121 -0.3616
  145MOL    H3246400   0.098   7.821   3.387  0.0169 -0.1746  0.7350
  145MOL    H3346401   0.003   8.022   3.255  0.3544  2.7760  0.4667
  145MOL    C3446402   0.194   0.274   3.238  1.0680  1.1214  0.3150
  145MOL    C3546403   0.163   0.291   3.383 -0.6778  0.6566  0.9243
  145MOL    C3646404   0.237   0.416   3.430  0.3587 -0.8588 -0.1858
  145MOL    C3746405   0.204   0.540   3.377 -0.7250  0.3274  0.0624
  145MOL    C3846406   0.284   0.651   3.402  0.2165 -0.2745 -0.5546
  145MOL    C3946407   0.399   0.639   3.472  0.2245 -0.8456  0.1650
  145MOL    C4046408   0.438   0.513   3.529  0.2468 -0.5541 -0.0630
  145MOL    C4146409   0.352   0.399   3.498  0.5945 -0.3710 -0.2030
  145MOL    H4246410   0.163   0.364   3.184 -3.1194  0.0528  0.8359
  145MOL    H4346411   0.302   0.271   3.220  1.0595 -1.0906  0.4670
  145MOL    H4446412   0.208   0.207   3.435 -0.7339  0.2770  0.3580
  145MOL    H4546413   0.112   0.552   3.322 -0.0016 -0.9475 -1.4626
  145MOL    H4646414   0.249   0.743   3.357 -2.3560 -1.5539 -1.2946
  145MOL    H4746415   0.462   0.726   3.481 -0.0341 -0.5765 -0.6085
  145MOL    H4846416   0.522   0.500   3.596  0.1842  1.3961  0.4229
  145MOL    H4946417   0.375   0.307   3.550 -1.3088 -1.3128 -0.9690
  145MOL    C5046418   0.010   0.285   3.407 -0.1727  0.0194 -0.6126
  145MOL    C5146419   8.075   0.351   3.541  0.0490 -0.6467  0.1307
  145MOL    C5246420   8.017   0.489   3.519  0.1392  0.0777 -0.1431
  145MOL    C5346421   8.077   0.607   3.562  0.0703  0.3233  0.8940
  145MOL    C5446422   8.030   0.734   3.528  0.5259 -0.1741 -0.2655
  145MOL    C5546423   7.921   0.743   3.436 -0.0733 -0.6173  0.0874
  145MOL    C5646424   7.864   0.623   3.389 -0.1496 -0.8457 -0.0780
  145MOL    C5746425   7.906   0.498   3.431 -0.5457 -0.0122  0.6254
  145MOL    H5846426   8.095   0.181   3.411 -0.4857  0.1350  0.1095
  145MOL    H5946427   8.082   0.330   3.317 -0.3204  0.9564 -0.0786
  145MOL    H6046428   0.047   0.370   3.604 -1.9580  1.0275  2.4926
  145MOL    H6146429   0.045   0.609   3.631 -0.8612  0.9609  2.0342
  145MOL    H6246430   8.087   0.819   3.562  1.5507 -0.5917 -0.9347
  145MOL    H6346431   7.898   0.836   3.387 -1.0885 -1.8106 -1.7304
  145MOL    H6446432   7.782   0.628   3.319 -2.2276 -0.5355  2.3019
  145MOL    H6546433   7.851   0.416   3.388  1.0880 -0.0398 -1.4856
  145MOL    C6646434   7.979   0.263   3.619 -0.1925  0.8862 -0.0129
  145MOL    C6746435   8.037   0.139   3.687  0.3380 -0.0013  0.4599
  145MOL    C6846436   0.050   0.162   3.753 -0.0306 -0.1834  0.2520
  145MOL    C6946437   0.169   0.114   3.694 -0.2591 -0.0112  0.5025
  145MOL    C7046438   0.288   0.136   3.758  0.1229 -0.2257  0.6308
  145MOL    C7146439   0.302   0.214   3.871 -0.3296 -0.5796 -0.6284
  145MOL    C7246440   0.187   0.263   3.931 -0.2390  0.3439  0.4029
  145MOL    C7346441   0.062   0.247   3.862 -0.1361  0.4315 -0.0319
  145MOL    H7446442   7.894   0.235   3.556  0.0768  0.7428 -0.3120
  145MOL    H7546443   7.935   0.322   3.700  0.6371  1.2448  0.1884
  145MOL    H7646444   8.057   0.084   3.595  0.7952  0.4215  0.3025
  145MOL    H7746445   0.168   0.068   3.597  1.4292  2.5366 -0.7797
  145MOL    H7846446   0.381   0.099   3.719 -0.6267 -1.4945  0.0342
  145MOL    H7946447   0.398   0.228   3.918  0.3996 -0.0639 -2.2333
  145MOL    H8046448   0.188   0.313   4.027 -0.3463 -3.5506  2.5487
  145MOL    H8146449   8.089   0.295   3.904 -0.2336 -0.7093  1.0646
  145MOL    C8246450   7.935   0.049   3.757 -0.5786 -0.2407  1.0033
  145MOL    C8346451   7.984   8.033   3.823  0.0700 -0.4154 -0.6482
  145MOL    C8446452   7.887   7.971   3.916  0.1419 -0.0256 -0.4772
  145MOL    C8546453   7.935   7.912   4.035 -0.5160  0.1503  0.1049
  145MOL    C8646454   7.853   7.854   4.134  0.1752  0.7876  0.4023
  145MOL    C8746455   7.716   7.846   4.110  0.3602  0.3623 -0.2150
  145MOL    C8846456   7.663   7.920   4.002  0.3934  0.8015 -0.0890
  145MOL    C8946457   7.748   7.975   3.901 -0.2544  0.0210 -0.1250
  145MOL    H9046458   7.851   0.030   3.689  0.1710 -0.0420  0.0075
  145MOL    H9146459   7.908   0.119   3.836  1.1493 -1.6099  2.8373
  145MOL    H9246460   8.062   8.068   3.891 -0.3423 -0.0462 -0.3596
  145MOL    H9346461   8.042   7.911   4.051 -0.8431  0.6394  2.4376
  145MOL    H9446462   7.894   7.804   4.219 -1.8469 -0.1606  0.8542
  145MOL    H9546463   7.651   7.780   4.166  2.7028 -0.6434  1.4202
  145MOL    H9646464   7.556   7.917   3.983  0.6131 -1.8481 -1.1559
  145MOL    H9746465   7.706   8.024   3.815 -1.2334  0.5503  0.6392
  145MOL    C9846466   8.037   7.931   3.726  0.8259 -0.2516  0.9217
  145MOL    C9946467   8.065   7.788   3.767  0.2067 -0.1049  0.3125
  145MOL   C10046468   7.959   7.689   3.734  0.0476 -0.4958  0.0793
  145MOL   C10146469   7.929   7.659   3.603 -0.1626  0.1922  0.9140
  145MOL   C10246470   7.817   7.576   3.577  0.6745 -0.4276 -0.3712
  145MOL   C10346471   7.740   7.515   3.673  0.4397  0.4905  0.2090
  145MOL   C10446472   7.765   7.550   3.806  0.3052  0.3669 -0.0036
  145MOL   C10546473   7.879   7.631   3.833 -0.0558 -0.3956 -0.2141
  145MOL   H10646474   0.012   7.972   3.680  0.7893 -2.0329 -0.8239
  145MOL   H10746475   7.962   7.924   3.647  2.2535  0.1429 -0.4930
  145MOL   H10846476   8.057   7.776   3.875 -2.3169  1.3743  0.3270
  145MOL   H10946477   7.993   7.697   3.524  0.9258 -1.8420  0.7752
  145MOL   H11046478   7.789   7.555   3.475 -0.9146  0.1378 -0.0604
  145MOL   H11146479   7.656   7.449   3.656 -1.0207  1.5622  2.9227
  145MOL   H11246480   7.703   7.500   3.879 -0.4491  1.7800  0.3288
  145MOL   H11346481   7.887   7.655   3.938  2.0534 -1.9985  0.0119
  145MOL   C11446482   0.094   7.730   3.733 -0.1866 -0.4094  0.1384
  145MOL   C11546483   0.218   7.819   3.783  0.0864 -0.0400 -0.0698
  145MOL   C11646484   0.196   7.845   3.932  0.0529 -0.5043  0.6880
  145MOL   C11746485   0.173   7.733   4.018 -0.0756  0.5525 -0.2830
  145MOL   C11846486   0.145   7.760   4.155 -0.2808  0.0957 -0.2039
  145MOL   C11946487   0.144   7.891   4.203  0.7552  0.4207  0.6415
  145MOL   C12046488   0.161   8.001   4.117 -0.5404  0.2920  0.1380
  145MOL   C12146489   0.188   7.982   3.981  0.3269 -0.0014 -0.4672
  145MOL   H12246490   0.112   7.720   3.626 -1.4878 -0.3158 -0.1005
  145MOL   H12346491   0.102   7.626   3.764  0.5243 -0.9968 -1.9311
  145MOL   H12446492   0.215   7.919   3.739 -2.1424 -0.5373 -1.1362
  145MOL   H12546493   0.168   7.631   3.984 -0.6769  0.3354  0.4330
  145MOL   H12646494   0.119   7.668   4.205 -1.3417  0.6581  0.2812
  145MOL   H12746495   0.131   7.913   4.308  0.9122  0.4363  0.6580
  145MOL   H12846496   0.149   8.101   4.154  0.2186 -0.3048  2.0662
  145MOL   H12946497   0.209   8.066   3.916 -1.3243  0.9219  0.1504
  145MOL   C13046498   0.347   7.739   3.758  0.7075  0.8479  0.1524
  145MOL   C13146499   0.487   7.807   3.776  0.3692 -0.1686 -0.0625
  145MOL   C13246500   0.515   7.863   3.911  0.0700 -0.6320 -0.3920
  145MOL   C13346501   0.563   7.775   4.012  0.5280  0.2832  0.6929
  145MOL   C13446502   0.623   7.831   4.123  0.1677  0.1235  0.4556
  145MOL   C13546503   0.593   7.967   4.160 -0.6892 -0.5506  0.0479
  145MOL   C13646504   0.533   8.051   4.073 -0.4855 -0.1299  0.0221
  145MOL   C13746505   0.513   8.003   3.937 -0.4969 -0.5429 -0.6232
  145MOL   H13846506   0.337   7.711   3.653 -1.9457  0.8822  0.3568
  145MOL   H13946507   0.346   7.646   3.814 -1.4689 -0.8539 -2.5754
  145MOL   H14046508   0.478   7.889   3.705  0.3153  0.6266  0.8480
  145MOL   H14146509   0.571   7.669   3.995  1.4956  0.5057 -0.2998
  145MOL   H14246510   0.675   7.764   4.190 -1.5786 -1.0764  0.6664
  145MOL   H14346511   0.629   8.004   4.256  0.9618 -1.5573 -0.1658
  145MOL   H14446512   0.525   0.040   4.100 -3.7372 -0.3339  0.0276
  145MOL   H14546513   0.473   8.071   3.864  2.1908  1.7201 -0.0597
  145MOL   C14646514   0.591   7.703   3.730  0.6988  0.1157 -0.4524
  145MOL   C14746515   0.745   7.734   3.750 -0.0303 -0.3717 -0.3689
  145MOL   C14846516   0.827   7.602   3.755 -0.4363  0.1589 -0.7811
  145MOL   C14946517   0.796   7.513   3.652  0.3986 -0.3155 -0.5783
  145MOL   C15046518   0.870   7.396   3.648  0.8331  0.6515 -0.6230
  145MOL   C15146519   0.968   7.358   3.740  0.1485  0.1349 -0.1183
  145MOL   C15246520   0.996   7.445   3.846 -0.2200  0.0604  0.3479
  145MOL   C15346521   0.933   7.570   3.847  0.5769 -0.2857 -0.9229
  145MOL   H15446522   0.580   7.682   3.623  2.6567 -0.4830 -0.5665
  145MOL   H15546523   0.568   7.607   3.776 -1.0116  1.0086  0.6096
  145MOL   H15646524   0.758   7.780   3.849 -0.0342  0.4756 -0.7545
  145MOL   H15746525   0.728   7.543   3.573 -2.2923 -0.3045  1.6886
  145MOL   H15846526   0.860   7.338   3.558  0.6577  0.9099 -0.7704
  145MOL   H15946527   1.017   7.264   3.722 -0.3545  0.3421 -2.7371
  145MOL   H16046528   1.081   7.421   3.909  1.0618 -1.3449 -1.8421
  145MOL   H16146529   0.959   7.647   3.917 -1.2108 -0.3766 -0.1359
  145MOL   C16246530   0.799   7.839   3.647  0.0996 -0.3546 -0.4822
  145MOL   C16346531   0.849   7.974   3.709 -0.2979 -0.4107  0.0678
  145MOL   C16446532   0.975   7.963   3.798 -0.5511 -0.1966 -0.3792
  145MOL   C16546533   0.963   7.959   3.939  0.0554  0.1888 -0.4200
  145MOL   C16646534   1.069   7.946   4.024 -0.2138 -0.1446 -0.2153
  145MOL   C16746535   1.197   7.942   3.964 -1.1760 -0.5249  0.3301
  145MOL   C16846536   1.216   7.939   3.825  0.3228  0.2531 -0.0427
  145MOL   C16946537   1.103   7.943   3.741 -0.2737  0.2628 -0.0418
  145MOL   H17046538   0.743   7.864   3.557 -0.6598 -0.5711 -0.0766
  145MOL   H17146539   0.881   7.790   3.594  1.2917  2.5597 -1.4853
  145MOL   H17246540   0.761   8.010   3.761 -1.4035  0.6645 -2.4718
  145MOL   H17346541   0.863   7.957   3.979 -0.0375 -0.4886 -0.6790
  145MOL   H17446542   1.044   7.949   4.129 -2.4956  1.9572 -0.7840
  145MOL   H17546543   1.287   7.945   4.023 -1.1720 -0.5160  0.3235
  145MOL   H17646544   1.312   7.935   3.776 -0.3219 -1.7666 -1.1888
  145MOL   H17746545   1.119   7.945   3.634 -0.6517 -0.9456 -0.1384
  145MOL   C17846546   0.869   8.092   3.602  0.9272  0.1454  0.0634
  145MOL   C17946547   0.896   0.112   3.666  0.0758 -0.2616  0.4798
  145MOL   C18046548   0.888   0.212   3.550  0.2384 -0.1131 -0.1149
  145MOL   C18146549   1.012   0.270   3.506  0.2628 -0.0796  0.1930
  145MOL   C18246550   1.005   0.369   3.403 -0.1439  0.0507 -0.4801
  145MOL   C18346551   0.883   0.408   3.351  0.4265 -0.1759 -0.2685
  145MOL   C18446552   0.764   0.341   3.380  0.5494  0.5573 -0.3433
  145MOL   C18546553   0.767   0.236   3.483 -0.2283 -0.6816 -0.6389
  145MOL   H18646554   0.772   8.082   3.555  0.0358  0.2996  1.8290
  145MOL   H18746555   0.937   8.058   3.524  0.9300  1.8896 -0.7083
  145MOL   H18846556   1.004   0.114   3.686  0.2951  1.9808 -0.8466
  145MOL   H18946557   1.111   0.256   3.548  0.6041  1.4294 -0.0518
  145MOL   H19046558   1.100   0.413   3.378  0.7060 -0.1707  2.1327
  145MOL   H19146559   0.877   0.488   3.278 -1.8986  0.4756  0.6039
  145MOL   H19246560   0.666   0.357   3.337  0.7714  0.5819 -0.8512
  145MOL   H19346561   0.667   0.203   3.508 -0.1996 -0.1721  0.1700
  145MOL   C19446562   0.804   0.145   3.784 -0.0942 -0.2786  0.4757
  145MOL   C19546563   0.835   0.283   3.848 -0.0984 -0.1501  0.5963
  145MOL   C19646564   0.724   0.345   3.932 -0.2742  0.4051  0.4987
  145MOL   C19746565   0.693   0.298   4.060 -0.8053 -0.5223 -0.6176
  145MOL   C19846566   0.578   0.351   4.122  0.2214 -0.1755 -0.1356
  145MOL   C19946567   0.492   0.447   4.059  0.6702 -0.1498 -0.0686
  145MOL   C20046568   0.517   0.486   3.927  0.2709 -0.0432  0.6373
  145MOL   C20146569   0.635   0.434   3.866 -0.0540  0.1721 -0.3574
  145MOL   H20246570   0.818   0.073   3.865 -0.6567  0.0014  0.8270
  145MOL   H20346571   0.706   0.141   3.735  0.8076  0.9506 -1.4639
  145MOL   H20446572   0.835   0.357   3.769  4.3957 -0.4855  0.1503
  145MOL   H20546573   0.754   0.235   4.123  0.2490  1.4628  0.3686
  145MOL   H20646574   0.548   0.313   4.218 -0.3517  0.4034 -0.0804
  145MOL   H20746575   0.411   0.490   4.116 -0.9177 -1.5809 -1.1851
  145MOL   H20846576   0.456   0.567   3.888 -3.4536 -2.7900  0.5134
  145MOL   H20946577   0.650   0.464   3.764  0.0043 -1.2124 -0.7617
  145MOL   C21046578   0.972   0.287   3.921  0.2134 -0.4712 -0.4996
  145MOL   C21146579   1.029   0.430   3.946 -0.7082 -0.5317  0.1873
  145MOL   C21246580   1.155   0.408   4.026 -0.2540 -0.2044  0.1565
  145MOL   C21346581   1.162   0.463   4.156  0.2646 -0.3628 -0.1000
  145MOL   C21446582   1.287   0.469   4.223 -0.0716  0.8502 -0.3789
  145MOL   C21546583   1.400   0.396   4.173  0.5442 -0.1607  0.0408
  145MOL   C21646584   1.386   0.329   4.045 -0.5736 -0.1741  0.2648
  145MOL   C21746585   1.266   0.336   3.975  0.3477 -0.1115  0.7915
  145MOL   H21846586   1.039   0.224   3.861 -1.0459 -1.6915 -0.6357
  145MOL   H21946587   0.957   0.233   4.014 -0.5926 -1.9710 -1.4830
  145MOL   H22046588   0.949   0.467   4.009  1.3023  2.4772  1.0942
  145MOL   H22146589   1.082   0.533   4.177  0.4217 -0.5916  1.3409
  145MOL   H22246590   1.297   0.525   4.315 -1.3025  0.4390  0.0251
  145MOL   H22346591   1.497   0.393   4.219  1.5126  0.8941 -1.8524
  145MOL   H22446592   1.470   0.287   3.992  0.5951  2.9645 -0.4853
  145MOL   H22546593   1.261   0.299   3.874 -1.0773  0.4126  0.6573
  145MOL   C22646594   1.041   0.522   3.823 -0.3846  0.9396 -0.8152
  145MOL   C22746595   0.937   0.634   3.818 -0.0683 -0.1065 -0.1347
  145MOL   C22846596   0.974   0.748   3.912  0.3764 -0.6267  0.5631
  145MOL   C22946597   1.090   0.819   3.891 -0.1418 -0.5313 -0.2237
  145MOL   C23046598   1.112   0.927   3.969 -0.5001  0.7855  0.1246
  145MOL   C23146599   1.025   0.968   4.066  0.5646 -0.2081  0.5468
  145MOL   C23246600   0.913   0.892   4.099  0.1724  0.2699  0.6252
  145MOL   C23346601   0.890   0.775   4.020 -0.1677  0.1437  0.4628
  145MOL   H23446602   1.043   0.458   3.735 -1.3843 -0.9554  0.4896
  145MOL   H23546603   1.140   0.569   3.824 -0.4532  1.0700  0.5940
  145MOL   H23646604   0.839   0.600   3.852 -0.3483 -0.3683 -1.1814
  145MOL   H23746605   1.164   0.797   3.815  0.4203 -0.0048  0.1663
  145MOL   H23846606   1.202   0.986   3.954  1.5607 -1.3313  3.4919
  145MOL   H23946607   1.035   1.065   4.111 -1.3628  0.6263 -0.7816
  145MOL   H24046608   0.846   0.926   4.177 -0.5762  0.8658 -0.2606
  145MOL   H24146609   0.802   0.716   4.042 -0.6582  1.1555  1.2441
  145MOL   C24246610   0.919   0.685   3.674  0.8199  0.1298 -0.1736
  145MOL   C24346611   0.839   0.815   3.644 -0.1620 -0.0866  0.0690
  145MOL   C24446612   0.838   0.855   3.500 -0.5904 -0.5220  0.1046
  145MOL   C24546613   0.910   0.973   3.461  0.0051 -0.3929  0.1190
  145MOL   C24646614   0.930   0.999   3.324  0.2933  0.4349 -0.4371
  145MOL   C24746615   0.863   0.918   3.231  0.0723  0.1278  0.4692
  145MOL   C24846616   0.799   0.793   3.266 -0.6510 -0.4280  0.2223
  145MOL   C24946617   0.784   0.763   3.407  0.0181  0.0616 -0.5996
  145MOL   H25046618   0.886   0.597   3.618  0.6586  1.6372 -2.5042
  145MOL   H25146619   1.017   0.711   3.636  0.1423 -0.4799 -2.4197
  145MOL   H25246620   0.877   0.901   3.700 -0.7512  1.1388 -1.3733
  145MOL   H25346621   0.964   1.036   3.530 -1.8217  3.6683 -1.9964
  145MOL   H25446622   0.970   1.091   3.286  0.7523  1.3334  2.1145
  145MOL   H25546623   0.877   0.935   3.125 -0.8006 -3.6394 -0.3245
  145MOL   H25646624   0.771   0.724   3.188 -0.7596  0.1215 -0.2290
  145MOL   H25746625   0.746   0.665   3.430  1.6332 -0.7267 -1.2752
  145MOL   C25846626   0.701   0.799   3.709 -0.7488  0.1089 -0.7464
  145MOL   C25946627   0.616   0.930   3.731  0.1821  0.0976 -0.0256
  145MOL   C26046628   0.461   0.915   3.752 -0.2465  0.5951  0.2164
  145MOL   C26146629   0.422   0.845   3.868  0.6179 -0.0561  0.1533
  145MOL   C26246630   0.286   0.818   3.888  0.0243 -0.1449 -0.8108
  145MOL   C26346631   0.193   0.867   3.800  0.2744 -0.5380 -0.0084
  145MOL   C26446632   0.230   0.944   3.686  0.5352  0.0489 -0.2259
  145MOL   C26546633   0.369   0.970   3.664  0.3791 -0.4808 -0.2163
  145MOL   H26646634   0.715   0.761   3.811  0.5344  0.0888 -0.9106
  145MOL   H26746635   0.650   0.726   3.646 -0.9052  0.1809 -0.7018
  145MOL   H26846636   0.621   0.975   3.632 -0.8945  1.6351  0.5855
  145MOL   H26946637   0.492   0.796   3.933 -0.0281 -0.4595  0.5403
  145MOL   H27046638   0.256   0.754   3.970 -2.4407  0.6410 -1.0646
  145MOL   H27146639   0.087   0.858   3.822 -0.3459  2.1996 -1.6456
  145MOL   H27246640   0.163   0.983   3.611 -1.1549  0.1222  1.2789
  145MOL   H27346641   0.393   1.040   3.585  0.0788  0.8864  0.8690
  145MOL   C27446642   0.683   1.024   3.838  0.1053  0.3940  0.6089
  145MOL   C27546643   0.610   1.154   3.889  0.4118  0.4205  0.0188
  145MOL   C27646644   0.669   1.200   4.027 -0.0396 -0.0870  0.5297
  145MOL   C27746645   0.785   1.284   4.033  0.2907 -0.3515 -0.1420
  145MOL   C27846646   0.824   1.336   4.153 -0.0670 -0.3559  0.0974
  145MOL   C27946647   0.755   1.317   4.279 -0.4250  0.2232 -0.4028
  145MOL   C28046648   0.638   1.240   4.274  0.2859  0.3864  0.1985
  145MOL   C28146649   0.597   1.179   4.148  0.3219 -0.1227  0.4086
  145MOL   H28246650   0.787   1.053   3.818  0.0297 -0.7671 -1.5637
  145MOL   H28346651   0.690   0.962   3.927  2.0102  0.7093  0.6997
  145MOL   H28446652   0.504   1.139   3.906  0.1434  1.7626 -0.3993
  145MOL   H28546653   0.841   1.296   3.942 -1.4485 -1.2230 -1.3378
  145MOL   H28646654   0.901   1.411   4.157  1.4603 -1.8731 -0.5065
  145MOL   H28746655   0.797   1.354   4.371 -0.2273 -1.2136  0.1035
  145MOL   H28846656   0.583   1.224   4.366 -1.5680 -1.0524 -1.1265
  145MOL   H28946657   0.507   1.120   4.146  1.2614 -1.5685 -1.8111
  145MOL   C29046658   0.625   1.265   3.783 -0.0635  0.1248  0.3675
  145MOL   C29146659   0.511   1.282   3.683  0.5729 -0.4869 -0.1679
  145MOL   C29246660   0.390   1.324   3.747  0.4388 -0.2107  0.3167
  145MOL   C29346661   0.268   1.294   3.680  0.3034 -0.0387 -0.3416
  145MOL   C29446662   0.148   1.350   3.737 -0.1488 -0.6866 -1.3516
  145MOL   C29546663   0.150   1.411   3.866  0.4319 -0.3862 -0.2289
  145MOL   C29646664   0.267   1.435   3.937  0.0251 -0.4998  0.0556
  145MOL   C29746665   0.387   1.397   3.871 -0.1766  0.0662  0.6265
  145MOL   H29846666   0.722   1.261   3.733  0.2517  3.1793  0.6047
  145MOL   H29946667   0.645   1.362   3.830 -1.2497  0.4267  0.2641
  145MOL   H30046668   0.500   1.187   3.631 -3.7471 -0.1270 -0.1205
  145MOL   H30146669   0.275   1.253   3.581  3.3759 -0.1576 -0.1101
  145MOL   H30246670   0.051   1.337   3.691 -0.8477  2.5951 -0.9060
  145MOL   H30346671   0.054   1.440   3.905 -0.2727 -1.2658 -1.2999
  145MOL   H30446672   0.258   1.476   4.036  1.2902 -2.2176  0.9156
  145MOL   H30546673   0.484   1.413   3.916  1.7986 -0.4226 -3.2702
  145MOL   C30646674   0.537   1.386   3.575 -0.1664 -0.1333  0.1928
  145MOL   C30746675   0.623   1.334   3.449 -0.1060  0.2493  0.0158
  145MOL   C30846676   0.546   1.237   3.357 -0.0300 -0.2479  0.1532
  145MOL   C30946677   0.591   1.102   3.348  0.6374 -0.9833  0.4333
  145MOL   C31046678   0.537   1.006   3.261  0.1582  0.1314  0.5342
  145MOL   C31146679   0.421   1.041   3.190  0.1313 -0.0138  0.4739
  145MOL   C31246680   0.371   1.172   3.199 -0.2359  0.2071 -0.1215
  145MOL   C31346681   0.431   1.272   3.284  0.6886 -0.4959 -0.3527
  145MOL   H31446682   0.592   1.464   3.627 -0.5079 -0.4487  1.0297
  145MOL   H31546683   0.442   1.426   3.538  0.4518  1.2035  0.0270
  145MOL   H31646684   0.724   1.298   3.465 -1.0197 -1.6694  1.7074
  145MOL   H31746685   0.680   1.063   3.397  2.5082  1.4171 -0.9566
  145MOL   H31846686   0.569   0.903   3.258  1.4061  0.5385 -0.6394
  145MOL   H31946687   0.368   0.966   3.133 -3.5326  2.0394  0.9951
  145MOL   H32046688   0.284   1.206   3.144  0.6531  0.9339 -1.1121
  145MOL   H32146689   0.382   1.369   3.277  2.3837  0.4962  1.1129
  145MOL   H32246690   0.637   1.419   3.383  1.3599  0.9081  1.1547
  146MOL     C146691   2.236   4.429   8.077 -0.5463  0.3583 -0.4319
  146MOL     C246692   2.138   4.326   8.025  0.2575 -0.3706  0.4857
  146MOL     C346693   2.125   4.333   7.871  0.1045  0.1137 -0.3359
  146MOL     C446694   2.000   4.356   7.807  0.1952 -0.3174 -0.1864
  146MOL     C546695   1.983   4.369   7.671 -0.9549  1.0418 -0.5316
  146MOL     C646696   2.098   4.351   7.593 -0.3659 -0.7415 -0.0065
  146MOL     C746697   2.228   4.327   7.641  0.0644  0.4483  0.5344
  146MOL     C846698   2.235   4.313   7.782 -0.6251 -0.1096 -0.0718
  146MOL     H946699   2.333   4.417   8.030  0.2801 -0.7170  1.5277
  146MOL    H1046700   2.219   4.534   8.051  3.9563  1.3349  0.1486
  146MOL    H1146701   2.045   4.368   8.065 -0.1477 -0.8322  0.0280
  146MOL    H1246702   1.911   4.362   7.869 -0.2086  1.2498 -0.8702
  146MOL    H1346703   1.889   4.377   7.617 -1.9415 -1.8695  0.6742
  146MOL    H1446704   2.086   4.367   7.487  0.3597 -2.0723 -0.3037
  146MOL    H1546705   2.315   4.315   7.578 -0.0608 -0.9127  0.5970
  146MOL    H1646706   2.333   4.294   7.823 -0.7719  0.2017  0.4286
  146MOL    H1746707   2.246   4.423   0.070 -0.5339 -0.7420 -0.4935
  146MOL    C1846708   2.152   4.183   8.080  0.5187  0.3705  0.2440
  146MOL    C1946709   2.271   4.092   8.029 -0.2352  0.1694  0.0738
  146MOL    C2046710   2.407   4.148   8.062 -0.1075  0.3117  0.1208
  146MOL    C2146711   2.511   4.173   7.963 -0.4902 -0.9558 -0.2238
  146MOL    C2246712   2.638   4.218   7.995  0.0325  0.1379 -0.4546
  146MOL    C2346713   2.669   4.229   0.020  0.3138 -0.7021  0.3834
  146MOL    C2446714   2.568   4.214   0.115  0.1899  0.0289  0.5864
  146MOL    C2546715   2.440   4.177   0.081 -0.0976 -0.7838  0.3323
  146MOL    H2646716   2.057   4.142   8.047  0.4912  1.2587 -0.7974
  146MOL    H2746717   2.147   4.188   0.074  0.3038  1.6361  0.1853
  146MOL    H2846718   2.277   4.084   7.920 -1.3219  0.3929 -0.0079
  146MOL    H2946719   2.491   4.140   7.862 -0.3414 -0.1572 -0.5103
  146MOL    H3046720   2.707   4.243   7.916 -2.2326 -0.2852 -2.6033
  146MOL    H3146721   2.767   4.270   0.039 -0.4710  0.3984  2.1723
  146MOL    H3246722   2.599   4.228   0.217  1.8710  0.9440 -0.0229
  146MOL    H3346723   2.376   4.159   0.166 -0.4833  2.2669  0.7357
  146MOL    C3446724   2.242   3.944   8.070 -0.0194 -0.5767 -0.2558
  146MOL    C3546725   2.140   3.870   7.982  0.8135 -0.0785 -0.6014
  146MOL    C3646726   2.214   3.850   7.848  0.6182  0.0878 -1.0769
  146MOL    C3746727   2.185   3.931   7.738  0.3186 -0.4826  0.7939
  146MOL    C3846728   2.252   3.910   7.617  0.6946 -0.3473 -0.7305
  146MOL    C3946729   2.332   3.793   7.601 -0.3253 -0.1776 -0.3760
  146MOL    C4046730   2.363   3.717   7.709 -0.2422 -0.0253  0.5893
  146MOL    C4146731   2.304   3.746   7.834  0.2049 -0.3022  0.1521
  146MOL    H4246732   2.215   3.935   0.060 -0.0919 -1.5900 -0.3481
  146MOL    H4346733   2.343   3.906   8.056 -0.3363 -0.7189 -2.4207
  146MOL    H4446734   2.053   3.933   7.963  0.5116 -0.9362 -2.1542
  146MOL    H4546735   2.116   4.014   7.746  0.6691 -0.0482 -0.5956
  146MOL    H4646736   2.231   3.962   7.524 -2.1912 -0.4494 -0.1954
  146MOL    H4746737   2.366   3.769   7.501 -1.1141 -1.2128 -0.4066
  146MOL    H4846738   2.424   3.628   7.714 -1.4575 -0.8970  0.3842
  146MOL    H4946739   2.340   3.686   7.916 -1.3099 -1.9235 -0.3314
  146MOL    C5046740   2.089   3.742   8.055 -0.1884  0.2132  0.0529
  146MOL    C5146741   1.993   3.760   0.054 -0.2873 -0.2463 -0.1377
  146MOL    C5246742   1.860   3.833   0.020 -0.1184 -0.5856 -0.1977
  146MOL    C5346743   1.835   3.971   0.062  0.2702 -0.2721 -0.6042
  146MOL    C5446744   1.717   4.039   0.020 -0.9462  0.5387  0.0034
  146MOL    C5546745   1.628   3.978   8.043  0.2327 -0.4158  0.0568
  146MOL    C5646746   1.655   3.849   8.005 -0.3066 -0.2516 -0.8899
  146MOL    C5746747   1.766   3.776   8.050  0.4767 -0.0324  0.7291
  146MOL    H5846748   2.181   3.695   8.090 -0.8762  0.6951  2.5604
  146MOL    H5946749   2.035   3.674   7.989  0.3292 -0.0096 -0.1427
  146MOL    H6046750   2.041   3.832   0.121 -0.3520 -1.4918  1.2730
  146MOL    H6146751   1.900   4.024   0.130 -0.7869  1.0624 -0.6142
  146MOL    H6246752   1.695   4.139   0.056 -0.5890  0.9291 -0.8544
  146MOL    H6346753   1.545   4.039   8.011 -0.6967 -1.3576  0.6488
  146MOL    H6446754   1.591   3.798   7.934  1.3069 -0.0527 -2.5059
  146MOL    H6546755   1.790   3.680   8.008  0.3979  0.7228 -1.1052
  146MOL    C6646756   1.972   3.626   0.129 -0.1832  0.1257 -0.0962
  146MOL    C6746757   1.848   3.597   0.221  0.2538  0.6750  0.4010
  146MOL    C6846758   1.845   3.453   0.267  0.2071 -0.0559 -0.3657
  146MOL    C6946759   1.721   3.387   0.300  0.4548 -0.5250 -0.4117
  146MOL    C7046760   1.714   3.259   0.362 -1.2672 -0.0134 -1.3525
  146MOL    C7146761   1.835   3.187   0.379 -0.5934 -0.5004  0.0327
  146MOL    C7246762   1.955   3.241   0.340 -0.1921 -0.4259  0.4660
  146MOL    C7346763   1.961   3.378   0.294 -0.7385  0.2258  0.0817
  146MOL    H7446764   2.065   3.604   0.180 -0.3655 -2.8199 -0.9607
  146MOL    H7546765   1.979   3.538   0.064 -1.7521 -0.3657  0.3645
  146MOL    H7646766   1.765   3.608   0.151  0.4199 -0.0807  0.0794
  146MOL    H7746767   1.627   3.442   0.297 -0.0569 -1.4398 -1.6795
  146MOL    H7846768   1.619   3.213   0.384 -0.3452 -0.9309  0.8592
  146MOL    H7946769   1.838   3.090   0.427 -1.0533 -0.1416  0.8095
  146MOL    H8046770   2.052   3.195   0.355 -0.8694 -2.3371 -0.8260
  146MOL    H8146771   2.057   3.421   0.273 -0.6584  0.1054  0.1956
  146MOL    C8246772   1.843   3.698   0.338  0.3356 -0.4272  0.6362
  146MOL    C8346773   1.715   3.710   0.419  0.1804  0.3455  0.2447
  146MOL    C8446774   1.732   3.807   0.531 -0.5851 -0.7721 -0.0683
  146MOL    C8546775   1.720   3.753   0.665  0.5648  0.6119 -0.1526
  146MOL    C8646776   1.737   3.832   0.773  0.4124 -0.2037 -0.0882
  146MOL    C8746777   1.780   3.961   0.759  1.0099  0.1072 -0.2787
  146MOL    C8846778   1.790   4.022   0.632  0.6807  0.0139  0.3885
  146MOL    C8946779   1.760   3.946   0.518 -0.0443  0.5563  0.0350
  146MOL    H9046780   1.869   3.796   0.299  1.2985 -0.8740  0.1594
  146MOL    H9146781   1.920   3.666   0.408 -1.4676 -0.2511  2.7455
  146MOL    H9246782   1.693   3.610   0.457  2.2645 -0.8374 -1.5673
  146MOL    H9346783   1.706   3.648   0.682 -2.8536  1.1956  0.9031
  146MOL    H9446784   1.725   3.784   0.869 -0.1021  0.1647  0.0361
  146MOL    H9546785   1.806   4.017   0.848  0.5807  0.2295 -0.2278
  146MOL    H9646786   1.832   4.121   0.624 -0.4526  0.4107 -0.6334
  146MOL    H9746787   1.778   3.982   0.418  0.3996 -1.8174 -0.7617
  146MOL    C9846788   1.590   3.744   0.331 -0.1766  1.0075 -0.3968
  146MOL    C9946789   1.467   3.822   0.382  0.3818  0.0960  0.3670
  146MOL   C10046790   1.391   3.887   0.263  0.4188  0.4863 -0.1622
  146MOL   C10146791   1.341   3.812   0.155 -0.3385 -0.2297  0.2049
  146MOL   C10246792   1.267   3.873   0.051 -0.3421  0.3883 -0.5239
  146MOL   C10346793   1.239   4.008   0.052 -0.2193 -0.1674 -1.0370
  146MOL   C10446794   1.290   4.082   0.164 -0.0252 -0.2738 -0.0063
  146MOL   C10546795   1.359   4.023   0.268  0.2739 -0.2632 -0.1929
  146MOL   H10646796   1.561   3.658   0.270  0.4844  0.1700  0.4515
  146MOL   H10746797   1.618   3.810   0.248 -0.2920 -1.3148 -2.3410
  146MOL   H10846798   1.502   3.905   0.443  1.1874  1.3606 -1.7233
  146MOL   H10946799   1.353   3.705   0.155  0.8273 -0.0978  0.0346
  146MOL   H11046800   1.217   3.818   8.088  0.3413 -0.9430 -0.0346
  146MOL   H11146801   1.181   4.059   8.092 -1.4944  0.0748  0.0923
  146MOL   H11246802   1.279   4.189   0.165  2.3632  0.0005  0.3341
  146MOL   H11346803   1.382   4.079   0.358  0.1375  1.4610 -1.1912
  146MOL   C11446804   1.376   3.736   0.469  0.3503  0.9379 -0.3796
  146MOL   C11546805   1.332   3.802   0.604  0.1207 -0.3594  0.5032
  146MOL   C11646806   1.312   3.952   0.601 -0.0943  0.1912 -0.5947
  146MOL   C11746807   1.406   4.036   0.663 -0.3500  0.2706 -0.6415
  146MOL   C11846808   1.378   4.174   0.670  0.2693 -0.1478  0.4442
  146MOL   C11946809   1.257   4.226   0.618  0.4116  0.4154  0.1907
  146MOL   C12046810   1.164   4.143   0.558 -0.0966 -0.3886  0.1787
  146MOL   C12146811   1.189   4.006   0.547 -0.1933  0.1312 -0.0996
  146MOL   H12246812   1.436   3.650   0.500  0.4122  0.9803 -0.3821
  146MOL   H12346813   1.302   3.679   0.413 -0.9171  0.5000  1.6956
  146MOL   H12446814   1.412   3.794   0.678  0.4085  0.8867  0.3527
  146MOL   H12546815   1.498   3.993   0.701 -1.7397  0.6965  3.4426
  146MOL   H12646816   1.457   4.235   0.710  0.7300 -0.7150  0.3981
  146MOL   H12746817   1.246   4.332   0.606 -1.5423  0.0811 -1.2945
  146MOL   H12846818   1.086   4.191   0.501 -0.5557  0.4461  1.4687
  146MOL   H12946819   1.116   3.952   0.487  0.2674 -0.5651 -0.0416
  146MOL   C13046820   1.200   3.735   0.661 -0.0444  0.6451  0.2675
  146MOL   C13146821   1.208   3.587   0.710 -0.1503  0.5758  0.3937
  146MOL   C13246822   1.285   3.582   0.842 -0.1240  0.3230 -0.4098
  146MOL   C13346823   1.423   3.579   0.821  0.1770  0.9005 -0.4370
  146MOL   C13446824   1.507   3.584   0.931  0.6321 -0.4564 -0.0466
  146MOL   C13546825   1.452   3.588   1.057  0.3308  0.6849 -0.6029
  146MOL   C13646826   1.312   3.589   1.079  0.7871 -0.1572 -0.8208
  146MOL   C13746827   1.226   3.582   0.971 -1.0331  0.1974  0.3891
  146MOL   H13846828   1.124   3.742   0.583 -0.4586 -0.8666  0.5147
  146MOL   H13946829   1.169   3.777   0.756 -1.0717 -1.7316  1.0415
  146MOL   H14046830   1.268   3.528   0.641 -0.6498 -1.5150  1.6970
  146MOL   H14146831   1.466   3.575   0.722  2.2453 -3.2363  0.5179
  146MOL   H14246832   1.615   3.576   0.923  0.7997  2.0394 -0.4435
  146MOL   H14346833   1.523   3.613   1.135 -0.3642  1.1304 -0.1086
  146MOL   H14446834   1.268   3.604   1.176 -0.9853  0.6080 -1.7244
  146MOL   H14546835   1.118   3.582   0.984 -1.1187  1.6254 -0.1910
  146MOL   C14646836   1.077   3.510   0.736  0.0683 -0.0870 -0.1160
  146MOL   C14746837   1.017   3.473   0.595  0.1028 -0.2297 -0.5060
  146MOL   C14846838   1.119   3.403   0.493  0.4932 -0.1314  0.1236
  146MOL   C14946839   1.112   3.428   0.352 -1.0235 -0.5391 -0.8355
  146MOL   C15046840   1.198   3.358   0.264 -0.8861 -0.2587  0.2969
  146MOL   C15146841   1.290   3.258   0.309  0.0137 -0.5344 -0.7973
  146MOL   C15246842   1.284   3.229   0.449  0.2988 -0.0663  0.2861
  146MOL   C15346843   1.201   3.297   0.540  0.0488 -0.0325  0.7790
  146MOL   H15446844   1.014   3.582   0.788  1.8592  1.3761  0.1151
  146MOL   H15546845   1.089   3.419   0.795  1.2353 -0.1624 -0.4436
  146MOL   H15646846   0.992   3.566   0.544  1.6957  0.6751  0.3583
  146MOL   H15746847   1.047   3.500   0.305 -0.4006 -0.7418 -2.0364
  146MOL   H15846848   1.194   3.384   0.159  1.7829  0.8446  0.4388
  146MOL   H15946849   1.365   3.222   0.241  0.4636  0.8879 -1.0819
  146MOL   H16046850   1.349   3.153   0.490  2.3925  1.9459  0.8330
  146MOL   H16146851   1.202   3.279   0.646  1.6907  0.4671  0.8617
  146MOL   C16246852   0.884   3.394   0.601 -0.2366 -0.2548 -0.8896
  146MOL   C16346853   0.798   3.413   0.475  0.7051  0.1772 -0.5880
  146MOL   C16446854   0.735   3.282   0.427  0.7060 -0.0061  0.8265
  146MOL   C16546855   0.667   3.198   0.516 -0.3395  0.1713  0.0131
  146MOL   C16646856   0.607   3.088   0.456  0.0946 -0.2370  0.0794
  146MOL   C16746857   0.622   3.056   0.316 -0.0240  0.1419 -0.2914
  146MOL   C16846858   0.691   3.134   0.232  0.2580  0.7681 -0.1555
  146MOL   C16946859   0.748   3.254   0.289 -0.2336  0.2203 -0.1740
  146MOL   H17046860   0.841   3.426   0.696 -0.2960 -2.3804 -0.1785
  146MOL   H17146861   0.900   3.289   0.624 -0.5583  0.2092  1.5931
  146MOL   H17246862   0.852   3.451   0.388  1.0748 -0.6221 -0.7107
  146MOL   H17346863   0.640   3.225   0.617 -0.6446  1.3083 -0.3631
  146MOL   H17446864   0.547   3.018   0.512  1.8949 -1.6226  0.3512
  146MOL   H17546865   0.577   2.973   0.264 -1.6938 -0.4276  1.9785
  146MOL   H17646866   0.701   3.098   0.131  0.2257  0.4319 -0.0406
  146MOL   H17746867   0.808   3.311   0.220  0.2198 -0.7254 -0.5811
  146MOL   C17846868   0.681   3.513   0.495  0.6616 -0.2136  0.1456
  146MOL   C17946869   0.718   3.663   0.501  0.3281 -0.6593 -0.3930
  146MOL   C18046870   0.782   3.709   0.372  0.0330 -0.6792  0.3091
  146MOL   C18146871   0.740   3.666   0.240 -0.0320 -0.9000  0.1940
  146MOL   C18246872   0.814   3.711   0.128 -0.3579 -0.7161  0.3382
  146MOL   C18346873   0.934   3.789   0.139  0.7430 -0.7587 -0.2651
  146MOL   C18446874   0.981   3.811   0.275  0.7039  0.1344 -0.2555
  146MOL   C18546875   0.903   3.782   0.384  0.6661 -0.4581 -0.0601
  146MOL   H18646876   0.642   3.491   0.595 -0.5497 -2.3165 -0.7690
  146MOL   H18746877   0.602   3.506   0.420 -0.2268  1.2859  0.9070
  146MOL   H18846878   0.794   3.670   0.579  1.2026  0.6534 -1.3325
  146MOL   H18946879   0.644   3.618   0.227 -1.5973  2.7358 -2.5347
  146MOL   H19046880   0.771   3.690   0.031 -2.5957  3.0633  0.4337
  146MOL   H19146881   0.989   3.805   0.047 -0.5069  2.5530 -0.4839
  146MOL   H19246882   1.078   3.854   0.295  0.7300 -0.8332  1.6934
  146MOL   H19346883   0.947   3.791   0.483 -0.5427 -0.6601  0.5026
  146MOL   C19446884   0.602   3.752   0.541 -0.9106  0.3326  0.4781
  146MOL   C19546885   0.552   3.727   0.684  0.6286  0.0930 -0.0660
  146MOL   C19646886   0.664   3.739   0.790 -0.3099 -0.5803  0.1511
  146MOL   C19746887   0.667   3.647   0.899 -0.0423  0.3551 -0.1880
  146MOL   C19846888   0.781   3.636   0.988  0.5429 -0.2487  0.5007
  146MOL   C19946889   0.886   3.725   0.971 -0.1169 -0.0146  0.0731
  146MOL   C20046890   0.877   3.835   0.875 -0.1229 -0.1942 -0.2634
  146MOL   C20146891   0.763   3.836   0.781 -0.2030  0.0484  0.4580
  146MOL   H20246892   0.514   3.741   0.477 -0.6432  2.8389 -0.3571
  146MOL   H20346893   0.636   3.855   0.541 -1.4528  0.5316  1.9076
  146MOL   H20446894   0.509   3.628   0.687 -2.2681  1.3661  2.2153
  146MOL   H20546895   0.586   3.577   0.914  0.4393 -0.0370  0.5990
  146MOL   H20646896   0.774   3.567   1.071 -0.2094 -0.9586 -0.1483
  146MOL   H20746897   0.979   3.729   1.026  0.2908  1.7933 -0.7152
  146MOL   H20846898   0.962   3.899   0.859  1.9650 -2.7576  0.2060
  146MOL   H20946899   0.772   3.895   0.691 -1.4551  2.1053  1.6383
  146MOL   C21046900   0.441   3.825   0.722  0.4503 -0.0248  0.7877
  146MOL   C21146901   0.304   3.807   0.640 -0.6052  0.2066 -0.8599
  146MOL   C21246902   0.249   3.668   0.631  0.0310  0.3284  0.5635
  146MOL   C21346903   0.239   3.610   0.505  0.1174 -0.2624 -0.1568
  146MOL   C21446904   0.178   3.489   0.484 -0.0631  0.0109  0.1574
  146MOL   C21546905   0.136   3.414   0.599 -0.0093  0.3473  0.2038
  146MOL   C21646906   0.165   3.456   0.729  0.7632  0.2797  0.4850
  146MOL   C21746907   0.218   3.588   0.745 -0.1585  0.6053  0.3612
  146MOL   H21846908   0.481   3.926   0.712  2.6359 -0.5412  3.6553
  146MOL   H21946909   0.417   3.809   0.827 -0.8615 -0.9591  0.3637
  146MOL   H22046910   0.322   3.834   0.536 -0.6887 -0.8281 -1.1438
  146MOL   H22146911   0.279   3.659   0.417  0.6520 -0.0591  0.1980
  146MOL   H22246912   0.168   3.457   0.382  2.6859 -0.1901 -0.0737
  146MOL   H22346913   0.094   3.315   0.589 -0.5803  0.4727  1.2352
  146MOL   H22446914   0.139   3.393   0.813  0.1538 -0.2205 -0.0799
  146MOL   H22546915   0.226   3.625   0.846  3.7680  0.5119  0.1656
  146MOL   C22646916   0.199   3.915   0.686 -0.5118  0.7361 -0.7875
  146MOL   C22746917   0.060   3.912   0.619 -0.6291 -0.1643 -0.8228
  146MOL   C22846918   8.071   3.999   0.692 -0.5527  0.3682 -0.0298
  146MOL   C22946919   7.931   3.988   0.671  0.1298 -0.0918 -0.1171
  146MOL   C23046920   7.837   4.053   0.754 -0.5149  0.7395  0.9072
  146MOL   C23146921   7.875   4.138   0.858 -0.4425  0.2476 -0.4037
  146MOL   C23246922   8.012   4.140   0.889  0.0429  0.2667  0.0499
  146MOL   C23346923   8.107   4.085   0.802  0.6509 -0.0913  0.4657
  146MOL   H23446924   0.253   4.009   0.672  1.5088 -0.3178 -0.2244
  146MOL   H23546925   0.185   3.916   0.795  0.6502  1.8439 -0.6306
  146MOL   H23646926   0.020   3.811   0.621  2.2225 -1.3545 -0.9698
  146MOL   H23746927   7.891   3.924   0.593 -0.7165  1.6506 -1.1399
  146MOL   H23846928   7.736   4.038   0.718  0.2259  0.3636 -1.0806
  146MOL   H23946929   7.802   4.184   0.923  0.2169 -0.0177  0.5185
  146MOL   H24046930   8.058   4.207   0.960  0.4019 -1.1448  1.1810
  146MOL   H24146931   0.092   4.114   0.831 -0.0863  4.3652 -1.0666
  146MOL   C24246932   0.063   3.914   0.469 -0.1296 -1.1752 -0.8056
  146MOL   C24346933   0.136   4.040   0.401  1.0989 -0.7501 -0.0559
  146MOL   C24446934   0.277   4.007   0.374  0.5679  0.2692  0.2306
  146MOL   C24546935   0.384   4.074   0.432  0.2428 -0.2556 -0.0589
  146MOL   C24646936   0.516   4.046   0.384 -0.2596  0.1996 -0.0647
  146MOL   C24746937   0.539   3.963   0.275 -0.7080  0.1042  0.3575
  146MOL   C24846938   0.430   3.895   0.221  0.3606  0.6027 -0.1673
  146MOL   C24946939   0.298   3.906   0.271 -0.3228  0.2204  0.7463
  146MOL   H25046940   8.075   3.913   0.432  0.5599 -1.9207 -2.7753
  146MOL   H25146941   0.106   3.823   0.426 -1.4582 -1.4663 -1.5344
  146MOL   H25246942   0.144   4.123   0.471  1.7871 -1.0885  0.2636
  146MOL   H25346943   0.380   4.144   0.514 -0.6537 -2.7329  2.0754
  146MOL   H25446944   0.600   4.096   0.429  0.9433 -2.4442  0.7131
  146MOL   H25546945   0.637   3.945   0.234 -1.7010 -0.0773 -2.0873
  146MOL   H25646946   0.444   3.831   0.135 -3.1185  1.2844 -1.3092
  146MOL   H25746947   0.208   3.874   0.222  0.8014  2.0230 -2.6717
  146MOL   C25846948   0.069   4.103   0.273 -0.0583 -0.0371 -0.5098
  146MOL   C25946949   8.055   4.190   0.298 -0.0152  0.2489 -0.2558
  146MOL   C26046950   8.078   4.317   0.392  0.1027 -0.0683 -0.0392
  146MOL   C26146951   8.009   4.327   0.512  0.1825  0.4389 -0.6576
  146MOL   C26246952   8.008   4.447   0.584 -0.5358  0.0895 -0.5788
  146MOL   C26346953   8.088   4.557   0.548 -0.4076 -0.2858  0.2933
  146MOL   C26446954   0.054   4.546   0.435 -0.1772 -0.4722  0.1497
  146MOL   C26546955   0.048   4.428   0.357  0.9424 -0.5288  0.0137
  146MOL   H26646956   0.034   4.030   0.200 -0.6632  0.2093 -0.4704
  146MOL   H26746957   0.145   4.151   0.211  1.3818 -1.4198  0.1456
  146MOL   H26846958   7.983   4.121   0.342 -0.2794  0.9371  0.4088
  146MOL   H26946959   7.941   4.250   0.544  0.2827  0.9134  0.7172
  146MOL   H27046960   7.948   4.447   0.674  0.9929  0.6534  0.4669
  146MOL   H27146961   8.090   4.648   0.605 -1.4923  0.7688 -1.2984
  146MOL   H27246962   0.125   4.622   0.407 -1.0470 -0.1302 -1.1569
  146MOL   H27346963   0.095   4.430   0.259 -0.6963  2.3895 -0.7498
  146MOL   C27446964   8.004   4.250   0.157 -0.5281  0.6226 -0.7300
  146MOL   C27546965   7.930   4.165   0.061  0.2372 -0.0607 -0.2352
  146MOL   C27646966   7.803   4.096   0.116 -0.4745  0.7401 -0.0257
  146MOL   C27746967   7.704   4.167   0.181  0.6092 -0.5011  0.9973
  146MOL   C27846968   7.604   4.099   0.256  0.6205 -0.3347  0.0473
  146MOL   C27946969   7.602   3.956   0.261 -0.1721 -0.3050  0.3417
  146MOL   C28046970   7.694   3.885   0.179  0.0681  0.9508  0.1563
  146MOL   C28146971   7.797   3.955   0.108 -0.4331  0.4225 -0.4564
  146MOL   H28246972   8.078   4.303   0.097 -1.9247  0.6712 -2.4413
  146MOL   H28346973   7.939   4.336   0.172 -0.6067  0.4073  0.2444
  146MOL   H28446974   7.990   4.077   0.035  0.8421  0.0303  0.8234
  146MOL   H28546975   7.690   4.274   0.182 -2.6385 -0.8765  1.5953
  146MOL   H28646976   7.533   4.160   0.309  1.3616  1.7024 -1.2351
  146MOL   H28746977   7.515   3.908   0.304 -2.4443  2.4917 -0.9376
  146MOL   H28846978   7.700   3.777   0.179  1.0673  0.9914  1.9318
  146MOL   H28946979   7.867   3.895   0.053 -0.3928  0.6597 -0.6665
  146MOL   C29046980   7.917   4.246   8.039  0.3274 -0.6335  0.2986
  146MOL   C29146981   7.871   4.166   7.912  0.8367 -0.3507 -0.2661
  146MOL   C29246982   7.821   4.262   7.800  0.8909 -0.2999 -0.3711
  146MOL   C29346983   7.707   4.221   7.735 -0.2312  0.6001 -0.0412
  146MOL   C29446984   7.665   4.297   7.625 -0.2286 -0.0978  0.4424
  146MOL   C29546985   7.740   4.412   7.578  0.5201  0.0048 -0.0012
  146MOL   C29646986   7.854   4.455   7.652 -0.5382 -0.4333 -0.5258
  146MOL   C29746987   7.901   4.377   7.762  0.0261 -0.3476  0.6152
  146MOL   H29846988   7.997   4.318   8.023 -1.2992  0.7583 -1.7977
  146MOL   H29946989   7.845   4.327   8.051  0.5125 -0.7538  2.3746
  146MOL   H30046990   7.782   4.108   7.937  1.2909 -1.3309 -0.8992
  146MOL   H30146991   7.649   4.138   7.773  2.7957 -0.5004  2.3150
  146MOL   H30246992   7.588   4.254   7.563  0.6916 -1.7869  0.4442
  146MOL   H30346993   7.711   4.459   7.485 -1.0646 -4.0775 -1.6882
  146MOL   H30446994   7.924   4.534   7.631  0.3325 -1.5118 -1.7625
  146MOL   H30546995   7.993   4.404   7.814  1.1745 -1.7364 -0.6644
  146MOL   C30646996   7.975   4.062   7.870  0.1066  0.6572  0.1834
  146MOL   C30746997   0.009   4.105   7.854  0.1821 -0.4438  0.1300
  146MOL   C30846998   0.102   3.987   7.861  0.3458  0.5363 -0.6880
  146MOL   C30946999   0.165   3.957   7.982  0.1989 -0.5534 -0.4090
  146MOL   C31047000   0.254   3.850   7.994  0.4889 -0.1659  0.2341
  146MOL   C31147001   0.275   3.765   7.880  0.3026 -0.2415  0.3434
  146MOL   C31247002   0.211   3.795   7.757  0.0951 -0.0809 -0.4050
  146MOL   C31347003   0.130   3.912   7.749  0.5077  0.4224  0.2843
  146MOL   H31447004   7.945   4.008   7.780 -2.9012 -1.5013  2.3383
  146MOL   H31547005   7.973   3.980   7.942 -1.1251 -0.8977 -1.5441
  146MOL   H31647006   0.034   4.168   7.939 -0.9407 -0.5877  0.5840
  146MOL   H31747007   0.150   4.015   8.072 -0.5494 -0.4882 -0.5672
  146MOL   H31847008   0.288   3.833   8.095 -0.6450  1.3267  0.8944
  146MOL   H31947009   0.325   3.669   7.879  0.3569 -0.2138  0.4175
  146MOL   H32047010   0.226   3.729   7.673  1.9895 -2.0098  1.3760
  146MOL   H32147011   0.074   3.931   7.658 -0.0354  2.2149  0.9625
  146MOL   H32247012   0.026   4.164   7.764 -0.7471 -0.3536  0.0077
  147MOL     C147013   2.273   0.441   3.449  0.4543 -0.9073 -0.5580
  147MOL     C247014   2.384   0.359   3.382 -0.2880  0.8212  0.1174
  147MOL     C347015   2.326   0.259   3.282 -0.2024  0.5153 -0.6271
  147MOL     C447016   2.370   0.254   3.147 -0.1153  0.5678  0.1652
  147MOL     C547017   2.318   0.149   3.063 -0.6328 -0.2563 -0.0293
  147MOL     C647018   2.226   0.062   3.114  0.0811 -0.5883  0.7480
  147MOL     C747019   2.193   0.059   3.248 -0.0674  0.0652  0.0619
  147MOL     C847020   2.243   0.155   3.333 -0.3243 -0.1233 -0.1797
  147MOL     H947021   2.226   0.518   3.387 -0.1659 -0.6759  0.1838
  147MOL    H1047022   2.198   0.378   3.498  0.1622  0.2648  0.5392
  147MOL    H1147023   2.435   0.287   3.447  1.0752  1.2450 -0.4745
  147MOL    H1247024   2.420   0.335   3.096 -0.8089  0.7226 -0.2704
  147MOL    H1347025   2.341   0.153   2.958 -0.7053  1.5856  0.0129
  147MOL    H1447026   2.183   8.096   3.057  0.2960  0.3466 -0.7589
  147MOL    H1547027   2.138   8.091   3.290  2.0308 -1.1843  0.3873
  147MOL    H1647028   2.216   0.147   3.437 -0.9064  2.2435 -0.1112
  147MOL    H1747029   2.304   0.510   3.528  1.2279 -2.6783  0.7198
  147MOL    C1847030   2.480   0.465   3.303  0.6567  0.1700 -0.1744
  147MOL    C1947031   2.578   0.560   3.387 -0.0196  0.6017  0.3108
  147MOL    C2047032   2.641   0.494   3.510  0.1423 -0.3601  0.1435
  147MOL    C2147033   2.729   0.385   3.497 -0.1085  0.7003 -0.0741
  147MOL    C2247034   2.785   0.325   3.612  0.6313  0.1913  0.1896
  147MOL    C2347035   2.761   0.367   3.738  0.9134 -0.4926 -0.1750
  147MOL    C2447036   2.681   0.480   3.748 -0.5165  0.0809 -0.2638
  147MOL    C2547037   2.625   0.551   3.640 -0.0290  0.1993 -0.3127
  147MOL    H2647038   2.422   0.524   3.232 -1.6348 -0.1197  1.3640
  147MOL    H2747039   2.553   0.400   3.256  1.7511  2.5849 -1.8814
  147MOL    H2847040   2.510   0.637   3.424 -1.4650 -0.6541  0.3362
  147MOL    H2947041   2.762   0.353   3.399 -0.9696 -0.9053  0.1403
  147MOL    H3047042   2.852   0.240   3.605 -0.6750 -0.9708  1.6897
  147MOL    H3147043   2.786   0.311   3.828 -2.4349 -1.9390 -0.0767
  147MOL    H3247044   2.648   0.518   3.844 -1.5007 -2.3010  0.3842
  147MOL    H3347045   2.571   0.643   3.658  1.9839  1.1992  0.7136
  147MOL    C3447046   2.683   0.643   3.306 -0.4740  0.4617 -0.0501
  147MOL    C3547047   2.612   0.727   3.196  0.1749  0.2948  0.1525
  147MOL    C3647048   2.513   0.841   3.251  0.1546 -0.7325  0.2706
  147MOL    C3747049   2.380   0.846   3.199 -0.5909  0.4004  0.1887
  147MOL    C3847050   2.302   0.956   3.229 -0.2230 -0.2080  0.0493
  147MOL    C3947051   2.347   1.063   3.306 -0.1896  0.1276 -0.6950
  147MOL    C4047052   2.473   1.052   3.364 -0.5127  0.3304  0.4805
  147MOL    C4147053   2.560   0.944   3.333  0.2501 -0.0369 -0.0434
  147MOL    H4247054   2.747   0.578   3.247 -0.8089  0.6073 -0.5806
  147MOL    H4347055   2.737   0.706   3.376 -1.2568 -0.8711  1.8029
  147MOL    H4447056   2.551   0.661   3.134  2.2157 -0.0873 -1.4853
  147MOL    H4547057   2.341   0.777   3.125  1.5326 -0.0198 -0.5668
  147MOL    H4647058   2.201   0.960   3.190 -0.2779 -0.1402  0.2000
  147MOL    H4747059   2.273   1.137   3.334 -0.7214  0.6222 -3.2304
  147MOL    H4847060   2.506   1.129   3.433 -0.0916  0.2680  0.3498
  147MOL    H4947061   2.661   0.950   3.370 -0.4316  1.3835  1.6437
  147MOL    C5047062   2.710   0.779   3.093 -0.5221  0.1780  0.2347
  147MOL    C5147063   2.783   0.671   3.009  0.3212  0.1660 -0.2997
  147MOL    C5247064   2.689   0.570   2.940 -0.1078  0.5909  0.8287
  147MOL    C5347065   2.697   0.433   2.963 -0.6115  0.7778 -0.1541
  147MOL    C5447066   2.621   0.338   2.902 -0.5189  0.4524  0.7421
  147MOL    C5547067   2.514   0.390   2.824  0.0060  0.4628  0.0775
  147MOL    C5647068   2.500   0.526   2.791  0.9736  0.0325  0.6041
  147MOL    C5747069   2.587   0.614   2.850  0.5260  0.0020  0.2121
  147MOL    H5847070   2.774   0.855   3.138  0.7644  0.2727 -1.6838
  147MOL    H5947071   2.647   0.834   3.022  0.3016  0.2732 -0.4285
  147MOL    H6047072   2.867   0.637   3.068 -0.1604 -2.1279 -0.8902
  147MOL    H6147073   2.764   0.391   3.037  0.0850  2.3071  0.1226
  147MOL    H6247074   2.634   0.234   2.926 -2.3455  0.0738  0.1458
  147MOL    H6347075   2.448   0.316   2.783 -0.1461  0.2431  0.7104
  147MOL    H6447076   2.432   0.554   2.713 -0.5418 -0.1114  1.8525
  147MOL    H6547077   2.580   0.719   2.829  1.8850  0.1513  0.4385
  147MOL    C6647078   2.859   0.758   2.894  0.1848  0.7015  0.0623
  147MOL    C6747079   2.928   0.680   2.773  0.6291 -0.3529  0.8326
  147MOL    C6847080   2.956   0.774   2.654 -0.3409  0.1782  0.0245
  147MOL    C6947081   3.024   0.897   2.673 -0.2167  0.2898  0.0909
  147MOL    C7047082   3.053   0.977   2.559  0.5636  0.2093  0.1012
  147MOL    C7147083   3.007   0.936   2.435  0.4558 -0.0005  0.4976
  147MOL    C7247084   2.928   0.826   2.421  0.0541  0.0147  0.7691
  147MOL    C7347085   2.901   0.742   2.525 -0.4329 -0.1274  0.0033
  147MOL    H7447086   2.931   0.821   2.946 -0.4054  0.8053  0.7516
  147MOL    H7547087   2.797   0.836   2.850  1.4967  1.7356  0.0078
  147MOL    H7647088   2.856   0.608   2.734  0.0519 -0.0367  1.3131
  147MOL    H7747089   3.054   0.933   2.771  1.0044 -1.2023  0.2804
  147MOL    H7847090   3.107   1.071   2.562  1.6142 -0.4091  3.2090
  147MOL    H7947091   3.026   0.993   2.345  2.1233 -0.9143  0.2534
  147MOL    H8047092   2.880   0.820   2.324  0.9909 -0.2367  0.3166
  147MOL    H8147093   2.855   0.646   2.505  0.2753  0.2069 -3.5534
  147MOL    C8247094   3.062   0.599   2.815  0.1309 -0.2312 -1.1527
  147MOL    C8347095   3.136   0.539   2.696 -0.7494 -0.4054  0.1936
  147MOL    C8447096   3.281   0.491   2.746 -0.0703 -0.1556 -0.0723
  147MOL    C8547097   3.318   0.366   2.791 -0.1030 -0.3666 -0.7071
  147MOL    C8647098   3.452   0.339   2.823 -0.7238 -0.3924 -0.2866
  147MOL    C8747099   3.550   0.441   2.814  0.1257 -0.8708  0.0865
  147MOL    C8847100   3.517   0.569   2.765  0.3181  0.1768  0.4067
  147MOL    C8947101   3.386   0.592   2.725  0.0034 -0.0102 -0.4154
  147MOL    H9047102   3.042   0.513   2.879  0.6535  0.8741  0.5177
  147MOL    H9147103   3.117   0.676   2.869 -0.0595  0.1660 -1.5262
  147MOL    H9247104   3.156   0.608   2.614  2.4350  0.2062  1.3973
  147MOL    H9347105   3.246   0.286   2.799  0.3266 -0.5852  1.3554
  147MOL    H9447106   3.486   0.246   2.868 -1.6985  0.1984  1.7297
  147MOL    H9547107   3.651   0.416   2.842  0.7931 -0.9616 -2.3116
  147MOL    H9647108   3.577   0.659   2.764  1.7291 -0.5887  4.5471
  147MOL    H9747109   3.366   0.695   2.700  2.9149  0.6153 -0.3512
  147MOL    C9847110   3.062   0.421   2.633 -0.0321 -0.0594 -0.4325
  147MOL    C9947111   3.136   0.364   2.510  0.4480  0.3395 -0.7130
  147MOL   C10047112   3.107   0.218   2.504 -0.6930  0.1083  0.4860
  147MOL   C10147113   2.986   0.158   2.468  0.0898  0.2004  0.2808
  147MOL   C10247114   2.964   0.018   2.461  0.4180  0.0760 -0.7667
  147MOL   C10347115   3.073   8.052   2.491  0.3909  0.5285  0.4451
  147MOL   C10447116   3.193   8.108   2.536 -0.3924 -0.0902 -1.1328
  147MOL   C10547117   3.216   0.129   2.533 -0.7528 -0.0348 -0.2716
  147MOL   H10647118   2.958   0.431   2.602 -0.8215 -1.2098  1.7229
  147MOL   H10747119   3.043   0.346   2.710  1.4533  0.3936  0.3941
  147MOL   H10847120   3.244   0.365   2.526  0.2330 -0.7960  0.8762
  147MOL   H10947121   2.910   0.233   2.452  1.6224  1.4679 -1.1568
  147MOL   H11047122   2.878   8.089   2.412 -0.3054 -1.6244  1.8612
  147MOL   H11147123   3.065   7.944   2.481  0.1805  0.5934 -0.0561
  147MOL   H11247124   3.277   8.044   2.557 -1.2960 -0.3710  1.9067
  147MOL   H11347125   3.312   0.173   2.555 -0.0840 -0.0458 -2.9529
  147MOL   C11447126   3.113   0.432   2.377  0.3578  0.6541 -0.1842
  147MOL   C11547127   3.180   0.370   2.248 -0.2030 -0.2054  0.0896
  147MOL   C11647128   3.077   0.337   2.143  0.4585  0.1491  0.4969
  147MOL   C11747129   3.035   0.441   2.069  0.5341 -0.2539  0.4143
  147MOL   C11847130   2.953   0.423   1.956  0.3275  0.1927  0.3447
  147MOL   C11947131   2.912   0.296   1.919 -0.0913  0.1476  0.4135
  147MOL   C12047132   2.953   0.186   1.995  0.1062  0.6760  0.1002
  147MOL   C12147133   3.033   0.205   2.114 -0.0841 -0.1326 -0.5957
  147MOL   H12247134   3.154   0.530   2.399 -0.7156  1.0540  0.0761
  147MOL   H12347135   3.007   0.452   2.363  0.6051  0.9584 -1.6252
  147MOL   H12447136   3.228   0.275   2.275  0.0984  0.0295  0.3817
  147MOL   H12547137   3.052   0.543   2.101 -2.0794  0.8968 -1.7189
  147MOL   H12647138   2.926   0.513   1.903 -0.3321 -0.0534  0.2523
  147MOL   H12747139   2.858   0.285   1.826 -2.0994  2.7946  1.2090
  147MOL   H12847140   2.940   0.085   1.959  1.1191  1.1781 -1.7237
  147MOL   H12947141   3.073   0.123   2.173  0.6249 -1.0143 -2.2706
  147MOL   C13047142   3.284   0.469   2.200 -0.2994 -0.2041  0.1161
  147MOL   C13147143   3.411   0.486   2.281 -0.1312 -0.3026  0.3486
  147MOL   C13247144   3.486   0.358   2.325  0.1571 -0.2780  0.4701
  147MOL   C13347145   3.518   0.340   2.461  1.0061  0.3222  0.4798
  147MOL   C13447146   3.597   0.231   2.498 -0.5338  1.0324 -0.4301
  147MOL   C13547147   3.659   0.144   2.399  1.1145 -0.3827  0.0893
  147MOL   C13647148   3.620   0.156   2.265  0.0444 -0.1592 -0.3464
  147MOL   C13747149   3.530   0.260   2.226 -0.5939 -0.3784  0.0612
  147MOL   H13847150   3.242   0.570   2.196 -1.1018 -0.4064  2.6918
  147MOL   H13947151   3.307   0.432   2.100 -1.1319  0.3564 -0.2950
  147MOL   H14047152   3.376   0.526   2.376 -1.1502  0.7003 -0.4343
  147MOL   H14147153   3.479   0.405   2.538 -0.1988  0.2560 -0.0659
  147MOL   H14247154   3.631   0.215   2.599 -0.7987  0.3211 -0.4501
  147MOL   H14347155   3.728   0.065   2.425  0.7213 -0.5205  0.7258
  147MOL   H14447156   3.658   0.076   2.203 -0.5228 -0.2917 -0.5229
  147MOL   H14547157   3.501   0.272   2.123 -3.3507 -0.6478  0.7513
  147MOL   C14647158   3.516   0.578   2.221  0.1863  0.7308 -0.0972
  147MOL   C14747159   3.465   0.720   2.173  0.2725  0.3746 -0.2692
  147MOL   C14847160   3.458   0.826   2.280  0.0363  0.0135  0.8308
  147MOL   C14947161   3.383   0.941   2.247 -0.2016 -0.2814 -0.0770
  147MOL   C15047162   3.383   1.053   2.340  0.3411  0.1707 -0.4923
  147MOL   C15147163   3.440   1.038   2.470 -0.1443 -0.1993  0.2752
  147MOL   C15247164   3.499   0.913   2.507  0.7531 -0.3646 -0.7642
  147MOL   C15347165   3.502   0.808   2.414 -0.0629 -0.8682  0.5317
  147MOL   H15447166   3.554   0.531   2.131  1.0916  1.2459  0.0052
  147MOL   H15547167   3.608   0.577   2.279 -0.6117 -0.2624  1.1634
  147MOL   H15647168   3.363   0.718   2.136 -0.2429 -1.2860  1.1779
  147MOL   H15747169   3.341   0.951   2.148  1.1979  2.1167 -0.4961
  147MOL   H15847170   3.337   1.145   2.305  2.2615  1.2297 -0.2991
  147MOL   H15947171   3.426   1.109   2.550  1.4564 -1.0881  1.3567
  147MOL   H16047172   3.547   0.892   2.601  2.1499 -0.0692 -1.3957
  147MOL   H16147173   3.553   0.721   2.453 -0.3265 -0.3577  2.0639
  147MOL   C16247174   3.556   0.767   2.056 -0.4143  0.5624  0.6345
  147MOL   C16347175   3.517   0.712   1.914  0.8970  0.4946 -0.3010
  147MOL   C16447176   3.393   0.789   1.868  0.1976  0.3401 -0.0385
  147MOL   C16547177   3.261   0.738   1.882  0.3708 -0.4063 -0.4749
  147MOL   C16647178   3.157   0.813   1.828 -0.1980 -0.2230 -0.1810
  147MOL   C16747179   3.178   0.939   1.779  0.6466 -0.1440 -0.1007
  147MOL   C16847180   3.303   0.991   1.762 -0.1715 -0.5582 -0.2016
  147MOL   C16947181   3.410   0.908   1.803  0.0410 -0.3416  0.8867
  147MOL   H17047182   3.662   0.748   2.075 -0.8679 -1.3936  1.3096
  147MOL   H17147183   3.563   0.876   2.055  1.3645  0.4626  0.4318
  147MOL   H17247184   3.492   0.606   1.925 -0.8770  1.1763  2.8136
  147MOL   H17347185   3.248   0.642   1.930 -0.8273  0.7313  1.5597
  147MOL   H17447186   3.058   0.770   1.829  0.5326 -1.9687 -0.8417
  147MOL   H17547187   3.097   1.006   1.755  2.1533  1.7346 -0.0263
  147MOL   H17647188   3.321   1.088   1.718 -0.1868 -0.6739 -0.4624
  147MOL   H17747189   3.507   0.951   1.780 -0.5890  0.2130 -0.8556
  147MOL   C17847190   3.632   0.718   1.814 -0.3760 -0.7971 -0.3857
  147MOL   C17947191   3.596   0.677   1.666  0.3517  0.1690  0.3190
  147MOL   C18047192   3.712   0.712   1.568 -0.0832 -0.3272  0.6741
  147MOL   C18147193   3.845   0.675   1.598 -0.1491 -0.5619 -0.5564
  147MOL   C18247194   3.946   0.719   1.511  0.1569  0.1750 -0.0893
  147MOL   C18347195   3.915   0.782   1.394  0.1241 -0.3377 -0.3188
  147MOL   C18447196   3.786   0.806   1.355 -0.0125 -0.8241 -0.5348
  147MOL   C18547197   3.688   0.776   1.449  0.5938  0.2833  0.2008
  147MOL   H18647198   3.710   0.647   1.839  1.4172  0.7547 -1.4628
  147MOL   H18747199   3.670   0.820   1.806 -2.5279  0.3565  2.8322
  147MOL   H18847200   3.513   0.743   1.641 -1.0006 -1.2858  0.8517
  147MOL   H18947201   3.869   0.622   1.688  2.1329  0.0269 -0.7726
  147MOL   H19047202   4.050   0.716   1.539  0.0998 -0.3847  0.0672
  147MOL   H19147203   3.988   0.819   1.324 -0.4868  0.2654 -0.6432
  147MOL   H19247204   3.752   0.847   1.261 -1.9885  0.8833  0.8602
  147MOL   H19347205   3.588   0.794   1.414  1.5107 -0.2764 -2.8425
  147MOL   C19447206   3.541   0.529   1.646 -0.3590 -0.1833 -0.6725
  147MOL   C19547207   3.395   0.529   1.605  0.4713  0.1808  0.1546
  147MOL   C19647208   3.376   0.594   1.475 -0.2481 -0.1615  1.1366
  147MOL   C19747209   3.299   0.713   1.466  0.4480  0.3672  0.1082
  147MOL   C19847210   3.269   0.771   1.344  0.4202  0.5293 -0.3674
  147MOL   C19947211   3.311   0.710   1.228  0.2450 -0.2628 -0.0380
  147MOL   C20047212   3.397   0.603   1.232 -0.4217  0.0439 -0.8360
  147MOL   C20147213   3.440   0.544   1.355 -0.0964 -0.0751 -0.2827
  147MOL   H20247214   3.563   0.458   1.726 -0.2245  0.4033 -0.1924
  147MOL   H20347215   3.599   0.477   1.570  1.2212  2.7610 -1.5514
  147MOL   H20447216   3.338   0.583   1.681  0.1219  0.9849 -0.6737
  147MOL   H20547217   3.272   0.773   1.552  0.5873  0.4407  0.1003
  147MOL   H20647218   3.214   0.863   1.331  0.7333  0.6118 -1.1591
  147MOL   H20747219   3.283   0.751   1.132  0.2454  0.6710  0.3575
  147MOL   H20847220   3.432   0.575   1.134 -2.9165  0.2788 -1.8138
  147MOL   H20947221   3.496   0.452   1.363 -2.3835 -1.5798 -1.1111
  147MOL   C21047222   3.332   0.391   1.612 -0.0470  0.0644  0.0682
  147MOL   C21147223   3.189   0.373   1.559  0.7590  0.6073  0.3134
  147MOL   C21247224   3.146   0.224   1.560 -0.2492  0.0725 -0.1587
  147MOL   C21347225   3.118   0.159   1.681  0.3533  0.2401  0.0715
  147MOL   C21447226   3.085   0.022   1.676 -0.2277 -0.1066 -0.8458
  147MOL   C21547227   3.089   8.061   1.551 -0.7334 -0.5198 -0.1791
  147MOL   C21647228   3.129   0.012   1.436 -0.8055  0.6426 -0.5546
  147MOL   C21747229   3.154   0.151   1.443  0.3326  0.0166 -0.1765
  147MOL   H21847230   3.329   0.357   1.716 -0.1449  1.0707  0.3965
  147MOL   H21947231   3.401   0.333   1.550 -2.3770  0.4073 -2.9385
  147MOL   H22047232   3.196   0.414   1.458 -0.5282 -0.8402 -0.3796
  147MOL   H22147233   3.114   0.205   1.778 -1.7244 -2.7812  1.5356
  147MOL   H22247234   3.060   8.081   1.765 -0.0204 -0.4106 -0.9759
  147MOL   H22347235   3.065   7.957   1.535 -1.3761 -0.0589 -2.3665
  147MOL   H22447236   3.139   8.070   1.345  0.6728  0.2703 -0.1780
  147MOL   H22547237   3.177   0.190   1.345  0.7445 -1.8385 -0.8540
  147MOL   C22647238   3.077   0.472   1.611  0.0772 -0.0317 -0.2771
  147MOL   C22747239   2.949   0.509   1.539 -0.0143 -0.5075  0.0148
  147MOL   C22847240   2.862   0.596   1.624  0.6300 -0.3506 -0.0802
  147MOL   C22947241   2.880   0.736   1.640 -0.2804  0.2901  0.1285
  147MOL   C23047242   2.780   0.811   1.700 -0.2252  0.6070 -0.9006
  147MOL   C23147243   2.665   0.751   1.767 -0.1966 -0.2224 -0.1344
  147MOL   C23247244   2.653   0.612   1.763 -1.3199  0.2227 -0.0149
  147MOL   C23347245   2.751   0.538   1.693  0.1983 -0.6561 -0.3234
  147MOL   H23447246   3.121   0.567   1.641  2.2717 -1.2614  0.5600
  147MOL   H23547247   3.052   0.429   1.707  1.2269  1.1154  0.5555
  147MOL   H23647248   2.898   0.414   1.526 -0.7869 -0.0801 -0.1223
  147MOL   H23747249   2.970   0.783   1.603  0.8956 -2.4574 -0.6098
  147MOL   H23847250   2.779   0.919   1.707 -0.2536  0.4825  1.4136
  147MOL   H23947251   2.589   0.796   1.828  1.2436  1.1673  0.6985
  147MOL   H24047252   2.563   0.567   1.802 -1.3381  0.2519 -0.0225
  147MOL   H24147253   2.750   0.430   1.687  0.5537 -0.7606  1.4005
  147MOL   C24247254   2.981   0.563   1.403 -0.6875  0.6208  0.1557
  147MOL   C24347255   2.876   0.628   1.318 -0.0410 -0.1383 -0.3149
  147MOL   C24447256   2.931   0.745   1.239  0.4539  0.3092 -0.0361
  147MOL   C24547257   2.914   0.868   1.297  0.3130  0.2057 -0.3007
  147MOL   C24647258   2.958   0.987   1.231  0.2125  0.3572 -1.0040
  147MOL   C24747259   3.024   0.974   1.106  0.1068 -0.4274 -0.1750
  147MOL   C24847260   3.030   0.847   1.045 -0.5243 -1.0506 -0.5827
  147MOL   C24947261   2.982   0.733   1.109 -0.0333  0.4200  0.0671
  147MOL   H25047262   3.022   0.489   1.335  2.2246  0.4192  2.0700
  147MOL   H25147263   3.059   0.638   1.416  1.3719 -1.8253  2.1742
  147MOL   H25247264   2.790   0.664   1.374  1.4403  1.3728  1.0712
  147MOL   H25347265   2.868   0.879   1.394  1.2930 -0.3173  0.2311
  147MOL   H25447266   2.938   1.086   1.269 -1.0694 -0.5964  0.9335
  147MOL   H25547267   3.061   1.062   1.056 -1.4157  0.0779 -0.4396
  147MOL   H25647268   3.083   0.831   0.952 -0.6134 -0.1027 -0.7970
  147MOL   H25747269   2.987   0.642   1.051  1.5675 -0.5161  1.6192
  147MOL   C25847270   2.800   0.529   1.228  0.3816  0.0335 -0.1278
  147MOL   C25947271   2.671   0.593   1.164  0.5090  0.1004  0.2533
  147MOL   C26047272   2.639   0.538   1.026  0.4222  0.8077 -0.7411
  147MOL   C26147273   2.652   0.615   0.904  0.5676 -0.2535 -0.0485
  147MOL   C26247274   2.625   0.561   0.778  0.1498  0.4368 -0.0831
  147MOL   C26347275   2.608   0.422   0.769 -0.0997  0.7469  0.0548
  147MOL   C26447276   2.606   0.340   0.887 -0.5315  0.3607  0.3161
  147MOL   C26547277   2.616   0.400   1.016 -0.1664  0.0863 -0.0563
  147MOL   H26647278   2.762   0.440   1.278  0.7739 -0.4443 -0.6675
  147MOL   H26747279   2.857   0.499   1.140 -0.7601 -0.9573 -0.5532
  147MOL   H26847280   2.690   0.699   1.146 -1.6647  0.4159 -0.4035
  147MOL   H26947281   2.679   0.719   0.918  0.6602 -0.6036  2.6534
  147MOL   H27047282   2.616   0.624   0.691  0.2908  0.8939  0.2278
  147MOL   H27147283   2.598   0.378   0.671  2.9489 -2.1239  0.9621
  147MOL   H27247284   2.592   0.233   0.891  2.6524 -0.0853  0.6597
  147MOL   H27347285   2.596   0.337   1.100 -0.3307 -0.2840 -0.3707
  147MOL   C27447286   2.554   0.587   1.264  0.2184 -0.9710 -1.0603
  147MOL   C27547287   2.461   0.710   1.258  0.0398 -0.3735  0.3183
  147MOL   C27647288   2.332   0.665   1.334 -0.2219 -0.1003 -0.0699
  147MOL   C27747289   2.339   0.605   1.463  0.0721  0.1534 -0.8593
  147MOL   C27847290   2.218   0.573   1.530  0.2637 -0.3244  0.5077
  147MOL   C27947291   2.098   0.595   1.465  0.8603 -0.6265  0.5637
  147MOL   C28047292   2.087   0.642   1.337 -0.1898  0.5987 -0.3101
  147MOL   C28147293   2.209   0.679   1.276  0.0080  0.7060  0.2740
  147MOL   H28247294   2.593   0.571   1.364  0.5930 -0.0819 -1.0582
  147MOL   H28347295   2.495   0.498   1.239 -0.4903 -0.5903 -0.7765
  147MOL   H28447296   2.438   0.739   1.155 -0.3308  2.9145  1.2616
  147MOL   H28547297   2.432   0.592   1.516  0.6869  0.1117 -1.9226
  147MOL   H28647298   2.228   0.532   1.629  0.2802  0.0573  0.6640
  147MOL   H28747299   2.012   0.562   1.521 -0.6622  0.4309 -1.1263
  147MOL   H28847300   1.988   0.651   1.295 -1.3646 -0.8381  2.0484
  147MOL   H28947301   2.207   0.720   1.176 -0.4277 -0.7742 -0.3449
  147MOL   C29047302   2.526   0.836   1.327  0.4255 -0.2677  0.2557
  147MOL   C29147303   2.432   0.950   1.375 -0.3087 -0.4764 -0.2243
  147MOL   C29247304   2.506   1.044   1.474 -0.3245 -0.4486 -0.2783
  147MOL   C29347305   2.438   1.080   1.597 -0.7261  0.5288  0.2424
  147MOL   C29447306   2.504   1.155   1.695  0.0222  1.0084  0.5180
  147MOL   C29547307   2.633   1.207   1.674 -0.1264  0.4353  0.0745
  147MOL   C29647308   2.698   1.166   1.556 -0.2086  0.1763  0.6318
  147MOL   C29747309   2.639   1.090   1.452 -0.1353 -0.0277  0.0299
  147MOL   H29847310   2.602   0.880   1.262 -0.2068 -0.4535 -0.6161
  147MOL   H29947311   2.580   0.805   1.417 -2.8186  0.0851  2.4101
  147MOL   H30047312   2.369   0.905   1.451  1.3042  0.0592  1.4559
  147MOL   H30147313   2.342   1.034   1.615 -0.8059 -0.9780 -3.5442
  147MOL   H30247314   2.457   1.172   1.791  0.1037  0.9255  0.5733
  147MOL   H30347315   2.680   1.264   1.753  0.8719 -0.7997  0.3867
  147MOL   H30447316   2.802   1.192   1.545 -0.3372  0.3688 -0.1431
  147MOL   H30547317   2.703   1.057   1.372  1.6922  2.7880  0.2503
  147MOL   C30647318   2.336   1.025   1.272  0.2591 -0.5925  0.0720
  147MOL   C30747319   2.394   1.146   1.189  0.3387 -0.2651  0.2190
  147MOL   C30847320   2.478   1.099   1.075 -0.1870  0.3604  0.6538
  147MOL   C30947321   2.424   1.009   0.979 -0.4932 -0.8495  0.3530
  147MOL   C31047322   2.519   0.938   0.894 -0.5588 -0.6744 -0.3365
  147MOL   C31147323   2.657   0.984   0.891  0.3494  0.3110 -0.2462
  147MOL   C31247324   2.701   1.071   0.992  0.1459 -0.3876  0.1180
  147MOL   C31347325   2.612   1.143   1.072  0.2063 -0.4784  0.1325
  147MOL   H31447326   2.264   1.076   1.335  0.5157  0.4260 -0.4617
  147MOL   H31547327   2.277   0.954   1.214 -0.0983  0.7033 -1.1536
  147MOL   H31647328   2.459   1.207   1.252 -0.3736  1.2823 -0.5364
  147MOL   H31747329   2.321   0.978   0.987 -1.1073  1.0246 -0.0881
  147MOL   H31847330   2.482   0.874   0.816 -0.1001  1.0465 -2.0202
  147MOL   H31947331   2.728   0.935   0.825  0.0407 -0.6952  0.1534
  147MOL   H32047332   2.806   1.093   0.997  0.0180  0.3608 -0.2716
  147MOL   H32147333   2.641   1.220   1.142 -0.5994  0.1382 -0.2260
  147MOL   H32247334   2.322   1.220   1.155  0.8820  0.2823  0.2474
  148MOL     C147335   1.218   4.531   4.400 -0.0091  0.3540  0.0252
  148MOL     C247336   1.126   4.542   4.278 -0.3325  0.2528 -0.0381
  148MOL     C347337   1.077   4.396   4.246  0.4972 -0.1303 -0.0957
  148MOL     C447338   1.146   4.321   4.148  0.4973  0.0659  0.9423
  148MOL     C547339   1.091   4.192   4.118  0.2615  0.8128 -0.0382
  148MOL     C647340   0.975   4.141   4.174 -0.0054 -0.0329  0.2558
  148MOL     C747341   0.917   4.213   4.279 -0.5739  0.8243 -0.0342
  148MOL     C847342   0.967   4.341   4.315  0.1685  0.0119  0.3429
  148MOL     H947343   1.180   4.481   4.489  0.4213  0.6743  0.3957
  148MOL    H1047344   1.300   4.471   4.361 -0.2162 -0.6933  1.1957
  148MOL    H1147345   1.185   4.572   4.191 -0.6800  1.1196  0.0249
  148MOL    H1247346   1.229   4.360   4.091  1.3304  0.6391  2.5443
  148MOL    H1347347   1.147   4.134   4.047  0.5696 -0.5672  1.3026
  148MOL    H1447348   0.939   4.041   4.152 -0.4140 -0.1714  1.4818
  148MOL    H1547349   0.843   4.160   4.337  0.6375 -0.5871  0.2480
  148MOL    H1647350   0.912   4.403   4.383 -1.5287  1.6125 -2.3800
  148MOL    H1747351   1.258   4.628   4.430 -1.8868  1.5656 -1.2719
  148MOL    C1847352   1.011   4.649   4.291 -0.0565  0.2433 -0.1974
  148MOL    C1947353   1.027   4.766   4.197 -0.6291  0.3268  0.3113
  148MOL    C2047354   0.898   4.846   4.197 -0.3104  0.3093 -0.1086
  148MOL    C2147355   0.846   4.901   4.321  0.1302  0.4645 -0.6008
  148MOL    C2247356   0.725   4.971   4.333  0.2974 -0.4522 -0.1537
  148MOL    C2347357   0.651   4.980   4.214 -0.1783  0.1622  0.3538
  148MOL    C2447358   0.695   4.930   4.088 -0.1741  0.7702 -0.4174
  148MOL    C2547359   0.821   4.863   4.079  0.2806  0.3848 -0.1120
  148MOL    H2647360   1.002   4.672   4.397 -0.2181 -0.0691 -0.1412
  148MOL    H2747361   0.913   4.607   4.265  0.3491  0.4111 -2.0714
  148MOL    H2847362   1.055   4.732   4.097  0.8981 -1.5022  1.3383
  148MOL    H2947363   0.911   4.901   4.408  1.3553 -2.0647 -1.4461
  148MOL    H3047364   0.712   5.034   4.419  2.2548 -0.1066 -0.0728
  148MOL    H3147365   0.556   5.032   4.218  0.4290  1.5186 -2.0225
  148MOL    H3247366   0.630   4.944   4.003  0.2051  3.6684 -0.2913
  148MOL    H3347367   0.848   4.799   3.996 -1.8946 -1.9693  0.9411
  148MOL    C3447368   1.153   4.856   4.247  0.1761 -0.4189  0.2402
  148MOL    C3547369   1.183   4.987   4.166 -0.2641  0.7761  0.2174
  148MOL    C3647370   1.168   5.113   4.251 -0.0352 -0.1208 -0.3028
  148MOL    C3747371   1.043   5.186   4.248  0.3854  0.0744 -0.0721
  148MOL    C3847372   1.033   5.304   4.326  0.3495  0.0286 -0.5711
  148MOL    C3947373   1.145   5.350   4.400  0.4860 -0.5102 -0.2124
  148MOL    C4047374   1.271   5.285   4.395 -0.9332 -0.6616 -0.1691
  148MOL    C4147375   1.279   5.162   4.327  0.0587  0.3114  0.3068
  148MOL    H4247376   1.236   4.786   4.252 -0.2281 -0.9132  0.0611
  148MOL    H4347377   1.137   4.875   4.353 -1.0332  1.4850 -0.2548
  148MOL    H4447378   1.108   4.994   4.087 -0.9748 -0.4886  0.7628
  148MOL    H4547379   0.964   5.149   4.185  0.1685 -0.0543  0.2765
  148MOL    H4647380   0.938   5.355   4.330  0.1397 -0.4347  0.5038
  148MOL    H4747381   1.139   5.439   4.461  2.6103  0.1084 -0.8579
  148MOL    H4847382   1.355   5.328   4.448 -0.8081  0.0784 -0.9506
  148MOL    H4947383   1.371   5.106   4.328 -0.2101 -0.1550 -0.8727
  148MOL    C5047384   1.319   4.978   4.088  0.0819  0.1018 -0.8505
  148MOL    C5147385   1.326   4.878   3.961 -0.1819  0.0207  0.5094
  148MOL    C5247386   1.238   4.934   3.853 -0.0351  0.2847 -0.4874
  148MOL    C5347387   1.121   4.864   3.822  0.4493 -0.1721  0.6259
  148MOL    C5447388   1.030   4.911   3.716 -0.3766 -0.3937 -0.0810
  148MOL    C5547389   1.057   5.036   3.652  0.0709  0.3676  0.8222
  148MOL    C5647390   1.178   5.102   3.683 -1.2164 -0.3181 -0.3060
  148MOL    C5747391   1.269   5.052   3.780  0.7191 -0.1086  0.5244
  148MOL    H5847392   1.404   4.953   4.151 -0.0828 -2.0550 -1.4723
  148MOL    H5947393   1.345   5.079   4.056 -0.5231  0.0801 -1.4137
  148MOL    H6047394   1.294   4.778   3.991  0.2020 -0.1140  0.4768
  148MOL    H6147395   1.100   4.766   3.862  0.4314  0.1278  1.3461
  148MOL    H6247396   0.935   4.863   3.698 -0.1568 -1.1848  0.8430
  148MOL    H6347397   0.983   5.068   3.579 -0.3844  2.0490  1.9865
  148MOL    H6447398   1.204   5.194   3.632 -0.6467 -0.1828  0.2238
  148MOL    H6547399   1.355   5.111   3.806  2.1916 -2.8234  1.9547
  148MOL    C6647400   1.476   4.861   3.912  0.6226  0.1640 -0.2428
  148MOL    C6747401   1.517   4.785   3.787 -0.2060  0.3180 -0.2607
  148MOL    C6847402   1.668   4.807   3.765  0.2761 -0.5592  0.6448
  148MOL    C6947403   1.761   4.751   3.856  0.3763  0.1543  0.1416
  148MOL    C7047404   1.900   4.779   3.846 -0.7124  0.0008  0.1236
  148MOL    C7147405   1.936   4.863   3.736 -0.6214  0.4734 -0.9919
  148MOL    C7247406   1.841   4.909   3.643  0.1940 -0.3235  0.3078
  148MOL    C7347407   1.707   4.889   3.661  0.0099 -0.8686  0.2852
  148MOL    H7447408   1.534   4.826   3.997  1.3102  0.0825 -0.7381
  148MOL    H7547409   1.505   4.964   3.891  2.2821 -0.0992  0.6747
  148MOL    H7647410   1.463   4.832   3.705  0.1663  1.9295  0.4115
  148MOL    H7747411   1.730   4.695   3.944  1.4499  0.6542  0.8437
  148MOL    H7847412   1.966   4.733   3.919  1.1860  0.4672 -1.2498
  148MOL    H7947413   2.040   4.886   3.726 -0.3600 -0.9541 -1.7847
  148MOL    H8047414   1.892   4.970   3.569 -1.3868 -1.2076 -1.5776
  148MOL    H8147415   1.633   4.937   3.599  0.4551  1.2684  1.3525
  148MOL    C8247416   1.475   4.641   3.796 -0.0483 -0.5557 -0.0558
  148MOL    C8347417   1.513   4.553   3.674  0.1428 -0.3217  0.0893
  148MOL    C8447418   1.508   4.408   3.713  0.7278 -0.1834  0.6305
  148MOL    C8547419   1.383   4.349   3.731  1.1758 -0.0367  0.0851
  148MOL    C8647420   1.372   4.210   3.759 -0.0043 -0.4307 -0.5071
  148MOL    C8747421   1.497   4.140   3.778 -0.3664 -0.1077 -0.8541
  148MOL    C8847422   1.622   4.202   3.769  0.0459 -0.4249  0.4303
  148MOL    C8947423   1.626   4.343   3.731 -0.1220 -0.0344  0.3965
  148MOL    H9047424   1.368   4.654   3.813 -0.0591  0.9277 -1.1070
  148MOL    H9147425   1.519   4.598   3.885  2.0051 -0.0490 -0.7998
  148MOL    H9247426   1.617   4.567   3.645  0.1121 -1.0580 -0.4028
  148MOL    H9347427   1.290   4.403   3.721  2.0633  1.8205  1.5322
  148MOL    H9447428   1.281   4.155   3.778 -0.4786  0.9712  1.4146
  148MOL    H9547429   1.492   4.036   3.805  3.5984 -0.5147 -1.4218
  148MOL    H9647430   1.706   4.138   3.791  0.1198 -0.2007  0.7984
  148MOL    H9747431   1.718   4.390   3.699 -1.3281  1.0277 -1.6058
  148MOL    C9847432   1.410   4.581   3.556 -0.3628 -0.3558  0.7362
  148MOL    C9947433   1.451   4.678   3.445 -0.4523 -0.5634  0.0204
  148MOL   C10047434   1.548   4.614   3.351 -0.3079 -0.3231 -0.1354
  148MOL   C10147435   1.513   4.509   3.272 -0.5412 -0.0631  0.3525
  148MOL   C10247436   1.601   4.459   3.174  0.0832 -0.2437  0.2890
  148MOL   C10347437   1.723   4.527   3.146 -0.0625 -0.5922 -0.1668
  148MOL   C10447438   1.764   4.629   3.236  0.2196  0.2837  0.3763
  148MOL   C10547439   1.675   4.676   3.337 -0.1798  0.5251  0.1751
  148MOL   H10647440   1.312   4.615   3.589  0.4235  1.2580  1.5033
  148MOL   H10747441   1.392   4.485   3.508  0.7534 -0.7267  1.0523
  148MOL   H10847442   1.498   4.765   3.493 -0.2225 -0.1103 -1.0083
  148MOL   H10947443   1.415   4.464   3.278 -1.5305  1.5851 -2.3493
  148MOL   H11047444   1.571   4.371   3.119  1.4004  0.4150 -1.5577
  148MOL   H11147445   1.790   4.498   3.066  0.6305  3.0950 -1.0085
  148MOL   H11247446   1.857   4.683   3.226  0.3293  0.3954  2.0033
  148MOL   H11347447   1.714   4.749   3.406  1.4100 -0.7124  0.6137
  148MOL   C11447448   1.333   4.750   3.371 -0.6714 -0.4515  0.7628
  148MOL   C11547449   1.385   4.875   3.291 -0.5948  0.1364 -0.2631
  148MOL   C11647450   1.290   4.905   3.168  0.9215  1.1794 -0.0167
  148MOL   C11747451   1.157   4.938   3.191  0.1999 -0.2924 -1.0351
  148MOL   C11847452   1.066   4.955   3.084  0.1967  0.0290  0.2315
  148MOL   C11947453   1.114   4.945   2.952 -0.1684 -0.1781 -0.4349
  148MOL   C12047454   1.251   4.920   2.928  0.5865  0.6318  0.1900
  148MOL   C12147455   1.339   4.904   3.036  0.1905 -0.3089  0.4080
  148MOL   H12247456   1.256   4.776   3.444 -1.4506 -2.5859  0.7499
  148MOL   H12347457   1.284   4.671   3.314  0.8362 -0.0704 -1.1224
  148MOL   H12447458   1.484   4.860   3.246 -0.8658 -1.1013 -0.4768
  148MOL   H12547459   1.115   4.934   3.290 -1.0706  0.2396 -1.5316
  148MOL   H12647460   0.959   4.962   3.101  0.3558 -2.3199  2.6696
  148MOL   H12747461   1.038   4.962   2.877 -1.1270 -3.0942 -0.2078
  148MOL   H12847462   1.293   4.908   2.830  1.0200 -0.7458  0.5381
  148MOL   H12947463   1.443   4.884   3.015  0.4386 -1.4573  2.5700
  148MOL   C13047464   1.413   4.998   3.375  0.1767 -0.2041 -0.3880
  148MOL   C13147465   1.491   5.111   3.298 -0.2217  0.3802  0.6179
  148MOL   C13247466   1.474   5.247   3.362  0.1453  0.0358  0.2468
  148MOL   C13347467   1.467   5.275   3.502  0.2575  0.2457  0.1269
  148MOL   C13447468   1.437   5.401   3.552  0.4707 -0.8372 -0.9100
  148MOL   C13547469   1.423   5.507   3.464  0.2742  0.0741  0.0919
  148MOL   C13647470   1.429   5.486   3.326  0.1047 -0.2901 -0.1632
  148MOL   C13747471   1.453   5.357   3.273  0.3676  0.1803 -0.5014
  148MOL   H13847472   1.462   4.976   3.470 -1.5779 -1.0862  0.3501
  148MOL   H13947473   1.315   5.030   3.411 -0.9236 -3.0428 -0.7290
  148MOL   H14047474   1.444   5.118   3.200  0.9639 -0.4267 -0.0073
  148MOL   H14147475   1.494   5.198   3.572  3.0672  0.7767 -0.3084
  148MOL   H14247476   1.424   5.418   3.659 -2.4722  1.0074 -1.4873
  148MOL   H14347477   1.394   5.606   3.497 -0.5634  1.6193 -4.8330
  148MOL   H14447478   1.395   5.561   3.256 -3.6753 -1.1696  0.5887
  148MOL   H14547479   1.448   5.343   3.166  4.0512  1.6279 -0.9667
  148MOL   C14647480   1.645   5.083   3.275  0.1031  0.1977 -0.5523
  148MOL   C14747481   1.684   5.076   3.126  0.0712  0.8646 -0.3402
  148MOL   C14847482   1.675   5.215   3.073  0.5428 -0.2445  0.2903
  148MOL   C14947483   1.744   5.325   3.132  0.3374  0.5609  0.3115
  148MOL   C15047484   1.744   5.453   3.074  1.3038 -0.1312  0.2368
  148MOL   C15147485   1.668   5.484   2.964 -0.7310  0.6729 -0.4575
  148MOL   C15247486   1.588   5.384   2.910 -0.4528 -0.1714 -1.2034
  148MOL   C15347487   1.589   5.254   2.963  0.1324 -0.3520 -0.0151
  148MOL   H15447488   1.662   4.980   3.307 -0.6352  0.6551  1.4199
  148MOL   H15547489   1.709   5.138   3.344  0.0703  0.3981 -0.6841
  148MOL   H15647490   1.611   5.008   3.081 -0.7313  0.4301  1.5734
  148MOL   H15747491   1.795   5.307   3.226 -0.7078 -1.2038  0.5594
  148MOL   H15847492   1.810   5.527   3.117  2.2714 -0.7264 -0.2281
  148MOL   H15947493   1.663   5.585   2.927 -0.5802  0.5749 -0.7422
  148MOL   H16047494   1.514   5.408   2.835 -0.8218 -0.9567 -1.0941
  148MOL   H16147495   1.521   5.181   2.924  0.3035 -0.5745  0.0992
  148MOL   C16247496   1.824   5.008   3.108 -0.8249  0.5083  0.1381
  148MOL   C16347497   1.866   4.990   2.964  0.1972 -0.3355 -0.1284
  148MOL   C16447498   2.012   5.005   2.926 -0.4246  0.6542  0.0806
  148MOL   C16547499   2.069   5.110   2.849  0.1899 -0.6190 -0.4758
  148MOL   C16647500   2.200   5.113   2.810 -0.0514 -0.7484 -0.2369
  148MOL   C16747501   2.288   5.016   2.855  0.4867  0.2797  0.2425
  148MOL   C16847502   2.246   4.916   2.939  0.5527  0.3529 -0.1287
  148MOL   C16947503   2.106   4.907   2.975  0.0671  0.6255  0.6640
  148MOL   H17047504   1.841   4.916   3.163 -0.8714  1.5718  1.9396
  148MOL   H17147505   1.900   5.079   3.139 -0.7980  1.1022 -1.2280
  148MOL   H17247506   1.814   5.064   2.905 -0.0419 -0.0561  0.4252
  148MOL   H17347507   1.998   5.179   2.806  0.6049  0.5891  0.7555
  148MOL   H17447508   2.238   5.187   2.741 -3.5840  0.3381 -1.0744
  148MOL   H17547509   2.391   5.011   2.822 -0.1195  0.6086 -1.7613
  148MOL   H17647510   2.317   4.855   2.994  0.6025 -0.5909 -1.2312
  148MOL   H17747511   2.069   4.827   3.038  0.1259  1.7656  2.1720
  148MOL   C17847512   1.807   4.849   2.924  0.0606 -0.0925 -0.2175
  148MOL   C17947513   1.757   4.834   2.775  0.1833 -0.2680  0.1869
  148MOL   C18047514   1.734   4.684   2.733 -0.2303 -0.4381  0.4069
  148MOL   C18147515   1.813   4.629   2.628 -0.2428 -0.7611 -0.9580
  148MOL   C18247516   1.788   4.496   2.587 -0.0900 -0.1572 -0.4022
  148MOL   C18347517   1.692   4.415   2.655  0.3177  0.1607  1.0908
  148MOL   C18447518   1.618   4.471   2.763 -1.0928 -0.0660  0.0649
  148MOL   C18547519   1.638   4.603   2.796  0.3329 -0.4770 -0.3771
  148MOL   H18647520   1.717   4.825   2.980  0.6060 -0.4494  0.5061
  148MOL   H18747521   1.879   4.770   2.943 -1.1131 -1.1282  0.0542
  148MOL   H18847522   1.837   4.877   2.715  0.6740 -0.2070  0.8770
  148MOL   H18947523   1.889   4.689   2.580 -1.1171  2.1200  1.1273
  148MOL   H19047524   1.843   4.449   2.507  1.2135 -1.1294  1.0308
  148MOL   H19147525   1.685   4.312   2.623 -0.2564  1.4004 -3.2161
  148MOL   H19247526   1.539   4.420   2.816 -0.7645 -1.3315 -0.6452
  148MOL   H19347527   1.572   4.648   2.869 -1.1015  1.6169 -2.8710
  148MOL   C19447528   1.620   4.910   2.746 -0.0414 -0.4319 -0.0365
  148MOL   C19547529   1.607   5.002   2.622  0.4376  0.3676  0.1800
  148MOL   C19647530   1.712   5.113   2.605 -0.6946  0.3279 -0.4596
  148MOL   C19747531   1.681   5.252   2.636 -0.1095  1.2316 -0.9841
  148MOL   C19847532   1.779   5.350   2.612  0.7560  0.3834  0.3503
  148MOL   C19947533   1.904   5.327   2.560 -0.1448  0.6655 -0.1314
  148MOL   C20047534   1.934   5.196   2.535 -0.0120 -0.1221  0.6086
  148MOL   C20147535   1.837   5.093   2.564 -0.0873 -0.2185 -0.2169
  148MOL   H20247536   1.614   4.986   2.823  2.0811 -2.1534  1.8946
  148MOL   H20347537   1.531   4.852   2.772  1.5958 -2.7751  0.5287
  148MOL   H20447538   1.512   5.047   2.650  1.0794  0.9909  1.3674
  148MOL   H20547539   1.587   5.285   2.677 -1.8784 -0.9937 -3.0732
  148MOL   H20647540   1.757   5.454   2.627 -0.1338  0.2370  0.0867
  148MOL   H20747541   1.981   5.401   2.548 -0.3074  1.1289  1.6238
  148MOL   H20847542   2.025   5.165   2.486  0.3297 -1.6493  2.1444
  148MOL   H20947543   1.864   4.993   2.532  0.6657 -0.1088  0.0770
  148MOL   C21047544   1.589   4.925   2.489  0.1661  0.2495  0.4064
  148MOL   C21147545   1.590   5.001   2.355  0.2311  0.2676  0.3269
  148MOL   C21247546   1.629   4.908   2.238  0.0033  0.2264  0.1239
  148MOL   C21347547   1.764   4.876   2.211 -0.1913 -0.7643 -0.3580
  148MOL   C21447548   1.798   4.800   2.099 -0.0546  0.0100 -0.4675
  148MOL   C21547549   1.698   4.737   2.022  0.5613  1.0501 -0.2159
  148MOL   C21647550   1.564   4.765   2.050  0.1528 -0.1307  0.0875
  148MOL   C21747551   1.527   4.844   2.162 -0.6784 -0.4742  0.7164
  148MOL   H21847552   1.500   4.862   2.490  0.1704  0.1382 -2.2929
  148MOL   H21947553   1.671   4.854   2.486 -0.4282 -0.4646  0.9648
  148MOL   H22047554   1.666   5.078   2.358  0.6362 -0.1343  0.4751
  148MOL   H22147555   1.837   4.921   2.276  1.2618 -2.3517 -0.8517
  148MOL   H22247556   1.899   4.785   2.064  0.9641 -2.0887  3.0532
  148MOL   H22347557   1.730   4.663   1.951  0.4207  1.6991 -0.9636
  148MOL   H22447558   1.491   4.707   1.996  0.2241  1.7231 -2.0810
  148MOL   H22547559   1.427   4.844   2.204 -0.7793  0.4926  0.4752
  148MOL   C22647560   1.457   5.070   2.346 -0.4324  0.3054 -0.3334
  148MOL   C22747561   1.429   5.143   2.207 -0.3260 -0.0416  0.1547
  148MOL   C22847562   1.281   5.161   2.172 -0.0529 -0.6965  0.6380
  148MOL   C22947563   1.184   5.195   2.270 -0.3558  0.1850  0.5291
  148MOL   C23047564   1.045   5.195   2.235  0.9491  0.8030  0.3372
  148MOL   C23147565   1.006   5.193   2.100 -0.0384  0.2677 -0.6584
  148MOL   C23247566   1.105   5.171   2.003  0.1510  0.0839  0.1055
  148MOL   C23347567   1.241   5.154   2.037  0.1011 -0.1960  0.1276
  148MOL   H23447568   1.446   5.143   2.425  2.2082 -1.8434  2.1334
  148MOL   H23547569   1.375   4.999   2.354 -0.5844  0.3667 -1.3205
  148MOL   H23647570   1.472   5.075   2.132 -0.3151  0.9518 -0.7474
  148MOL   H23747571   1.217   5.213   2.371 -0.9090  3.8325  0.1302
  148MOL   H23847572   0.969   5.234   2.301  0.9954  2.6571 -0.6684
  148MOL   H23947573   0.902   5.205   2.072 -0.7697 -1.0489  1.2871
  148MOL   H24047574   1.076   5.154   1.901 -4.0577 -3.7158  1.7559
  148MOL   H24147575   1.312   5.129   1.960 -1.5264 -1.3359 -1.0286
  148MOL   C24247576   1.512   5.268   2.172  0.0127 -0.3939 -0.1321
  148MOL   C24347577   1.562   5.290   2.028 -0.3707  0.2591  0.3710
  148MOL   C24447578   1.590   5.440   2.007 -0.3843  0.3343  0.0252
  148MOL   C24547579   1.710   5.501   2.042  0.0524 -0.0865  0.3324
  148MOL   C24647580   1.720   5.642   2.031 -0.0402  0.4483  0.1325
  148MOL   C24747581   1.613   5.720   1.989  0.0418 -0.5077 -0.0587
  148MOL   C24847582   1.491   5.657   1.950 -0.6122  0.0396 -0.2337
  148MOL   C24947583   1.484   5.517   1.959  0.5925  0.2748  0.3074
  148MOL   H25047584   1.593   5.279   2.245 -1.9147  0.0186  2.0003
  148MOL   H25147585   1.442   5.346   2.203  0.6637  0.0223  0.3334
  148MOL   H25247586   1.478   5.271   1.961  0.0151  0.5186 -0.1919
  148MOL   H25347587   1.801   5.451   2.073  0.5338 -0.2167 -1.2758
  148MOL   H25447588   1.809   5.692   2.065  1.2722 -2.4421  1.0595
  148MOL   H25547589   1.627   5.826   1.981 -0.1074 -0.4767  0.0769
  148MOL   H25647590   1.403   5.715   1.928  0.8043  1.6086 -1.9336
  148MOL   H25747591   1.395   5.459   1.938  0.7186 -0.1088  0.8140
  148MOL   C25847592   1.682   5.197   1.992 -0.2821  0.0174 -0.1398
  148MOL   C25947593   1.712   5.185   1.837 -0.3115 -0.1797 -0.0897
  148MOL   C26047594   1.597   5.118   1.754  0.3263  0.3738  0.0698
  148MOL   C26147595   1.486   5.190   1.710  0.1153  0.2024 -0.2253
  148MOL   C26247596   1.380   5.130   1.639 -0.3384 -0.5054  0.1643
  148MOL   C26347597   1.390   4.993   1.609 -0.1171 -0.7180  0.2129
  148MOL   C26447598   1.501   4.918   1.647 -0.0761  0.3242  0.2925
  148MOL   C26547599   1.608   4.981   1.720 -0.3435  0.3621 -0.4477
  148MOL   H26647600   1.658   5.096   2.024 -1.0008 -0.1331 -1.1634
  148MOL   H26747601   1.768   5.233   2.049 -0.8942  0.8097  0.3083
  148MOL   H26847602   1.797   5.116   1.839 -2.2298 -2.5444  2.3487
  148MOL   H26947603   1.475   5.291   1.747  1.5137  0.0468  0.6568
  148MOL   H27047604   1.285   5.181   1.629 -0.8166 -1.7559 -2.0575
  148MOL   H27147605   1.310   4.940   1.559 -0.5084 -0.5410  0.6486
  148MOL   H27247606   1.496   4.813   1.623 -1.2641  0.3320  0.5009
  148MOL   H27347607   1.689   4.921   1.760 -0.8286  2.0276  3.2585
  148MOL   C27447608   1.771   5.312   1.768 -0.0969  0.2398  0.3528
  148MOL   C27547609   1.821   5.293   1.628 -0.0129  0.2395 -0.0102
  148MOL   C27647610   1.816   5.420   1.544 -0.7034 -0.0706  0.1103
  148MOL   C27747611   1.902   5.526   1.575  0.5055  0.3684  0.1419
  148MOL   C27847612   1.899   5.638   1.484 -0.2035  0.4777  0.4817
  148MOL   C27947613   1.818   5.639   1.365  0.1680  0.1891  0.4137
  148MOL   C28047614   1.729   5.533   1.342  0.3189  0.4838  0.2516
  148MOL   C28147615   1.732   5.419   1.430  0.5855 -0.3079 -0.1159
  148MOL   H28247616   1.852   5.348   1.832  2.0328 -1.8453 -1.0947
  148MOL   H28347617   1.695   5.390   1.770 -0.1956  0.1734 -0.5429
  148MOL   H28447618   1.767   5.218   1.568 -1.5690  0.4369  1.1182
  148MOL   H28547619   1.979   5.525   1.650  0.1062 -0.2764  0.5417
  148MOL   H28647620   1.965   5.722   1.502 -0.5116  1.2634 -1.9477
  148MOL   H28747621   1.819   5.721   1.296  0.2132  0.6542  0.9585
  148MOL   H28847622   1.670   5.539   1.252  1.6396 -2.1785 -0.8303
  148MOL   H28947623   1.672   5.331   1.411  0.4027 -0.3703  0.7355
  148MOL   C29047624   1.963   5.231   1.637  0.3499  0.5319 -0.1549
  148MOL   C29147625   2.025   5.206   1.502 -0.1360  0.5194  0.0851
  148MOL   C29247626   2.173   5.231   1.515  0.0699 -0.3822  0.2739
  148MOL   C29347627   2.258   5.140   1.585  0.4600 -0.5924  0.0625
  148MOL   C29447628   2.395   5.170   1.593  0.1500  0.3271  0.5674
  148MOL   C29547629   2.443   5.295   1.548 -0.6859  0.9331 -0.0801
  148MOL   C29647630   2.363   5.386   1.482 -0.4707  0.4338  0.5192
  148MOL   C29747631   2.228   5.353   1.462  0.7278 -0.4292 -0.1813
  148MOL   H29847632   1.968   5.135   1.689  0.4454  0.8637  0.4542
  148MOL   H29947633   2.020   5.291   1.708 -0.4707  1.1612 -0.0244
  148MOL   H30047634   1.995   5.280   1.427  0.1280  2.3237  1.7000
  148MOL   H30147635   2.220   5.061   1.648  2.2612  0.4480  2.5379
  148MOL   H30247636   2.461   5.109   1.652 -0.6280  0.9762  2.1430
  148MOL   H30347637   2.545   5.313   1.581  0.0702 -0.1041 -1.7719
  148MOL   H30447638   2.406   5.477   1.443 -1.8305  1.0987  0.5286
  148MOL   H30547639   2.168   5.430   1.416  0.1395 -0.7487  0.0520
  148MOL   C30647640   1.984   5.067   1.450  0.0421 -0.3800 -0.3824
  148MOL   C30747641   2.032   5.023   1.305 -0.4642 -0.2867 -0.4946
  148MOL   C30847642   1.936   5.047   1.183  0.4493  0.1777 -0.0429
  148MOL   C30947643   1.893   4.944   1.100 -0.9966  0.7155  0.1784
  148MOL   C31047644   1.802   4.971   0.995 -0.7500  0.2584  0.5094
  148MOL   C31147645   1.740   5.095   0.988 -0.5605  0.1653 -0.0168
  148MOL   C31247646   1.788   5.202   1.071 -0.1238 -0.3099  1.0053
  148MOL   C31347647   1.886   5.180   1.160 -0.4699 -0.3129 -0.1688
  148MOL   H31447648   1.875   5.062   1.460 -0.1206  1.4612 -1.0094
  148MOL   H31547649   2.025   4.996   1.521  0.5190 -0.9169 -1.1897
  148MOL   H31647650   2.073   4.922   1.306  0.6555  0.1558  0.9115
  148MOL   H31747651   1.926   4.841   1.104 -0.2903  1.0284  3.9420
  148MOL   H31847652   1.762   4.900   0.925 -0.7956  1.8985 -1.1744
  148MOL   H31947653   1.655   5.106   0.923  0.8958 -0.6122 -2.0813
  148MOL   H32047654   1.738   5.297   1.053 -0.2928 -0.2223  1.9310
  148MOL   H32147655   1.929   5.265   1.211  1.5543 -0.3625 -1.7123
  148MOL   H32247656   2.119   5.080   1.272 -0.7611  0.2039 -0.4363
  149MOL     C147657   3.090   1.743   1.179  0.2262 -0.4319  0.2428
  149MOL     C247658   2.937   1.734   1.187  0.1521  0.2736 -0.2310
  149MOL     C347659   2.866   1.865   1.225 -0.1718  0.2038  0.2235
  149MOL     C447660   2.894   1.982   1.152 -0.8741 -0.6937  0.3013
  149MOL     C547661   2.836   2.103   1.191  0.7886 -0.4493 -0.2207
  149MOL     C647662   2.736   2.111   1.292 -0.2319  0.3698  0.0427
  149MOL     C747663   2.702   1.988   1.351 -0.2382  0.5098 -0.7236
  149MOL     C847664   2.771   1.869   1.327 -0.9940  0.3704 -0.7188
  149MOL     H947665   3.152   1.655   1.162  0.4460 -0.5366  1.5098
  149MOL    H1047666   3.117   1.823   1.110 -1.1395  0.7769  1.0812
  149MOL    H1147667   2.901   1.671   1.268  1.6917 -1.8230 -1.1199
  149MOL    H1247668   2.962   1.986   1.068  1.0149  0.1150  1.8238
  149MOL    H1347669   2.868   2.192   1.139  1.0030  0.8881  2.1408
  149MOL    H1447670   2.693   2.203   1.330 -1.1357 -0.8009  1.9903
  149MOL    H1547671   2.623   1.983   1.425  0.6107 -0.4784  0.1255
  149MOL    H1647672   2.747   1.777   1.378 -3.0762  1.0772 -0.3999
  149MOL    H1747673   3.126   1.783   1.274  1.4425  1.9134 -1.1368
  149MOL    C1847674   2.881   1.691   1.052  0.2533 -0.4299 -0.4432
  149MOL    C1947675   2.843   1.543   1.048 -0.3633  0.5976 -0.3076
  149MOL    C2047676   2.722   1.530   1.140  0.0492 -0.5282  0.2299
  149MOL    C2147677   2.742   1.480   1.267  0.5380  0.2575 -0.2060
  149MOL    C2247678   2.629   1.476   1.355 -0.1419 -0.1926 -0.5166
  149MOL    C2347679   2.499   1.502   1.309 -0.0827 -0.0765 -0.8762
  149MOL    C2447680   2.479   1.544   1.178 -0.0224  0.0735  0.1053
  149MOL    C2547681   2.592   1.558   1.095  0.1387  0.2356 -0.0268
  149MOL    H2647682   2.930   1.721   0.960  1.8760 -0.6252  0.3425
  149MOL    H2747683   2.786   1.744   1.036  0.1174 -1.2564 -2.4840
  149MOL    H2847684   2.930   1.485   1.080 -1.2381 -0.6750 -0.1937
  149MOL    H2947685   2.839   1.469   1.313  0.1803 -2.7110 -0.0899
  149MOL    H3047686   2.636   1.450   1.459  0.6885  2.0064 -0.0032
  149MOL    H3147687   2.413   1.494   1.374  0.5561  2.8003  0.4258
  149MOL    H3247688   2.381   1.545   1.134  0.2109 -0.5917 -0.4465
  149MOL    H3347689   2.569   1.582   0.992 -0.7435 -2.4284 -0.5111
  149MOL    C3447690   2.814   1.499   0.908 -0.4034  0.4987 -0.4203
  149MOL    C3547691   2.930   1.502   0.803  0.7087  0.1977 -0.5203
  149MOL    C3647692   2.994   1.366   0.794 -0.3081 -0.5549  0.8264
  149MOL    C3747693   2.939   1.262   0.718 -0.5974 -0.0392 -0.4762
  149MOL    C3847694   3.008   1.139   0.705  0.8703 -0.7056  0.2961
  149MOL    C3947695   3.125   1.118   0.781 -0.1888 -0.6828 -0.5047
  149MOL    C4047696   3.177   1.220   0.866  0.4189  0.2923  0.4568
  149MOL    C4147697   3.112   1.342   0.861  0.1194 -0.0634  0.3067
  149MOL    H4247698   2.729   1.560   0.879 -2.1750 -0.7148  1.9719
  149MOL    H4347699   2.778   1.396   0.914  0.9101  0.0728  0.3198
  149MOL    H4447700   3.006   1.569   0.842 -3.0405  3.5090  1.3629
  149MOL    H4547701   2.839   1.281   0.681  0.1312  1.9881 -1.4842
  149MOL    H4647702   2.964   1.058   0.649 -1.6722  0.3198  0.7462
  149MOL    H4747703   3.179   1.025   0.777  2.1427  0.5848  0.2476
  149MOL    H4847704   3.263   1.198   0.927  1.0377 -0.0549 -0.5276
  149MOL    H4947705   3.167   1.422   0.909  2.4544 -1.3672 -0.1136
  149MOL    C5047706   2.885   1.552   0.662  0.2289 -1.4402  0.4929
  149MOL    C5147707   2.849   1.711   0.647  0.6640  0.1332 -0.1051
  149MOL    C5247708   2.964   1.802   0.696  0.0469 -0.2029  0.3352
  149MOL    C5347709   2.931   1.926   0.766 -0.2450  0.5288  0.1272
  149MOL    C5447710   3.032   2.004   0.811 -0.3476  0.5853  0.2247
  149MOL    C5547711   3.164   1.973   0.783  0.2674  0.1148 -0.2426
  149MOL    C5647712   3.203   1.851   0.718 -0.4124  0.0647 -0.8123
  149MOL    C5747713   3.096   1.764   0.680 -0.1374  0.2612  0.7096
  149MOL    H5847714   2.801   1.495   0.622  1.1302 -2.7657  0.4508
  149MOL    H5947715   2.961   1.537   0.586  0.8474  1.3047  0.5327
  149MOL    H6047716   2.767   1.727   0.717  0.7917 -2.3330  0.6419
  149MOL    H6147717   2.829   1.959   0.776 -0.5702 -0.4313  0.1097
  149MOL    H6247718   3.005   2.096   0.859 -0.4788 -0.1608  1.5912
  149MOL    H6347719   3.234   2.049   0.813  0.9134  0.0698 -1.5702
  149MOL    H6447720   3.308   1.826   0.710 -0.2083  0.9253 -0.8941
  149MOL    H6547721   3.120   1.683   0.613 -0.9947 -0.8506  1.7132
  149MOL    C6647722   2.810   1.741   0.505  0.6751  0.2937  0.2582
  149MOL    C6747723   2.728   1.874   0.476  0.0582 -0.3643  0.4051
  149MOL    C6847724   2.765   1.930   0.338 -0.4371 -0.4135  0.3931
  149MOL    C6947725   2.700   1.892   0.213  0.1880 -0.2445 -0.9103
  149MOL    C7047726   2.738   1.944   0.093  0.0006 -0.7561  0.3064
  149MOL    C7147727   2.836   2.043   0.089  0.2705 -0.9911 -0.5851
  149MOL    C7247728   2.912   2.077   0.202 -0.3884  0.8338 -0.2776
  149MOL    C7347729   2.873   2.015   0.325 -0.4955 -0.1982  0.1632
  149MOL    H7447730   2.753   1.655   0.469  0.9431  0.2570 -0.0846
  149MOL    H7547731   2.899   1.728   0.444 -0.2199  1.8619 -1.4540
  149MOL    H7647732   2.758   1.954   0.544  0.2080  0.2443 -0.3720
  149MOL    H7747733   2.626   1.813   0.214  1.2222 -1.2254 -0.0733
  149MOL    H7847734   2.705   1.901   8.114 -0.2550  1.5060 -0.6801
  149MOL    H7947735   2.869   2.083   8.109  0.7008  2.6416  1.0069
  149MOL    H8047736   3.001   2.138   0.192  0.2973 -0.2132 -0.6914
  149MOL    H8147737   2.935   2.036   0.411 -0.4084 -1.3118  0.3821
  149MOL    C8247738   2.576   1.850   0.487 -0.1816  0.0522  0.3907
  149MOL    C8347739   2.510   1.822   0.626  0.3548  0.2427 -0.4492
  149MOL    C8447740   2.533   1.942   0.724  0.3620  0.2593  0.5068
  149MOL    C8547741   2.538   2.075   0.676  0.9014  0.1806 -0.0791
  149MOL    C8647742   2.559   2.179   0.767 -0.8303 -0.1313  0.2792
  149MOL    C8747743   2.558   2.156   0.911  0.2778 -0.3270 -0.0249
  149MOL    C8847744   2.570   2.021   0.954  0.0494  0.5160 -1.0493
  149MOL    C8947745   2.549   1.911   0.864 -0.5602  0.4692 -0.0580
  149MOL    H9047746   2.548   1.759   0.433  1.3494 -0.3000  0.1844
  149MOL    H9147747   2.524   1.925   0.426  0.2278 -1.1470 -1.4857
  149MOL    H9247748   2.553   1.738   0.681 -0.4951 -0.4195 -0.7822
  149MOL    H9347749   2.533   2.098   0.570  0.3455  1.6957  0.2613
  149MOL    H9447750   2.570   2.281   0.731 -1.5094  0.3879  1.5074
  149MOL    H9547751   2.572   2.241   0.977  1.4007  0.7815 -1.6448
  149MOL    H9647752   2.612   1.990   1.049 -1.2776 -3.2052 -1.5931
  149MOL    H9747753   2.554   1.808   0.895  0.0278  1.0539  1.8874
  149MOL    C9847754   2.364   1.790   0.605  0.4278  0.4648 -1.0900
  149MOL    C9947755   2.324   1.651   0.540  0.0973 -0.6336 -0.2919
  149MOL   C10047756   2.393   1.529   0.615  0.4084  0.8809  0.3230
  149MOL   C10147757   2.369   1.502   0.751  1.2645 -0.4372 -0.5452
  149MOL   C10247758   2.440   1.402   0.819 -0.4121 -0.0991  0.5649
  149MOL   C10347759   2.517   1.309   0.748  0.0300  0.1032  0.5967
  149MOL   C10447760   2.538   1.332   0.611 -0.0433  0.2383 -0.2974
  149MOL   C10547761   2.481   1.444   0.548  0.1280  1.1042  0.1283
  149MOL   H10647762   2.323   1.866   0.538 -0.3124  1.5774  0.6000
  149MOL   H10747763   2.316   1.808   0.701  3.8268  0.5880  0.6601
  149MOL   H10847764   2.372   1.654   0.443 -0.9927 -0.3299 -0.8204
  149MOL   H10947765   2.298   1.561   0.806  2.2380 -2.0338  2.5281
  149MOL   H11047766   2.435   1.386   0.926  2.4760 -0.7312  0.6433
  149MOL   H11147767   2.555   1.227   0.807 -1.7138 -1.6563 -0.6547
  149MOL   H11247768   2.598   1.264   0.551 -0.9669 -1.2497  0.4574
  149MOL   H11347769   2.505   1.464   0.444  0.5074  1.8368  0.3583
  149MOL   C11447770   2.175   1.625   0.536  0.5526 -0.3388 -0.3122
  149MOL   C11547771   2.091   1.707   0.429 -0.2057 -0.1177  0.9481
  149MOL   C11647772   1.984   1.628   0.353 -0.5943  0.1225 -0.3710
  149MOL   C11747773   1.882   1.564   0.428 -0.7595  0.6393 -0.0011
  149MOL   C11847774   1.783   1.494   0.363  0.3882 -1.2263  0.2300
  149MOL   C11947775   1.778   1.479   0.226  0.5072  0.1746 -0.2940
  149MOL   C12047776   1.876   1.551   0.147  0.5637  0.1819 -0.7165
  149MOL   C12147777   1.983   1.617   0.208 -0.3119 -0.4446  0.2502
  149MOL   H12247778   2.126   1.625   0.634  0.5521  2.3129 -0.2786
  149MOL   H12347779   2.171   1.523   0.499 -0.6112 -0.9649  1.4773
  149MOL   H12447780   2.158   1.757   0.359 -1.8729  0.6466 -0.1312
  149MOL   H12547781   1.882   1.570   0.536  2.3356  1.5937  0.0007
  149MOL   H12647782   1.701   1.454   0.421  1.6906 -2.0703  1.5402
  149MOL   H12747783   1.696   1.429   0.177  1.2352 -0.1897 -1.1394
  149MOL   H12847784   1.865   1.538   0.040  2.0797 -0.1741 -0.8259
  149MOL   H12947785   2.060   1.664   0.150 -0.2603 -0.2575  0.4671
  149MOL   C13047786   2.020   1.828   0.495 -0.1838  0.1776  0.0147
  149MOL   C13147787   1.918   1.909   0.409 -0.0926  0.3648  0.0306
  149MOL   C13247788   1.774   1.901   0.462 -0.5098 -0.0885  0.2580
  149MOL   C13347789   1.668   1.862   0.373 -0.0999 -0.0997 -0.0097
  149MOL   C13447790   1.539   1.872   0.427 -0.4674 -0.3333 -0.1759
  149MOL   C13547791   1.515   1.907   0.562 -0.0262  0.3545 -0.2947
  149MOL   C13647792   1.618   1.935   0.655  0.0451 -0.2346  0.6187
  149MOL   C13747793   1.745   1.938   0.600  0.1242  0.7172 -0.0654
  149MOL   H13847794   2.096   1.894   0.536  0.1717 -2.4492  3.8560
  149MOL   H13947795   1.980   1.782   0.585  1.5774  0.8122  1.1296
  149MOL   H14047796   1.910   1.879   0.305  0.0007 -1.0221  0.4158
  149MOL   H14147797   1.699   1.825   0.276 -2.2655  1.6931 -1.4334
  149MOL   H14247798   1.455   1.848   0.363 -2.2888  0.4206  1.8805
  149MOL   H14347799   1.413   1.920   0.595 -0.0595  1.0037 -0.6374
  149MOL   H14447800   1.598   1.967   0.756  0.7091  1.8922  0.0963
  149MOL   H14547801   1.827   1.954   0.669 -0.2458 -0.5121  0.6669
  149MOL   C14647802   1.959   2.062   0.416  0.0363 -0.2561 -0.2590
  149MOL   C14747803   2.035   2.118   0.288  0.0618 -1.0767 -0.2357
  149MOL   C14847804   1.971   2.078   0.151  0.1373  0.1420 -0.6314
  149MOL   C14947805   1.848   2.131   0.108 -0.0947  0.5748  0.1014
  149MOL   C15047806   1.793   2.104   8.098 -0.3619  0.5667  0.2112
  149MOL   C15147807   1.869   2.024   8.009  0.3732 -0.2155 -0.5457
  149MOL   C15247808   1.991   1.965   8.056  0.1067  0.2867  0.6254
  149MOL   C15347809   2.050   2.005   0.061  0.0448  1.1465 -0.3526
  149MOL   H15447810   2.021   2.095   0.499 -0.3745 -0.2018  0.0285
  149MOL   H15547811   1.864   2.115   0.427 -0.1070 -1.1786  3.5270
  149MOL   H15647812   2.133   2.068   0.282  1.0171  0.7100  0.2184
  149MOL   H15747813   1.799   2.199   0.176 -0.6424  0.6727 -0.3981
  149MOL   H15847814   1.699   2.146   8.066  0.0037  0.4112 -1.1230
  149MOL   H15947815   1.833   2.014   7.908  0.5590  1.1240 -0.7561
  149MOL   H16047816   2.045   1.902   7.987  0.0138 -0.2890  1.0750
  149MOL   H16147817   2.151   1.969   0.077  0.2777  2.0061  0.1384
  149MOL   C16247818   2.061   2.272   0.291  0.0494 -0.8675  0.0075
  149MOL   C16347819   2.205   2.306   0.346  0.5530 -0.9134  0.8893
  149MOL   C16447820   2.322   2.285   0.247  0.8427 -0.2907 -0.5031
  149MOL   C16547821   2.448   2.260   0.295 -0.0533 -0.5885 -1.0392
  149MOL   C16647822   2.558   2.234   0.209 -0.1065  0.0629  0.4422
  149MOL   C16747823   2.541   2.245   0.071  0.1359  0.0800 -0.0294
  149MOL   C16847824   2.415   2.278   0.017 -0.0881 -0.2840  0.1766
  149MOL   C16947825   2.303   2.300   0.104 -0.0626  0.1423 -0.0295
  149MOL   H17047826   1.980   2.321   0.345 -1.5173  0.0026 -3.0356
  149MOL   H17147827   2.036   2.311   0.192  2.0904 -3.0153 -1.4220
  149MOL   H17247828   2.221   2.227   0.420  0.1121 -0.7375  1.1734
  149MOL   H17347829   2.463   2.252   0.401  0.2943 -1.1503 -1.1245
  149MOL   H17447830   2.649   2.198   0.255 -0.7890 -0.6461  1.2688
  149MOL   H17547831   2.619   2.222   8.114 -0.3071 -0.2976 -0.3927
  149MOL   H17647832   2.410   2.304   8.027 -1.0792 -1.2446 -0.0187
  149MOL   H17747833   2.207   2.324   0.060 -0.8645 -1.8836  0.5684
  149MOL   C17847834   2.218   2.439   0.422  1.6007 -0.5568  0.1480
  149MOL   C17947835   2.129   2.460   0.547  0.6132 -0.3371  0.1445
  149MOL   C18047836   2.116   2.343   0.645 -0.4369 -0.1358  0.4136
  149MOL   C18147837   1.986   2.291   0.678 -0.4366  0.2876 -0.3495
  149MOL   C18247838   1.969   2.189   0.770 -0.3161  0.3188  0.4193
  149MOL   C18347839   2.080   2.148   0.848  0.6830  0.1170  0.4433
  149MOL   C18447840   2.205   2.198   0.817 -0.5756 -0.5056  0.8315
  149MOL   C18547841   2.224   2.292   0.715 -0.1377  0.4866 -0.3211
  149MOL   H18647842   2.202   2.521   0.352  1.3292 -1.0368 -0.3500
  149MOL   H18747843   2.321   2.452   0.455  1.5347 -0.1260  0.1918
  149MOL   H18847844   2.028   2.486   0.516  0.9330 -0.7282 -1.2535
  149MOL   H18947845   1.894   2.328   0.635  0.0470  0.0926 -1.5590
  149MOL   H19047846   1.877   2.142   0.804  0.7016 -2.9959 -1.2426
  149MOL   H19147847   2.064   2.082   0.933  1.1985 -0.4865  0.0776
  149MOL   H19247848   2.289   2.161   0.874 -0.9906 -1.2356  0.9725
  149MOL   H19347849   2.323   2.324   0.685  0.1970 -1.9851 -2.0060
  149MOL   C19447850   2.171   2.582   0.623 -0.2059 -0.4119  0.2102
  149MOL   C19547851   2.175   2.723   0.545 -0.2481  0.3052 -0.7750
  149MOL   C19647852   2.050   2.752   0.460 -0.3307 -0.5783 -0.6966
  149MOL   C19747853   1.928   2.777   0.526 -0.4137  0.3042  0.1674
  149MOL   C19847854   1.810   2.807   0.457 -0.0183 -0.3482 -0.0974
  149MOL   C19947855   1.815   2.827   0.320 -0.0291 -1.1119 -1.1853
  149MOL   C20047856   1.940   2.820   0.254 -0.0622  0.0179  0.5950
  149MOL   C20147857   2.058   2.785   0.323 -0.4043 -0.5541  0.9260
  149MOL   H20247858   2.269   2.568   0.667 -0.2042  0.6447  0.5811
  149MOL   H20347859   2.098   2.591   0.704 -1.0335 -0.1937 -0.5563
  149MOL   H20447860   2.257   2.714   0.474 -0.7246  0.3345 -1.3369
  149MOL   H20547861   1.907   2.771   0.632  0.8368 -1.9594  0.3112
  149MOL   H20647862   1.716   2.803   0.510 -1.0538  1.2679 -1.7690
  149MOL   H20747863   1.722   2.857   0.275 -2.1835 -2.6540  2.0715
  149MOL   H20847864   1.940   2.842   0.149 -1.7726 -0.7014  0.4336
  149MOL   H20947865   2.150   2.779   0.267 -1.6203  0.3960 -1.2295
  149MOL   C21047866   2.221   2.842   0.630  0.5164 -0.0339 -0.5706
  149MOL   C21147867   2.363   2.849   0.691  0.2664  0.3042  0.2392
  149MOL   C21247868   2.474   2.866   0.586 -0.5413  0.3325  0.2343
  149MOL   C21347869   2.560   2.758   0.549  0.8210 -0.1993 -0.7306
  149MOL   C21447870   2.643   2.766   0.436  0.2605 -0.5096  0.1692
  149MOL   C21547871   2.666   2.891   0.377  0.5785 -0.3141  0.2577
  149MOL   C21647872   2.587   3.001   0.413 -0.5709  0.4814 -0.6340
  149MOL   C21747873   2.496   2.989   0.520  0.4485  0.8655  0.1136
  149MOL   H21847874   2.139   2.871   0.697  0.3976 -4.2156  1.2620
  149MOL   H21947875   2.216   2.927   0.562 -2.3854  0.0204 -0.3746
  149MOL   H22047876   2.374   2.744   0.718  1.3045  0.4089  0.2252
  149MOL   H22147877   2.555   2.663   0.602 -2.7576  0.5839  0.4975
  149MOL   H22247878   2.709   2.690   0.397  0.2732 -0.0994 -0.6359
  149MOL   H22347879   2.744   2.892   0.302 -0.2213 -2.6511 -0.6415
  149MOL   H22447880   2.603   3.094   0.360  1.3388  0.7186  0.3067
  149MOL   H22547881   2.438   3.078   0.540  1.2798  1.7030 -1.1388
  149MOL   C22647882   2.381   2.955   0.803 -0.2287  0.2369  0.7103
  149MOL   C22747883   2.308   2.913   0.925  0.1779 -0.4498  1.1730
  149MOL   C22847884   2.381   2.794   0.986 -0.7008  0.0632 -0.1244
  149MOL   C22947885   2.507   2.809   1.050  0.4689 -0.5809 -0.1578
  149MOL   C23047886   2.583   2.696   1.089 -0.1744 -0.7621  0.5490
  149MOL   C23147887   2.528   2.566   1.077 -0.2042  0.7064  0.8194
  149MOL   C23247888   2.404   2.550   1.015 -0.8224 -0.3790  0.4323
  149MOL   C23347889   2.333   2.663   0.974 -0.2658 -0.3102  0.4670
  149MOL   H23447890   2.357   3.053   0.761 -1.5918 -0.8246 -1.0654
  149MOL   H23547891   2.484   2.950   0.839 -0.0952  0.7194  0.3996
  149MOL   H23647892   2.211   2.873   0.896  1.1234 -0.2415 -2.5656
  149MOL   H23747893   2.559   2.904   1.055  0.0826 -0.3109 -1.0540
  149MOL   H23847894   2.680   2.714   1.132 -0.6817 -0.8081  1.7435
  149MOL   H23947895   2.581   2.479   1.112 -0.7157  0.2393  0.4531
  149MOL   H24047896   2.368   2.450   0.995  0.4012 -0.9634  1.1250
  149MOL   H24147897   2.242   2.641   0.920 -0.7587  0.8947  0.7998
  149MOL   C24247898   2.301   3.033   1.027  0.5777 -0.1142 -0.5903
  149MOL   C24347899   2.197   3.141   0.994  0.2872 -0.4073 -0.1337
  149MOL   C24447900   2.059   3.083   0.962  0.8878 -0.0996 -1.1177
  149MOL   C24547901   1.990   3.108   0.842 -0.5749 -0.5227 -0.2534
  149MOL   C24647902   1.869   3.050   0.808 -0.1023 -0.3218 -0.2028
  149MOL   C24747903   1.804   2.956   0.888  0.3857  0.1961  0.2834
  149MOL   C24847904   1.868   2.933   1.015  0.1693  0.4874 -0.4256
  149MOL   C24947905   1.989   2.993   1.051 -0.1447  0.1521  0.0996
  149MOL   H25047906   2.399   3.080   1.019  0.2764  0.5291 -0.6011
  149MOL   H25147907   2.277   2.994   1.125  0.3736 -1.4869 -1.1758
  149MOL   H25247908   2.217   3.183   0.895  0.0586  0.2193  0.0840
  149MOL   H25347909   2.034   3.186   0.781 -0.4380  1.1404  1.9154
  149MOL   H25447910   1.821   3.076   0.714 -0.2499  0.1978  0.0126
  149MOL   H25547911   1.707   2.915   0.863  0.3332 -0.1160  0.9949
  149MOL   H25647912   1.812   2.868   1.081 -0.1352  0.1398 -1.0257
  149MOL   H25747913   2.024   2.972   1.151  0.5011 -0.4893 -0.2616
  149MOL   C25847914   2.195   3.254   1.095 -0.1656 -0.0323 -0.1735
  149MOL   C25947915   2.326   3.333   1.121 -0.1761  0.6833  0.2699
  149MOL   C26047916   2.305   3.491   1.123 -0.4894 -0.1786 -0.0674
  149MOL   C26147917   2.383   3.562   1.030 -0.0388  0.2628 -0.5301
  149MOL   C26247918   2.368   3.703   1.028 -0.0067  0.8363 -0.2777
  149MOL   C26347919   2.283   3.769   1.115  0.0767  0.4719 -0.4194
  149MOL   C26447920   2.208   3.694   1.208 -0.5131 -0.1446 -0.0892
  149MOL   C26547921   2.218   3.550   1.213  0.2162 -0.0615 -0.1642
  149MOL   H26647922   2.145   3.228   1.187  1.7851 -0.1546  0.8844
  149MOL   H26747923   2.116   3.317   1.055 -0.0178 -0.7818 -1.6972
  149MOL   H26847924   2.394   3.313   1.038 -1.2633  3.4356 -1.3494
  149MOL   H26947925   2.446   3.504   0.965  0.4024 -0.5980  0.6446
  149MOL   H27047926   2.427   3.769   0.966  3.1150 -1.0168  0.6239
  149MOL   H27147927   2.271   3.876   1.114 -0.1482  0.4434 -1.8705
  149MOL   H27247928   2.131   3.735   1.271  0.1657 -0.8027  1.1873
  149MOL   H27347929   2.162   3.490   1.283  0.1806 -3.0841 -2.6934
  149MOL   C27447930   2.395   3.279   1.251 -0.1599  0.0744  0.2430
  149MOL   C27547931   2.547   3.320   1.250  0.5616  0.4190 -0.4246
  149MOL   C27647932   2.608   3.327   1.390  0.4711 -0.1025  0.2375
  149MOL   C27747933   2.588   3.221   1.486  0.0228 -1.0913  0.2868
  149MOL   C27847934   2.629   3.238   1.617 -0.4648 -0.6233  0.0749
  149MOL   C27947935   2.696   3.354   1.654 -0.1917  0.4463 -0.4498
  149MOL   C28047936   2.722   3.461   1.563  0.1062 -0.3629 -0.4923
  149MOL   C28147937   2.675   3.445   1.431 -0.6190  0.3924 -0.9661
  149MOL   H28247938   2.383   3.171   1.259 -0.3791  0.1705  1.2914
  149MOL   H28347939   2.348   3.325   1.338 -0.9030  1.2094 -0.7521
  149MOL   H28447940   2.563   3.417   1.204  1.5826  1.7163  2.5597
  149MOL   H28547941   2.526   3.136   1.461  1.1125 -1.3564 -1.5814
  149MOL   H28647942   2.626   3.151   1.681 -0.6969  0.7657  2.0101
  149MOL   H28747943   2.720   3.375   1.757 -0.1169  0.5083 -0.4793
  149MOL   H28847944   2.777   3.550   1.591  1.2369 -1.1008 -0.3197
  149MOL   H28947945   2.700   3.527   1.365  1.7264 -0.1661 -0.8286
  149MOL   C29047946   2.626   3.217   1.165  1.0589  0.8669  0.1270
  149MOL   C29147947   2.781   3.244   1.152 -0.1613  0.2702  0.4702
  149MOL   C29247948   2.846   3.124   1.076  0.6938  0.2932 -0.6094
  149MOL   C29347949   2.808   3.091   0.944  0.6080  0.2718  0.2439
  149MOL   C29447950   2.858   2.977   0.891  0.6618 -0.4065  0.3695
  149MOL   C29547951   2.954   2.897   0.959 -0.1916 -0.6094 -0.4334
  149MOL   C29647952   2.983   2.928   1.094 -0.5133  1.1547  0.8599
  149MOL   C29747953   2.927   3.042   1.158 -0.5098 -0.2378 -0.3827
  149MOL   H29847954   2.584   3.232   1.066 -1.3932 -4.8424  0.0588
  149MOL   H29947955   2.604   3.111   1.184  1.8257  0.3417 -1.7904
  149MOL   H30047956   2.821   3.249   1.253 -2.4948  1.4439  1.3895
  149MOL   H30147957   2.734   3.146   0.888  0.1382 -0.5903  0.0021
  149MOL   H30247958   2.828   2.941   0.793 -1.7582  0.0887  0.8945
  149MOL   H30347959   2.995   2.805   0.919 -0.2889 -0.1441 -1.6216
  149MOL   H30447960   3.067   2.876   1.138  0.4300  2.5503  0.7467
  149MOL   H30547961   2.960   3.066   1.258 -0.7637  1.4024 -0.6860
  149MOL   C30647962   2.804   3.388   1.082 -0.4866  0.6120  0.0209
  149MOL   C30747963   2.944   3.434   1.066  0.4095 -0.3578  0.4486
  149MOL   C30847964   3.022   3.456   1.193 -0.1817  0.2224 -0.2447
  149MOL   C30947965   3.093   3.344   1.240 -0.0001  0.2195 -0.3633
  149MOL   C31047966   3.157   3.356   1.369 -0.4788 -0.7034 -0.5900
  149MOL   C31147967   3.141   3.484   1.442  0.4532  0.1904  0.4008
  149MOL   C31247968   3.072   3.590   1.384 -0.2508 -0.2401  0.1371
  149MOL   C31347969   3.004   3.578   1.259 -0.1245  0.1982 -0.3494
  149MOL   H31447970   2.762   3.468   1.143 -1.8959 -0.5295  0.5695
  149MOL   H31547971   2.749   3.389   0.988  0.9631 -1.6799 -0.8907
  149MOL   H31647972   2.944   3.529   1.013 -1.3471 -0.3070  0.4964
  149MOL   H31747973   3.103   3.254   1.182 -2.5669 -1.4343  1.6142
  149MOL   H31847974   3.218   3.274   1.405 -1.1681 -1.1395 -0.4039
  149MOL   H31947975   3.193   3.491   1.536  0.5282  1.7729  0.2595
  149MOL   H32047976   3.062   3.684   1.435 -0.0645  0.6802 -1.5023
  149MOL   H32147977   2.945   3.653   1.207  0.3131 -0.8355 -2.3967
  149MOL   H32247978   2.998   3.362   1.004  1.0201  2.2902 -2.2052
  150MOL     C147979   2.676   6.967   0.577 -0.4642 -0.5474  0.2316
  150MOL     C247980   2.763   7.035   0.465  0.1278  0.4008  0.3003
  150MOL     C347981   2.915   7.001   0.465  0.0795 -0.2680 -0.1133
  150MOL     C447982   3.012   7.104   0.476  0.0551  0.1873  0.0685
  150MOL     C547983   3.148   7.067   0.466  0.8335 -0.0787 -1.2484
  150MOL     C647984   3.186   6.929   0.450  0.5013  0.5007 -0.4450
  150MOL     C747985   3.088   6.828   0.438  0.7527  0.1742 -0.5626
  150MOL     C847986   2.951   6.863   0.450  0.2537 -0.2047 -0.1290
  150MOL     H947987   2.675   6.858   0.568 -0.3326 -0.5042 -0.3264
  150MOL    H1047988   2.730   6.992   0.669  0.2971 -0.3169 -0.2761
  150MOL    H1147989   2.752   7.142   0.480  0.9159  0.7465 -1.4490
  150MOL    H1247990   2.981   7.207   0.489  0.9703  0.2708  1.7968
  150MOL    H1347991   3.226   7.142   0.463 -0.1480  1.0032 -0.2109
  150MOL    H1447992   3.289   6.900   0.441  0.1369 -1.2119  0.5014
  150MOL    H1547993   3.117   6.727   0.415  1.7677  0.1700  0.6948
  150MOL    H1647994   2.871   6.800   0.416  0.4141 -1.0449  1.0242
  150MOL    H1747995   2.573   7.001   0.581 -0.7437 -1.2229 -1.0947
  150MOL    C1847996   2.699   7.009   0.324  0.0278  0.1476  0.4995
  150MOL    C1947997   2.570   7.083   0.289  0.5210 -0.2238 -0.3497
  150MOL    C2047998   2.582   7.233   0.306  0.0579  0.6908 -0.5850
  150MOL    C2147999   2.673   7.302   0.223  0.4988  0.0256 -0.4693
  150MOL    C2248000   2.690   7.436   0.241 -0.5014 -0.0604 -0.4164
  150MOL    C2348001   2.618   7.512   0.338 -0.5790 -0.0873 -0.2791
  150MOL    C2448002   2.520   7.441   0.414 -0.4926  0.4095  0.3460
  150MOL    C2548003   2.508   7.302   0.403  0.6451 -0.3546 -0.0078
  150MOL    H2648004   2.692   6.901   0.313 -0.1185  0.1967  0.0920
  150MOL    H2748005   2.765   7.048   0.247  0.1156 -0.4890  0.2577
  150MOL    H2848006   2.499   7.045   0.362 -1.1194  0.8244 -1.3484
  150MOL    H2948007   2.728   7.256   0.143 -0.6982  0.2759 -1.4420
  150MOL    H3048008   2.763   7.488   0.181  2.8638 -2.3044  1.5741
  150MOL    H3148009   2.633   7.619   0.348  1.6250 -0.7468  4.3358
  150MOL    H3248010   2.466   7.506   0.482  1.4899  1.3087  1.0947
  150MOL    H3348011   2.436   7.252   0.466  0.1578 -0.1008 -0.3547
  150MOL    C3448012   2.515   7.046   0.147  0.3573  0.0416 -0.3064
  150MOL    C3548013   2.444   6.907   0.142  0.3915 -0.5103 -0.3192
  150MOL    C3648014   2.312   6.918   0.221  0.7196  0.1411  0.0336
  150MOL    C3748015   2.289   6.842   0.342  0.4430  0.0319 -0.3462
  150MOL    C3848016   2.177   6.873   0.422 -0.1250  0.6146 -0.0016
  150MOL    C3948017   2.079   6.966   0.377  0.3543  0.5353 -0.3187
  150MOL    C4048018   2.094   7.025   0.251 -0.9839 -0.2800  0.7081
  150MOL    C4148019   2.216   7.007   0.180 -0.3190 -0.7239 -0.0954
  150MOL    H4248020   2.605   7.058   0.087  0.3525  2.1973  0.0857
  150MOL    H4348021   2.448   7.124   0.110  0.4890 -0.0619 -0.7580
  150MOL    H4448022   2.503   6.834   0.198  1.0474 -0.8590 -1.4483
  150MOL    H4548023   2.370   6.776   0.369 -0.0098  0.1154  1.2227
  150MOL    H4648024   2.165   6.807   0.507  1.8573 -1.7332 -1.4593
  150MOL    H4748025   1.994   6.986   0.440  0.4096 -2.4472  0.7909
  150MOL    H4848026   2.020   7.099   0.227  0.0771  1.1218  1.6288
  150MOL    H4948027   2.237   7.055   0.086  0.4954 -1.1702 -0.1490
  150MOL    C5048028   2.408   6.850   8.109 -0.0662 -0.3362 -0.4058
  150MOL    C5148029   2.533   6.829   8.025  0.9945 -0.4847  0.1873
  150MOL    C5248030   2.633   6.740   8.102 -0.2013  0.8855  0.2262
  150MOL    C5348031   2.593   6.614   0.031  0.0224 -0.4271  0.9428
  150MOL    C5448032   2.682   6.532   0.099  0.0992 -0.3298 -0.0956
  150MOL    C5548033   2.811   6.573   0.137 -0.2434  0.1235 -0.1554
  150MOL    C5648034   2.853   6.701   0.092 -0.7334  0.5581 -0.0646
  150MOL    C5748035   2.765   6.782   0.018 -0.3526 -0.7759 -0.6450
  150MOL    H5848036   2.346   6.919   8.052  2.0053  1.5411 -0.4811
  150MOL    H5948037   2.357   6.756   0.012 -0.6148  0.1210  0.4759
  150MOL    H6048038   2.582   6.925   8.012  1.4270 -1.0955 -3.0847
  150MOL    H6148039   2.495   6.573   0.008  0.6785 -0.4341 -2.0028
  150MOL    H6248040   2.666   6.429   0.129 -0.5298 -0.6484 -1.4770
  150MOL    H6348041   2.873   6.514   0.203  0.4559  1.2140  0.1813
  150MOL    H6448042   2.952   6.738   0.110 -0.4474 -0.1306 -0.2247
  150MOL    H6548043   2.794   6.876   8.089 -0.8071  0.4614  1.6562
  150MOL    C6648044   2.494   6.757   7.890 -0.4662 -0.0079 -0.7512
  150MOL    C6748045   2.517   6.834   7.761 -0.9323  0.8898  0.2213
  150MOL    C6848046   2.444   6.962   7.755  0.2651 -0.3234  0.8735
  150MOL    C6948047   2.312   6.961   7.693 -0.4297  0.3998 -0.4618
  150MOL    C7048048   2.231   7.071   7.688 -0.0926 -0.5412  0.5762
  150MOL    C7148049   2.270   7.185   7.763  0.0035  0.2180  0.6113
  150MOL    C7248050   2.387   7.188   7.838 -0.4764 -0.2598  0.0597
  150MOL    C7348051   2.476   7.080   7.824 -0.1410  0.1016  0.4416
  150MOL    H7448052   2.390   6.726   7.902 -1.0500  1.8635 -0.7527
  150MOL    H7548053   2.539   6.659   7.884 -1.6959 -0.5126 -1.9560
  150MOL    H7648054   2.472   6.768   7.687  0.7784 -1.5081  1.2595
  150MOL    H7748055   2.279   6.872   7.642 -1.2640  0.4285  0.0168
  150MOL    H7848056   2.133   7.077   7.645 -0.9077 -0.4066  2.3912
  150MOL    H7948057   2.211   7.275   7.778  1.1942  1.3397 -1.1762
  150MOL    H8048058   2.414   7.276   7.894  0.3202 -0.2474 -0.3384
  150MOL    H8148059   2.571   7.086   7.875  0.1120 -0.1712  0.0086
  150MOL    C8248060   2.666   6.853   7.725  0.5067  0.0371  0.2235
  150MOL    C8348061   2.761   6.735   7.684  0.6623 -0.4337  0.1792
  150MOL    C8448062   2.687   6.612   7.629 -0.2158 -0.3327 -0.1773
  150MOL    C8548063   2.627   6.614   7.501 -0.1315 -0.1586  0.0885
  150MOL    C8648064   2.559   6.501   7.448 -0.5533  0.8934  0.0079
  150MOL    C8748065   2.558   6.383   7.527  0.0348  0.4567  0.0272
  150MOL    C8848066   2.626   6.379   7.651  0.6625 -0.6209  0.0977
  150MOL    C8948067   2.694   6.490   7.699 -0.0947 -0.0142  0.1732
  150MOL    H9048068   2.702   6.919   7.804  0.0567 -0.1077  0.5474
  150MOL    H9148069   2.660   6.917   7.637  1.7873 -0.8752 -0.5357
  150MOL    H9248070   2.810   6.718   7.780  0.3452  2.4506  0.8730
  150MOL    H9348071   2.620   6.703   7.440 -0.5872 -1.1680 -1.3489
  150MOL    H9448072   2.532   6.500   7.343  0.0416  0.8658 -0.1487
  150MOL    H9548073   2.512   6.295   7.486 -2.4256  1.0674  1.3325
  150MOL    H9648074   2.628   6.279   7.692  3.5370 -1.5572 -2.1785
  150MOL    H9748075   2.746   6.480   7.793  0.1819 -0.2721 -0.0058
  150MOL    C9848076   2.880   6.788   7.597  0.6119  0.0908 -0.0202
  150MOL    C9948077   2.960   6.906   7.659  0.3068  0.4483  0.8016
  150MOL   C10048078   3.049   6.857   7.771  0.2651 -0.1493 -0.1103
  150MOL   C10148079   3.057   6.937   7.891  0.3395  0.3174 -0.1052
  150MOL   C10248080   3.138   6.895   7.996 -0.3866 -0.1989  0.2162
  150MOL   C10348081   3.229   6.792   7.987  0.2542 -0.1364 -0.3228
  150MOL   C10448082   3.229   6.724   7.863 -0.3131  0.0940 -0.6907
  150MOL   C10548083   3.134   6.744   7.767 -1.2891 -0.0981 -0.2945
  150MOL   H10648084   2.843   6.812   7.497  0.2749 -0.3085  0.0087
  150MOL   H10748085   2.952   6.710   7.573 -1.8113 -1.9410 -0.8746
  150MOL   H10848086   2.890   6.973   7.709 -2.3836 -0.9106 -1.0339
  150MOL   H10948087   2.997   7.026   7.902  0.0866 -0.0624  1.6464
  150MOL   H11048088   3.148   6.956   8.085  2.2053 -0.7605  0.3596
  150MOL   H11148089   3.305   6.770   8.060  1.2084  1.9966 -0.6199
  150MOL   H11248090   3.288   6.633   7.854 -1.5674 -0.7931 -0.1112
  150MOL   H11348091   3.131   6.685   7.677 -0.7990  0.7669 -0.8832
  150MOL   C11448092   3.030   6.983   7.557 -0.4956  0.2620 -0.7603
  150MOL   C11548093   2.943   7.097   7.493 -0.0617  0.3910 -0.4591
  150MOL   C11648094   2.913   7.198   7.602 -0.1480  0.3417 -0.4071
  150MOL   C11748095   2.782   7.210   7.654  0.0969  0.9797  0.3567
  150MOL   C11848096   2.760   7.315   7.751  0.1901 -0.2865  0.0563
  150MOL   C11948097   2.867   7.405   7.790  0.5831 -0.1450  0.0981
  150MOL   C12048098   2.991   7.379   7.742  0.0402 -0.4624  0.2250
  150MOL   C12148099   3.016   7.278   7.650 -0.8348  0.0779 -0.3141
  150MOL   H12248100   3.062   6.916   7.477 -1.9985 -1.6904  0.2357
  150MOL   H12348101   3.117   7.037   7.595  0.0980 -0.3387 -1.2380
  150MOL   H12448102   2.848   7.051   7.465 -0.9710  1.5164  0.7253
  150MOL   H12548103   2.694   7.156   7.621  0.6934  0.2012  0.0279
  150MOL   H12648104   2.661   7.334   7.788 -0.5812  1.9123 -2.9032
  150MOL   H12748105   2.853   7.480   7.865 -1.4282  0.6220 -1.0086
  150MOL   H12848106   3.076   7.437   7.772 -1.4281  1.2805  1.1140
  150MOL   H12948107   3.113   7.255   7.608  0.0690  0.5777  1.4408
  150MOL   C13048108   2.996   7.160   7.360  0.7909 -0.3895  0.3671
  150MOL   C13148109   2.924   7.292   7.320  0.1257 -0.6233  0.1211
  150MOL   C13248110   2.996   7.364   7.210 -0.5926 -0.3002 -0.2082
  150MOL   C13348111   2.982   7.334   7.077 -0.2170 -0.6795  0.8932
  150MOL   C13448112   3.053   7.420   6.981  0.6159 -0.0796 -0.8252
  150MOL   C13548113   3.138   7.521   7.024  0.1186  0.0675 -0.0241
  150MOL   C13648114   3.151   7.544   7.160  0.0641 -0.3228 -0.3423
  150MOL   C13748115   3.079   7.469   7.252 -0.0422 -0.3516 -0.0726
  150MOL   H13848116   2.997   7.107   7.265  0.8336 -0.6722  0.5267
  150MOL   H13948117   3.102   7.175   7.381  1.4769  1.8980 -4.1117
  150MOL   H14048118   2.937   7.363   7.401  2.9448 -0.8435 -0.1063
  150MOL   H14148119   2.923   7.248   7.050 -0.7649  0.6281 -2.3709
  150MOL   H14248120   3.047   7.389   6.878  0.2999 -0.4299 -0.7011
  150MOL   H14348121   3.191   7.592   6.962  0.6144 -0.3732 -0.1072
  150MOL   H14448122   3.214   7.621   7.202 -2.5520  1.4064  0.5043
  150MOL   H14548123   3.074   7.508   7.352 -0.5993 -0.6082  0.0032
  150MOL   C14648124   2.765   7.282   7.308  0.7020  0.2599 -0.1325
  150MOL   C14748125   2.694   7.403   7.359  0.1720  0.8781  0.7457
  150MOL   C14848126   2.741   7.527   7.290  0.8243  0.0413  0.3698
  150MOL   C14948127   2.820   7.616   7.369 -0.8173 -0.6464  0.2249
  150MOL   C15048128   2.870   7.734   7.318  0.4414 -0.6082 -0.4568
  150MOL   C15148129   2.827   7.778   7.191  0.0784 -0.1120  0.6347
  150MOL   C15248130   2.760   7.687   7.105 -0.4028 -0.1959 -0.5437
  150MOL   C15348131   2.719   7.559   7.150  0.0385  0.3687  0.4576
  150MOL   H15448132   2.733   7.205   7.378  1.7450 -1.8688 -1.9263
  150MOL   H15548133   2.743   7.256   7.205  3.0575  2.0058 -1.1288
  150MOL   H15648134   2.703   7.410   7.468  0.8870 -0.1056  0.7548
  150MOL   H15748135   2.838   7.586   7.471 -2.1772  1.9309  1.2847
  150MOL   H15848136   2.942   7.791   7.375  3.0689 -2.2598 -2.0329
  150MOL   H15948137   2.865   7.869   7.146 -2.0328  0.7413  0.5304
  150MOL   H16048138   2.737   7.721   7.005 -1.1618  1.2666  0.1072
  150MOL   H16148139   2.665   7.498   7.078 -0.8464  1.9565 -0.2551
  150MOL   C16248140   2.544   7.387   7.340 -0.4003  0.1799  0.0988
  150MOL   C16348141   2.461   7.510   7.388  0.2220 -0.1416  0.4757
  150MOL   C16448142   2.315   7.493   7.367  0.4750  0.4352 -0.1414
  150MOL   C16548143   2.245   7.432   7.473  0.1208  0.8984  0.7269
  150MOL   C16648144   2.106   7.410   7.456 -0.2903 -0.5215  0.0705
  150MOL   C16748145   2.034   7.451   7.341 -0.3441  0.0234  0.2692
  150MOL   C16848146   2.105   7.511   7.231 -0.2921  0.4596  0.1093
  150MOL   C16948147   2.240   7.536   7.248  0.6369 -0.6771 -0.2129
  150MOL   H17048148   2.507   7.302   7.397  2.2498 -1.2811 -0.3144
  150MOL   H17148149   2.518   7.363   7.237  1.0834 -0.2215 -0.1921
  150MOL   H17248150   2.484   7.587   7.315 -1.7030 -1.9993 -2.2187
  150MOL   H17348151   2.298   7.388   7.557  0.8730  2.3115  1.0092
  150MOL   H17448152   2.057   7.360   7.538 -0.1761 -0.7245  0.0154
  150MOL   H17548153   1.932   7.418   7.327  0.5471 -2.4297 -0.5196
  150MOL   H17648154   2.052   7.523   7.138 -2.6347 -2.3648  1.0038
  150MOL   H17748155   2.296   7.585   7.169  0.5805 -2.8679 -1.6601
  150MOL   C17848156   2.498   7.577   7.520 -0.0092  0.2771 -0.0197
  150MOL   C17948157   2.424   7.704   7.577  0.5685  0.1825  0.4301
  150MOL   C18048158   2.432   7.712   7.731 -0.2227 -0.8497 -0.0866
  150MOL   C18148159   2.318   7.762   7.790  0.0724 -0.5826 -0.1638
  150MOL   C18248160   2.300   7.769   7.928 -0.4880  0.2682 -0.1000
  150MOL   C18348161   2.401   7.715   8.005  0.2092  0.1139 -0.3415
  150MOL   C18448162   2.520   7.656   7.949 -0.0389 -0.4943  0.4894
  150MOL   C18548163   2.536   7.664   7.808  0.3205  0.4654 -0.2500
  150MOL   H18648164   2.601   7.612   7.519  0.2896 -0.4370  2.3560
  150MOL   H18748165   2.497   7.502   7.599  0.6009  1.4467  1.1318
  150MOL   H18848166   2.322   7.692   7.542  1.0305  0.4312 -1.0485
  150MOL   H18948167   2.239   7.797   7.726 -0.0601  0.3629  0.5021
  150MOL   H19048168   2.212   7.813   7.972 -0.2937  0.9435 -0.3791
  150MOL   H19148169   2.392   7.722   8.113 -0.2380  2.1582 -0.4803
  150MOL   H19248170   2.602   7.617   8.007  0.0163  1.0495  1.4609
  150MOL   H19348171   2.620   7.623   7.754 -1.0734  0.5048 -2.5120
  150MOL   C19448172   2.488   7.836   7.524  0.0837 -0.6099 -0.9310
  150MOL   C19548173   2.438   7.885   7.383  0.0655  0.2197  0.1704
  150MOL   C19648174   2.288   7.917   7.380  0.0618  0.4029 -0.2141
  150MOL   C19748175   2.221   7.870   7.262  0.8673 -0.2888 -0.3021
  150MOL   C19848176   2.079   7.879   7.261 -0.0558  0.4536 -0.6411
  150MOL   C19948177   2.011   7.944   7.366  0.4933 -0.0780  0.1603
  150MOL   C20048178   2.090   8.008   7.465  0.7121  0.6503 -0.2839
  150MOL   C20148179   2.223   7.981   7.487  0.0047  0.1490  0.4177
  150MOL   H20248180   2.597   7.831   7.521  0.1147 -0.3921 -0.3912
  150MOL   H20348181   2.456   7.910   7.598  2.0815 -2.2480  1.6483
  150MOL   H20448182   2.444   7.801   7.313  0.8991 -0.9540  1.6139
  150MOL   H20548183   2.278   7.823   7.183  1.5541 -0.5943  0.3691
  150MOL   H20648184   2.026   7.847   7.173  0.3357  0.9048 -1.0436
  150MOL   H20748185   1.904   7.928   7.366  0.3894  0.5663 -0.2585
  150MOL   H20848186   2.037   8.059   7.544  2.1984 -0.1515  1.2423
  150MOL   H20948187   2.279   8.030   7.565 -0.5325 -0.0265  0.9187
  150MOL   C21048188   2.521   8.013   7.355  0.5112 -0.5415  0.8685
  150MOL   C21148189   2.496   8.077   7.209  0.1109 -0.6996 -0.0668
  150MOL   C21248190   2.553   0.104   7.211 -0.2860  0.4066 -0.6085
  150MOL   C21348191   2.469   0.215   7.241 -0.2368 -0.3416 -0.1372
  150MOL   C21448192   2.519   0.349   7.249  0.1088  0.5745  0.1969
  150MOL   C21548193   2.656   0.371   7.227 -0.5051  0.4343  0.3859
  150MOL   C21648194   2.738   0.261   7.186  0.6871 -0.1219 -0.3657
  150MOL   C21748195   2.685   0.132   7.179  0.6126  0.4178 -0.2451
  150MOL   H21848196   2.627   7.997   7.375  0.2250 -0.1314  2.8043
  150MOL   H21948197   2.473   8.086   7.421 -1.0761 -1.6824  1.0182
  150MOL   H22048198   2.390   8.081   7.186 -0.0764  0.6102  0.9760
  150MOL   H22148199   2.367   0.193   7.267 -1.0762  2.9481 -0.4075
  150MOL   H22248200   2.456   0.426   7.291 -1.7305  0.0281 -1.4943
  150MOL   H22348201   2.705   0.466   7.242 -0.5499  0.3289  1.2476
  150MOL   H22448202   2.840   0.285   7.159  1.2590 -0.7585  1.1882
  150MOL   H22548203   2.749   0.046   7.160 -0.2782  0.0904 -1.8502
  150MOL   C22648204   2.546   7.985   7.085  0.8736  0.0026  0.7195
  150MOL   C22748205   2.501   8.012   6.940 -0.3256  0.4617  0.0679
  150MOL   C22848206   2.352   8.012   6.928 -0.5819  0.0385  0.1346
  150MOL   C22948207   2.280   7.895   6.904  0.9263  0.2944 -0.3776
  150MOL   C23048208   2.139   7.896   6.886 -0.1931 -0.3728  0.1883
  150MOL   C23148209   2.071   8.016   6.901 -0.0705 -0.0603 -0.0431
  150MOL   C23248210   2.143   0.020   6.918  0.2467  0.0413  0.3524
  150MOL   C23348211   2.281   0.017   6.934 -0.8413  0.3496  0.2774
  150MOL   H23448212   2.516   7.882   7.102 -1.7009  0.8406  1.5386
  150MOL   H23548213   2.654   7.970   7.089  1.0711  1.1113 -0.3891
  150MOL   H23648214   2.526   7.927   6.877  0.2308  0.9201 -0.3329
  150MOL   H23748215   2.336   7.803   6.910  0.7864  0.1411 -1.3486
  150MOL   H23848216   2.089   7.803   6.864 -0.1383 -0.6963  1.4276
  150MOL   H23948217   1.963   8.020   6.900 -0.0642  1.6404  2.0368
  150MOL   H24048218   2.087   0.112   6.921  0.3247  0.0355  1.9797
  150MOL   H24148219   2.337   0.106   6.961 -0.2039 -0.0768  0.3743
  150MOL   C24248220   2.564   0.021   6.873 -0.2342 -0.4597 -0.8610
  150MOL   C24348221   2.722   0.018   6.843  0.0355 -0.1746 -0.2577
  150MOL   C24448222   2.773   8.002   6.781  0.1400 -0.0283  0.7257
  150MOL   C24548223   2.705   7.950   6.670 -0.0308 -1.0552 -0.0453
  150MOL   C24648224   2.729   7.814   6.632 -0.2737  0.1064  0.3816
  150MOL   C24748225   2.823   7.738   6.709  0.8097 -0.5917  0.0786
  150MOL   C24848226   2.902   7.800   6.805 -0.1204 -0.1859  0.3687
  150MOL   C24948227   2.876   7.933   6.844  0.5827  0.1140  0.1890
  150MOL   H25048228   2.541   0.107   6.937  1.5342 -1.7287  1.5709
  150MOL   H25148229   2.511   0.027   6.778  0.8418  0.6730 -1.4164
  150MOL   H25248230   2.776   0.013   6.938  1.2180  1.1865 -0.8459
  150MOL   H25348231   2.630   8.010   6.621 -2.9020 -1.3779  3.7413
  150MOL   H25448232   2.670   7.770   6.554 -2.6448  3.4648  0.1804
  150MOL   H25548233   2.844   7.633   6.701  0.0128 -0.8374  1.0111
  150MOL   H25648234   2.977   7.746   6.862 -0.0158  1.3526  1.7292
  150MOL   H25748235   2.932   7.969   6.928 -1.7374  3.1225  0.5454
  150MOL   C25848236   2.760   0.151   6.775 -1.2983  0.2385  0.2112
  150MOL   C25948237   2.907   0.162   6.722  0.3977  0.2302 -0.2821
  150MOL   C26048238   2.914   0.235   6.581  0.0220 -0.3497  0.2824
  150MOL   C26148239   2.920   0.160   6.462 -0.1830 -0.4186  0.4804
  150MOL   C26248240   2.940   0.221   6.338 -0.0557  0.6002 -0.0278
  150MOL   C26348241   2.946   0.358   6.330 -0.0128 -0.7927 -0.5377
  150MOL   C26448242   2.919   0.435   6.443  0.1518 -0.0500 -0.6079
  150MOL   C26548243   2.910   0.375   6.571  0.9234 -0.1551  0.3766
  150MOL   H26648244   2.721   0.237   6.829 -0.6715 -0.3314  1.5841
  150MOL   H26748245   2.703   0.157   6.683  0.4483  2.0185 -0.8011
  150MOL   H26848246   2.940   0.061   6.702 -1.5549 -0.7179  1.1646
  150MOL   H26948247   2.916   0.052   6.455 -1.2271 -0.2605 -1.6172
  150MOL   H27048248   2.945   0.161   6.248  3.4467 -0.4929  0.8222
  150MOL   H27148249   2.951   0.407   6.234 -1.2666  0.5319  0.0485
  150MOL   H27248250   2.916   0.543   6.438 -0.1174  0.0200  0.8848
  150MOL   H27348251   2.904   0.444   6.654 -2.9950  0.2714 -0.1425
  150MOL   C27448252   2.997   0.224   6.837 -0.6421 -0.0696 -0.1216
  150MOL   C27548253   3.144   0.261   6.813 -0.2466  0.1843 -0.1489
  150MOL   C27648254   3.177   0.385   6.899  0.7227  1.1412  0.6189
  150MOL   C27748255   3.220   0.385   7.029 -0.2965 -0.4253 -0.3286
  150MOL   C27848256   3.245   0.503   7.098 -0.3348 -0.8581  0.0674
  150MOL   C27948257   3.237   0.629   7.033 -0.0248  0.1153  0.0464
  150MOL   C28048258   3.190   0.628   6.899  0.3910 -0.4782  0.4137
  150MOL   C28148259   3.164   0.504   6.831 -0.1013 -0.0407  0.6240
  150MOL   H28248260   2.999   0.171   6.932  0.2205  0.4482  0.1545
  150MOL   H28348261   2.959   0.323   6.860 -1.0453 -0.3818  0.5598
  150MOL   H28448262   3.155   0.304   6.713  0.2699  1.5832  0.4802
  150MOL   H28548263   3.239   0.293   7.082  2.1241  0.2628  0.0563
  150MOL   H28648264   3.266   0.499   7.203 -2.3405 -0.7408  0.4952
  150MOL   H28748265   3.257   0.722   7.084 -1.6261  1.0165 -0.9249
  150MOL   H28848266   3.178   0.715   6.836  1.9629  0.1762  0.9723
  150MOL   H28948267   3.126   0.506   6.730  1.7003  0.5046 -0.0536
  150MOL   C29048268   3.228   0.134   6.831 -0.0653  0.8904  0.5680
  150MOL   C29148269   3.380   0.148   6.789  0.3996 -0.5263  0.2259
  150MOL   C29248270   3.458   0.022   6.844 -0.0226  0.1266  0.3697
  150MOL   C29348271   3.556   0.040   6.947  0.3181  0.0743 -0.4783
  150MOL   C29448272   3.631   8.045   6.987  0.3783  0.4812  0.0119
  150MOL   C29548273   3.626   7.922   6.926 -0.0605 -0.6663  0.5916
  150MOL   C29648274   3.523   7.896   6.830  0.3392  0.2676 -0.4157
  150MOL   C29748275   3.438   8.004   6.792  0.5219 -0.3656 -0.3587
  150MOL   H29848276   3.165   0.063   6.778 -1.0922  1.1485  1.4107
  150MOL   H29948277   3.227   0.098   6.934 -1.6417 -1.5291 -0.2704
  150MOL   H30048278   3.417   0.234   6.845 -0.0596  0.2395 -0.6388
  150MOL   H30148279   3.576   0.140   6.983 -1.6348 -0.6011  2.7055
  150MOL   H30248280   3.703   8.071   7.063  1.7091  0.0453 -1.0792
  150MOL   H30348281   3.673   7.839   6.976  0.2739 -0.2349  0.9995
  150MOL   H30448282   3.508   7.796   6.792 -0.3341  0.8767 -1.8140
  150MOL   H30548283   3.368   7.973   6.716  1.1419 -3.5035  0.3085
  150MOL   C30648284   3.410   0.162   6.635  0.5616  0.0974 -0.5326
  150MOL   C30748285   3.549   0.189   6.596  0.2210  0.0201  1.1925
  150MOL   C30848286   3.587   0.162   6.454  0.0544 -0.3337  0.3038
  150MOL   C30948287   3.643   0.256   6.372  0.4480 -0.2014  0.2041
  150MOL   C31048288   3.681   0.226   6.238  0.7734 -0.0634  1.0093
  150MOL   C31148289   3.656   0.096   6.192 -0.3058 -0.3934  0.1863
  150MOL   C31248290   3.597   8.115   6.275  0.2903 -0.4895  0.4338
  150MOL   C31348291   3.570   0.029   6.410  0.2396 -0.3220  0.7344
  150MOL   H31448292   3.352   0.243   6.590  0.9380  0.2483 -0.7518
  150MOL   H31548293   3.393   0.064   6.591  0.7346 -0.7519  1.2344
  150MOL   H31648294   3.632   0.154   6.658  1.4489  1.2741  0.3197
  150MOL   H31748295   3.653   0.359   6.404  1.1126  0.5423 -2.2687
  150MOL   H31848296   3.731   0.302   6.180 -1.6771 -0.2951 -1.4880
  150MOL   H31948297   3.684   0.068   6.092 -4.6131 -3.5885 -0.2317
  150MOL   H32048298   3.585   8.011   6.247 -0.3739  0.0544 -1.3477
  150MOL   H32148299   3.530   8.065   6.473  1.2250 -1.6919 -0.3086
  150MOL   H32248300   3.550   0.296   6.618  3.8312  0.5116 -0.9586
  151MOL     C148301   2.865   5.029   0.318 -0.6731  0.1812 -0.0174
  151MOL     C248302   2.871   5.149   0.418 -0.2261  0.0609 -0.2469
  151MOL     C348303   2.999   5.234   0.396 -0.4341  0.2894 -0.7757
  151MOL     C448304   3.025   5.285   0.266 -0.4471  0.0523  0.0050
  151MOL     C548305   3.145   5.367   0.240 -0.4708 -0.0642 -0.6049
  151MOL     C648306   3.233   5.399   0.345  0.5019 -0.4436  0.0162
  151MOL     C748307   3.199   5.355   0.476 -0.2978  0.4747 -0.0420
  151MOL     C848308   3.088   5.272   0.499 -0.4004  0.1587 -0.2273
  151MOL     H948309   2.790   4.957   0.350  1.1518 -1.2335  1.1473
  151MOL    H1048310   2.857   5.063   0.215  1.5255  0.4797 -0.1104
  151MOL    H1148311   2.875   5.111   0.520  0.7951  2.5594  0.6805
  151MOL    H1248312   2.962   5.266   0.181 -0.6616  0.0704  0.1604
  151MOL    H1348313   3.162   5.393   0.137  1.2787 -3.2905 -1.1667
  151MOL    H1448314   3.317   5.462   0.321  0.4320 -1.3668 -2.8803
  151MOL    H1548315   3.266   5.385   0.555  0.2434 -0.2188 -0.2329
  151MOL    H1648316   3.070   5.234   0.599 -1.3383 -1.9248 -1.1561
  151MOL    H1748317   2.962   4.980   0.320 -0.1567  1.1876 -0.1012
  151MOL    C1848318   2.734   5.227   0.400 -0.3069  0.1179  0.5204
  151MOL    C1948319   2.721   5.347   0.495 -0.3629  0.0579  0.3230
  151MOL    C2048320   2.602   5.426   0.453 -0.1130 -0.1978  0.4030
  151MOL    C2148321   2.613   5.542   0.371 -0.3280  0.0074  0.1213
  151MOL    C2248322   2.497   5.612   0.331 -0.1530  0.0456  0.2369
  151MOL    C2348323   2.370   5.567   0.368  0.8866  0.5240 -0.1929
  151MOL    C2448324   2.355   5.444   0.434 -0.1795  0.3231 -0.1176
  151MOL    C2548325   2.471   5.377   0.488  0.4082 -0.3904  0.2256
  151MOL    H2648326   2.644   5.167   0.412 -0.6638 -0.1450 -2.8054
  151MOL    H2748327   2.729   5.245   0.292  0.1402 -0.1982  0.4448
  151MOL    H2848328   2.807   5.407   0.466 -0.3715  0.9786  2.1089
  151MOL    H2948329   2.711   5.578   0.342  0.7696 -2.2190  0.9711
  151MOL    H3048330   2.503   5.698   0.266  0.3538 -0.5063 -0.4478
  151MOL    H3148331   2.283   5.625   0.339 -0.5217 -1.0035  0.8589
  151MOL    H3248332   2.257   5.412   0.467  1.3619 -1.5808  2.7908
  151MOL    H3348333   2.462   5.282   0.538  1.1495 -1.4565 -1.5847
  151MOL    C3448334   2.723   5.318   0.649  0.3501 -0.0668  0.7240
  151MOL    C3548335   2.700   5.444   0.740 -0.2918  0.3857 -0.2293
  151MOL    C3648336   2.616   5.403   0.862  0.2084 -0.2261 -0.0239
  151MOL    C3748337   2.477   5.444   0.861 -0.0969  1.0662 -0.1693
  151MOL    C3848338   2.394   5.408   0.968  0.5071 -0.1986  0.0674
  151MOL    C3948339   2.454   5.359   1.090 -0.0948  0.0885 -0.3527
  151MOL    C4048340   2.588   5.319   1.097 -0.0858  0.2064  0.0114
  151MOL    C4148341   2.666   5.333   0.980  0.1330 -0.2589  1.0102
  151MOL    H4248342   2.808   5.257   0.678 -0.0980 -1.1994 -0.2653
  151MOL    H4348343   2.638   5.250   0.666 -0.2343  0.6752  0.7951
  151MOL    H4448344   2.633   5.515   0.692 -1.2335 -0.0506  0.4165
  151MOL    H4548345   2.435   5.500   0.779 -0.5466 -0.7139 -1.1565
  151MOL    H4648346   2.295   5.448   0.984  0.5485  0.2456 -0.7791
  151MOL    H4748347   2.385   5.349   1.173 -0.4249  1.4069 -0.4622
  151MOL    H4848348   2.634   5.281   1.187  2.1710 -0.8502 -1.5320
  151MOL    H4948349   2.770   5.303   0.972  0.1512 -0.1446  0.7783
  151MOL    C5048350   2.832   5.512   0.793 -0.1291  0.1435  0.2187
  151MOL    C5148351   2.937   5.574   0.695  0.2985  0.3881 -0.3598
  151MOL    C5248352   2.889   5.661   0.576  0.1160 -0.3768  0.6239
  151MOL    C5348353   2.950   5.652   0.447 -0.2196 -0.6726  0.1096
  151MOL    C5448354   2.914   5.750   0.356 -0.6451  0.1378  0.6356
  151MOL    C5548355   2.820   5.848   0.386  0.3869 -0.4191  0.4015
  151MOL    C5648356   2.742   5.832   0.502  0.5955 -0.2461  0.4935
  151MOL    C5748357   2.777   5.742   0.607  0.3215 -0.6690  0.3434
  151MOL    H5848358   2.887   5.450   0.863  0.6030  0.9229  0.3461
  151MOL    H5948359   2.803   5.593   0.860 -1.0962 -0.0638  0.0636
  151MOL    H6048360   2.983   5.488   0.646  0.7956  0.9166 -0.8300
  151MOL    H6148361   3.036   5.588   0.434  0.0051 -0.0531 -1.5979
  151MOL    H6248362   2.959   5.775   0.261  0.3022 -2.0411  0.4999
  151MOL    H6348363   2.782   5.919   0.315  1.0816 -1.0681 -0.6449
  151MOL    H6448364   2.656   5.896   0.511 -1.1475 -2.7008  1.8683
  151MOL    H6548365   2.728   5.739   0.703 -1.9026  0.0133 -0.7456
  151MOL    C6648366   3.069   5.634   0.757  0.5202  0.7613 -0.1899
  151MOL    C6748367   3.096   5.785   0.775  0.6157 -0.5060  0.1159
  151MOL    C6848368   3.000   5.851   0.872  0.4753 -0.3142  0.3878
  151MOL    C6948369   2.965   5.792   0.998  0.5076 -0.2841 -0.2802
  151MOL    C7048370   2.868   5.852   1.079 -0.2784 -0.1528 -0.3601
  151MOL    C7148371   2.808   5.978   1.041 -0.5906  0.7730  0.4094
  151MOL    C7248372   2.852   6.045   0.927 -0.3993  0.3426  0.1800
  151MOL    C7348373   2.943   5.979   0.842  0.7369  0.2943  0.3137
  151MOL    H7448374   3.149   5.595   0.694 -0.7133 -2.6385  0.2340
  151MOL    H7548375   3.082   5.575   0.847  1.7479  0.8929 -0.2703
  151MOL    H7648376   3.061   5.829   0.681  0.1968  2.4357  1.5998
  151MOL    H7748377   3.007   5.694   1.015 -0.5675 -0.4995  1.2265
  151MOL    H7848378   2.850   5.810   1.177  1.3847  2.6914  1.2239
  151MOL    H7948379   2.735   6.023   1.106 -0.5574  1.7059 -0.1858
  151MOL    H8048380   2.819   6.147   0.911  0.1083  0.6307  0.9799
  151MOL    H8148381   2.978   6.035   0.756  0.8244  0.8633  0.7209
  151MOL    C8248382   3.243   5.823   0.812 -0.1419  0.7751  0.0892
  151MOL    C8348383   3.338   5.788   0.695 -1.4581  0.0485  0.1835
  151MOL    C8448384   3.292   5.855   0.564 -0.2191  0.4858  0.0103
  151MOL    C8548385   3.269   5.776   0.449 -0.1837 -0.0345  0.4940
  151MOL    C8648386   3.232   5.836   0.321  0.5958  0.6732 -0.1966
  151MOL    C8748387   3.217   5.975   0.323  0.1904 -0.3359  0.9458
  151MOL    C8848388   3.233   6.055   0.438  0.1794 -0.0447  0.3664
  151MOL    C8948389   3.271   5.991   0.561 -0.9937 -0.2780  0.2587
  151MOL    H9048390   3.259   5.759   0.898 -0.2929  0.2704 -0.2575
  151MOL    H9148391   3.257   5.927   0.844  1.3151  1.2433 -1.9935
  151MOL    H9248392   3.335   5.680   0.680  0.0078  0.2264 -1.4620
  151MOL    H9348393   3.282   5.669   0.456 -0.6500 -0.2003 -1.0918
  151MOL    H9448394   3.209   5.776   0.234  0.8288  0.8013 -0.3456
  151MOL    H9548395   3.184   6.027   0.234 -1.3974  1.9678  2.8156
  151MOL    H9648396   3.229   6.163   0.439  0.5283 -0.0237 -0.1466
  151MOL    H9748397   3.294   6.051   0.648 -1.8939  1.8801 -0.9375
  151MOL    C9848398   3.486   5.830   0.714  0.0546 -0.1203  0.6035
  151MOL    C9948399   3.565   5.770   0.831  0.1801  0.1894 -0.0010
  151MOL   C10048400   3.571   5.612   0.824 -0.2910  0.1529 -0.2456
  151MOL   C10148401   3.687   5.542   0.778 -0.1135  0.4103 -0.2840
  151MOL   C10248402   3.693   5.403   0.780  0.1304  0.2175  1.2057
  151MOL   C10348403   3.587   5.331   0.833 -0.7326  0.3024 -0.0970
  151MOL   C10448404   3.478   5.396   0.880  0.0439 -0.4952 -0.3751
  151MOL   C10548405   3.463   5.532   0.866 -0.0120  0.0492  0.0167
  151MOL   H10648406   3.496   5.938   0.727  0.0848  0.2819 -2.4576
  151MOL   H10748407   3.543   5.805   0.624  0.0782 -0.7445  0.7895
  151MOL   H10848408   3.511   5.782   0.925 -1.8592 -0.0875 -1.1159
  151MOL   H10948409   3.775   5.598   0.750  0.1878  1.4747  2.6058
  151MOL   H11048410   3.773   5.347   0.734 -0.9644 -0.1490 -0.2853
  151MOL   H11148411   3.596   5.224   0.836 -0.0652  0.3464 -0.6166
  151MOL   H11248412   3.396   5.335   0.917 -0.8898  0.9312 -0.0696
  151MOL   H11348413   3.368   5.573   0.896 -0.2747 -0.0881 -0.6192
  151MOL   C11448414   3.705   5.831   0.858  0.3450  0.2533  0.3579
  151MOL   C11548415   3.709   5.970   0.920  0.1366  0.3167  0.0862
  151MOL   C11648416   3.633   5.990   1.054 -0.2337  0.5056  0.0489
  151MOL   C11748417   3.506   6.064   1.073 -0.3823  0.6083 -0.4393
  151MOL   C11848418   3.443   6.056   1.202 -0.1904  1.0046  0.4012
  151MOL   C11948419   3.496   5.982   1.307 -0.0774 -0.4896  0.1231
  151MOL   C12048420   3.612   5.911   1.285 -0.4223 -0.3256 -0.5286
  151MOL   C12148421   3.677   5.912   1.162  0.6866 -0.0142 -0.4907
  151MOL   H12248422   3.765   5.838   0.767  0.2919  1.3960  0.4032
  151MOL   H12348423   3.751   5.755   0.921  2.0438  1.5903  0.7751
  151MOL   H12448424   3.661   6.035   0.846  0.0511 -0.7959 -0.8397
  151MOL   H12548425   3.462   6.128   0.998 -2.0400  1.7630  1.5027
  151MOL   H12648426   3.348   6.104   1.219 -1.3542 -0.6624 -1.2839
  151MOL   H12748427   3.458   5.985   1.408 -1.2089  0.1598 -0.3015
  151MOL   H12848428   3.651   5.850   1.366 -0.0592  1.0057  0.3109
  151MOL   H12948429   3.773   5.865   1.146 -0.2925 -1.1748 -3.4124
  151MOL   C13048430   3.856   6.007   0.937 -0.8508  0.6313  0.8566
  151MOL   C13148431   3.928   6.077   0.814  0.0233  0.0706  0.7122
  151MOL   C13248432   3.905   6.228   0.820 -0.3063  0.0681  0.8908
  151MOL   C13348433   3.925   6.315   0.936  0.1394 -0.0375  0.3574
  151MOL   C13448434   3.884   6.448   0.933 -0.2145  0.2780 -0.0542
  151MOL   C13548435   3.833   6.505   0.821 -0.1871 -0.1142 -0.4648
  151MOL   C13648436   3.827   6.422   0.703  0.1672 -0.5028 -0.0021
  151MOL   C13748437   3.858   6.286   0.706 -0.0358  0.0959  0.0573
  151MOL   H13848438   3.911   5.917   0.966 -3.7511 -2.7697 -3.5657
  151MOL   H13948439   3.870   6.073   1.022 -0.2455  1.8520 -0.1615
  151MOL   H14048440   3.888   6.045   0.718 -0.8541 -1.6611  1.6327
  151MOL   H14148441   3.962   6.267   1.025 -0.2796  0.0368  0.5738
  151MOL   H14248442   3.896   6.509   1.021  1.3241 -2.8662  1.9947
  151MOL   H14348443   3.809   6.608   0.804  0.8698  0.0201 -1.2381
  151MOL   H14448444   3.794   6.461   0.607  1.0549  2.5349  0.8538
  151MOL   H14548445   3.845   6.218   0.623 -0.0624 -0.9627  0.9247
  151MOL   C14648446   4.083   6.059   0.804  0.7788 -0.3464 -0.1657
  151MOL   C14748447   4.142   5.935   0.743 -0.0082  0.0157 -0.1649
  151MOL   C14848448   4.151   5.818   0.835 -0.4637 -0.1212  0.0823
  151MOL   C14948449   4.058   5.714   0.824  0.7080  0.0290 -0.3096
  151MOL   C15048450   4.078   5.598   0.896  0.7114  0.2946  0.7057
  151MOL   C15148451   4.188   5.586   0.983  0.1511  0.1135 -0.6239
  151MOL   C15248452   4.282   5.685   0.994  0.0232 -0.0791  0.4265
  151MOL   C15348453   4.266   5.806   0.923  0.5802 -0.4834 -0.0739
  151MOL   H15448454   4.128   6.086   0.900 -0.5457  2.2552 -0.2370
  151MOL   H15548455   4.120   6.142   0.745 -1.0997 -0.9025 -2.1635
  151MOL   H15648456   4.245   5.964   0.724  0.5769 -2.5826 -1.1604
  151MOL   H15748457   3.984   5.717   0.745  1.1736 -0.1068 -0.7551
  151MOL   H15848458   4.000   5.523   0.897  2.2787 -1.3965  0.1105
  151MOL   H15948459   4.198   5.504   1.052 -2.0762  1.8725  1.9249
  151MOL   H16048460   4.361   5.683   1.068 -1.4549 -0.7818  2.0345
  151MOL   H16148461   4.336   5.888   0.930  0.2326 -0.1052 -1.0520
  151MOL   C16248462   4.088   5.902   0.597 -0.6699  0.0096 -0.0088
  151MOL   C16348463   4.080   6.015   0.491  0.7378 -0.1305 -0.3370
  151MOL   C16448464   4.214   6.077   0.459  0.2851  0.3536  0.1908
  151MOL   C16548465   4.245   6.205   0.506  0.0641 -0.3954  0.4970
  151MOL   C16648466   4.373   6.262   0.483  0.6492 -0.1051  0.2357
  151MOL   C16748467   4.463   6.194   0.392  0.2341 -0.2730 -0.8709
  151MOL   C16848468   4.429   6.070   0.339 -0.0152 -1.0570 -0.0417
  151MOL   C16948469   4.299   6.015   0.376 -0.2785  0.1471  0.3977
  151MOL   H17048470   3.992   5.850   0.595  0.7925 -2.8083 -0.1462
  151MOL   H17148471   4.161   5.831   0.556 -0.3593  0.2742  0.0809
  151MOL   H17248472   4.016   6.089   0.539 -0.7998 -1.4191 -0.3641
  151MOL   H17348473   4.173   6.256   0.569 -1.1450 -1.3887 -0.0392
  151MOL   H17448474   4.399   6.358   0.524 -0.8397 -0.5902  2.3860
  151MOL   H17548475   4.559   6.231   0.358  0.5126 -2.8017 -3.0675
  151MOL   H17648476   4.488   6.011   0.270  1.3167 -1.3543  1.3289
  151MOL   H17748477   4.279   5.915   0.341  0.9888 -0.6380  1.8705
  151MOL   C17848478   3.994   5.975   0.364  0.3233 -0.0187  0.0109
  151MOL   C17948479   3.843   5.958   0.346  0.1251 -0.2533 -0.4248
  151MOL   C18048480   3.768   6.091   0.358 -0.5240  0.4333  0.0400
  151MOL   C18148481   3.641   6.082   0.403  0.2381  0.5723 -0.1909
  151MOL   C18248482   3.562   6.194   0.435 -0.1875 -0.3114 -0.0584
  151MOL   C18348483   3.615   6.320   0.398 -0.0004  0.5763 -1.1291
  151MOL   C18448484   3.741   6.334   0.345 -0.1531  0.2702  0.4786
  151MOL   C18548485   3.819   6.216   0.324 -0.1739  0.6768  0.0845
  151MOL   H18648486   4.030   5.876   0.334 -1.1534 -0.2352 -1.0939
  151MOL   H18748487   4.009   6.041   0.279 -1.6447 -0.0774 -0.4157
  151MOL   H18848488   3.795   5.899   0.424 -0.3174  0.4370 -0.1666
  151MOL   H18948489   3.596   5.984   0.405  1.1437  0.1298 -1.3394
  151MOL   H19048490   3.463   6.177   0.474 -0.7857  1.8740 -0.5326
  151MOL   H19148491   3.556   6.409   0.416 -0.9906 -0.2527 -0.2419
  151MOL   H19248492   3.776   6.432   0.316 -0.3395 -0.3899 -2.1402
  151MOL   H19348493   3.919   6.235   0.288  0.0378  0.3331  0.4834
  151MOL   C19448494   3.808   5.885   0.218  0.1676  0.0944 -0.2370
  151MOL   C19548495   3.805   5.959   0.089 -0.9671 -0.4693 -0.1422
  151MOL   C19648496   3.944   6.019   0.043  0.3443  0.9383  0.3099
  151MOL   C19748497   3.954   6.154   0.000 -0.2245 -0.4646 -0.2402
  151MOL   C19848498   4.080   6.208   8.083 -0.3285 -0.9558  0.3397
  151MOL   C19948499   4.197   6.135   8.085 -1.2089  0.6540  0.0802
  151MOL   C20048500   4.186   5.997   0.012  0.1977 -0.3083  0.2057
  151MOL   C20148501   4.067   5.939   0.043 -0.1191  0.1555 -0.6319
  151MOL   H20248502   3.706   5.847   0.225  0.7767 -1.4365  0.4341
  151MOL   H20348503   3.867   5.794   0.209  0.7830  0.6110 -1.6089
  151MOL   H20448504   3.735   6.042   0.101 -0.4281  0.7337 -4.5015
  151MOL   H20548505   3.867   6.218   0.008  0.4553  0.3873  0.4334
  151MOL   H20648506   4.091   6.309   8.047 -1.6145 -1.1826 -0.6859
  151MOL   H20748507   4.290   6.183   8.057 -0.6671 -0.8655 -0.7784
  151MOL   H20848508   4.279   5.942   0.011 -0.6823 -1.8007 -0.6507
  151MOL   H20948509   4.056   5.838   0.078  1.9788 -0.7805 -2.5192
  151MOL   C21048510   3.737   5.873   8.094 -0.0569  0.2637  1.0235
  151MOL   C21148511   3.588   5.873   8.082  0.3112  0.9379 -0.0041
  151MOL   C21248512   3.527   6.006   8.088 -0.8581  0.0223  0.8369
  151MOL   C21348513   3.453   6.049   0.084  0.7333 -0.2216  0.6743
  151MOL   C21448514   3.387   6.175   0.081  0.3698 -0.6007 -0.5569
  151MOL   C21548515   3.417   6.258   8.091  0.0174 -0.5018 -0.1532
  151MOL   C21648516   3.495   6.219   7.983 -0.0006  0.1521  0.2685
  151MOL   C21748517   3.553   6.091   7.984 -0.7166 -0.6405  0.2409
  151MOL   H21848518   3.772   5.770   8.093 -2.2977 -0.5363 -0.9957
  151MOL   H21948519   3.771   5.928   8.006  0.8924  0.2063  1.3516
  151MOL   H22048520   3.552   5.820   0.055 -4.3266  0.0715 -2.3110
  151MOL   H22148521   3.435   5.987   0.171  0.1453 -1.7596 -0.5168
  151MOL   H22248522   3.316   6.204   0.157  1.3296 -0.8593  0.4496
  151MOL   H22348523   3.369   6.353   8.075  0.0651 -0.4122  0.2314
  151MOL   H22448524   3.521   6.293   7.909  2.6745  0.5822  1.6042
  151MOL   H22548525   3.613   6.052   7.902 -1.8900 -2.2248  0.1094
  151MOL   C22648526   3.552   5.787   7.959 -0.3192  0.1780  0.0989
  151MOL   C22748527   3.403   5.793   7.903 -0.2291  0.9416 -0.4396
  151MOL   C22848528   3.400   5.730   7.766  0.9213  0.0049 -0.3920
  151MOL   C22948529   3.374   5.810   7.656  0.6124  0.2022  0.4286
  151MOL   C23048530   3.358   5.753   7.526 -0.3365  0.6783  0.3582
  151MOL   C23148531   3.384   5.617   7.510 -0.0385  0.3666  0.2422
  151MOL   C23248532   3.417   5.535   7.620  0.1254 -0.2059 -0.0898
  151MOL   C23348533   3.415   5.594   7.747  0.5262 -0.3007  0.8126
  151MOL   H23448534   3.591   5.685   7.964 -0.7861  0.0430  1.3357
  151MOL   H23548535   3.616   5.825   7.880  1.8415 -3.0334  0.1935
  151MOL   H23648536   3.380   5.898   7.887  0.7787  0.9901 -1.6628
  151MOL   H23748537   3.359   5.916   7.664  0.0324  0.0859  0.9302
  151MOL   H23848538   3.349   5.813   7.437 -0.0946 -2.0945 -1.6130
  151MOL   H23948539   3.378   5.571   7.413  1.2193 -2.5673  1.5086
  151MOL   H24048540   3.432   5.429   7.606  1.2670 -0.0223 -0.2778
  151MOL   H24148541   3.428   5.534   7.836 -2.6370 -1.3216  0.6535
  151MOL   C24248542   3.306   5.728   8.009 -0.3742 -0.9839  0.3707
  151MOL   C24348543   3.156   5.733   7.960  0.0165  0.2760  0.6271
  151MOL   C24448544   3.077   5.607   8.003  0.8982 -0.1881 -0.3001
  151MOL   C24548545   3.095   5.493   7.926 -0.7586  0.2683  0.2701
  151MOL   C24648546   3.020   5.380   7.954  0.7418 -0.1669 -0.0023
  151MOL   C24748547   2.923   5.389   8.059  0.2389 -0.1668  0.3244
  151MOL   C24848548   2.917   5.499   0.028 -0.8055  0.1367 -0.3846
  151MOL   C24948549   3.006   5.603   0.004 -0.1106 -0.4565 -0.3338
  151MOL   H25048550   3.311   5.774   8.107 -0.4403 -0.3060  0.0599
  151MOL   H25148551   3.332   5.623   8.026  0.9154 -0.8117 -0.4166
  151MOL   H25248552   3.160   5.723   7.851 -1.9355 -2.3800  0.7513
  151MOL   H25348553   3.162   5.496   7.841  2.1143 -2.6731  2.2897
  151MOL   H25448554   3.028   5.290   7.896  1.6099  0.1089 -0.3064
  151MOL   H25548555   2.856   5.305   8.073 -0.3468  0.4787  1.4005
  151MOL   H25648556   2.863   5.494   0.121  2.5617  0.6793  1.6982
  151MOL   H25748557   2.995   5.689   0.068  0.7782 -1.9313  1.9002
  151MOL   C25848558   3.086   5.865   7.995 -0.1664  0.0669  1.0530
  151MOL   C25948559   2.947   5.883   7.937  0.3788 -0.2610  0.1908
  151MOL   C26048560   2.857   5.966   8.031  0.0259  0.7746 -1.0929
  151MOL   C26148561   2.851   6.105   8.023 -0.4485 -1.0449  0.5569
  151MOL   C26248562   2.757   6.181   8.092  0.2848 -0.2281 -0.2462
  151MOL   C26348563   2.667   6.115   0.064 -0.5709  0.1332 -0.3919
  151MOL   C26448564   2.671   5.975   0.079  0.1902  0.5419 -0.7453
  151MOL   C26548565   2.759   5.899   0.005 -0.2836 -0.3056 -0.2528
  151MOL   H26648566   3.138   5.956   7.964  3.7829 -2.2019  0.7260
  151MOL   H26748567   3.079   5.855   8.103 -1.8431  0.4279  0.9872
  151MOL   H26848568   2.898   5.786   7.941  1.1967 -0.6087  2.6562
  151MOL   H26948569   2.927   6.156   7.965 -0.8425  0.7831  1.5871
  151MOL   H27048570   2.755   6.287   8.075 -1.9268 -0.6459 -2.9853
  151MOL   H27148571   2.588   6.169   0.113 -0.3292 -0.2569  0.4377
  151MOL   H27248572   2.592   5.931   0.138  0.0244 -2.0837 -2.8442
  151MOL   H27348573   2.747   5.792   0.014  1.2614 -0.4333  0.4797
  151MOL   C27448574   2.928   5.945   7.792  0.2856 -0.0534 -0.6965
  151MOL   C27548575   2.979   5.870   7.671  0.2481  0.2606  0.2263
  151MOL   C27648576   2.925   5.726   7.660  0.1181 -0.5205  0.2705
  151MOL   C27748577   2.794   5.690   7.693 -0.1574  0.4483  0.0791
  151MOL   C27848578   2.748   5.558   7.694  0.2601  1.0627 -0.2984
  151MOL   C27948579   2.837   5.453   7.679 -0.3767  0.0565 -0.2495
  151MOL   C28048580   2.974   5.483   7.645  0.3450 -0.2718  0.6071
  151MOL   C28148581   3.015   5.617   7.635 -0.3055 -0.2752  1.1779
  151MOL   H28248582   2.979   6.042   7.787 -0.6866  0.5829  1.0849
  151MOL   H28348583   2.825   5.955   7.758 -0.1910  0.3254  0.8351
  151MOL   H28448584   3.087   5.868   7.688  0.0959  0.1757  1.1851
  151MOL   H28548585   2.730   5.773   7.719  0.5203  0.3664  2.1491
  151MOL   H28648586   2.650   5.525   7.726 -0.5565  1.8225 -1.9408
  151MOL   H28748587   2.798   5.353   7.689 -0.1153 -0.2250 -1.8756
  151MOL   H28848588   3.041   5.399   7.632 -0.7519 -1.4184  2.0994
  151MOL   H28948589   3.118   5.629   7.605 -0.2721 -1.4225  0.8023
  151MOL   C29048590   2.945   5.929   7.531  0.2617  0.0857  0.1856
  151MOL   C29148591   2.975   6.079   7.511 -0.1206  0.2866 -0.0041
  151MOL   C29248592   3.118   6.117   7.537 -0.3953 -0.3698 -0.3100
  151MOL   C29348593   3.166   6.194   7.649  1.2006  0.7130  0.1235
  151MOL   C29448594   3.298   6.227   7.671  0.2510  0.4905 -0.3446
  151MOL   C29548595   3.387   6.192   7.568  0.1929  0.5670  0.6357
  151MOL   C29648596   3.342   6.132   7.449  0.2387  0.0486 -0.1250
  151MOL   C29748597   3.209   6.096   7.436 -0.1374 -0.4065  0.6590
  151MOL   H29848598   2.839   5.917   7.511  0.5757  0.4652 -1.7433
  151MOL   H29948599   2.993   5.865   7.458  0.8379 -0.0529  0.6791
  151MOL   H30048600   2.916   6.133   7.584  0.6903  3.5240 -1.6433
  151MOL   H30148601   3.087   6.236   7.710  0.0943 -0.8175 -0.2427
  151MOL   H30248602   3.321   6.283   7.760  0.2288  0.1788 -0.1406
  151MOL   H30348603   3.493   6.206   7.582  0.4862 -1.6589  0.6983
  151MOL   H30448604   3.416   6.118   7.372  0.2497  1.4500 -0.3911
  151MOL   H30548605   3.182   6.045   7.346  0.7395 -0.1689  0.2512
  151MOL   C30648606   2.920   6.114   7.373  0.1355 -0.4465  0.3578
  151MOL   C30748607   2.942   6.260   7.341  0.3239 -0.2264  0.7082
  151MOL   C30848608   2.877   6.287   7.199  0.0706  0.5525 -0.0086
  151MOL   C30948609   2.777   6.390   7.182  0.0372 -0.4917 -0.3798
  151MOL   C31048610   2.704   6.399   7.059 -0.1078  0.0293 -0.0907
  151MOL   C31148611   2.752   6.334   6.949 -0.7052 -0.1027 -0.8574
  151MOL   C31248612   2.863   6.242   6.952 -0.4320  0.5171  0.2274
  151MOL   C31348613   2.918   6.217   7.080 -0.0262 -0.7791 -0.0481
  151MOL   H31448614   2.813   6.091   7.369 -0.3468  1.6844  0.1849
  151MOL   H31548615   2.954   6.060   7.284 -0.1690 -2.8404  1.6679
  151MOL   H31648616   3.043   6.298   7.353  0.8526 -0.4218 -2.5104
  151MOL   H31748617   2.764   6.449   7.272  0.4844  0.2187 -0.7815
  151MOL   H31848618   2.621   6.468   7.058 -0.0468  0.0996 -0.2453
  151MOL   H31948619   2.700   6.359   6.857 -1.2274 -2.2204 -1.1703
  151MOL   H32048620   2.898   6.192   6.863 -0.3446  2.2681 -0.7363
  151MOL   H32148621   3.006   6.155   7.078  1.5539  1.3792  0.1159
  151MOL   H32248622   2.890   6.316   7.419 -1.2843 -2.0977  1.0138
  152MOL     C148623   4.976   1.777   5.421  0.7210  0.0803 -0.1751
  152MOL     C248624   4.840   1.836   5.377 -0.0407  0.1189  0.1785
  152MOL     C348625   4.792   1.752   5.253  0.1863 -0.4948 -0.3802
  152MOL     C448626   4.720   1.630   5.265  0.2232 -0.1670 -0.5352
  152MOL     C548627   4.685   1.560   5.150 -0.5859  0.5835  0.1139
  152MOL     C648628   4.723   1.602   5.023  0.0341  0.1497 -0.5557
  152MOL     C748629   4.787   1.726   5.014  0.2691 -0.2370 -0.7250
  152MOL     C848630   4.831   1.793   5.129  0.0862 -0.3732  0.5951
  152MOL     H948631   5.022   1.834   5.502  2.1976 -2.6847  0.9954
  152MOL    H1048632   4.969   1.672   5.447 -1.9032 -0.0411 -1.2311
  152MOL    H1148633   4.865   1.940   5.352  0.1941 -0.3663 -1.6750
  152MOL    H1248634   4.707   1.583   5.362  0.5683  0.6832 -0.0647
  152MOL    H1348635   4.640   1.462   5.156  0.8143  0.0626  3.1785
  152MOL    H1448636   4.692   1.550   4.934 -1.1749  0.9791 -0.6262
  152MOL    H1548637   4.805   1.760   4.913 -0.5024 -0.4991 -0.9524
  152MOL    H1648638   4.892   1.880   5.106  2.4013 -1.3670  2.7433
  152MOL    H1748639   5.054   1.793   5.346  0.5306  2.8298  0.1612
  152MOL    C1848640   4.729   1.832   5.481  0.1014  0.1682  0.1341
  152MOL    C1948641   4.725   1.928   5.598 -0.5132 -0.5628 -1.1603
  152MOL    C2048642   4.746   2.075   5.564 -0.0518 -0.3079 -0.3008
  152MOL    C2148643   4.872   2.137   5.593  0.5013  0.2944  0.0723
  152MOL    C2248644   4.894   2.272   5.555  0.1297 -0.5880  0.9542
  152MOL    C2348645   4.792   2.340   5.484 -0.4322  0.2838  0.2569
  152MOL    C2448646   4.663   2.284   5.463 -0.0240  0.2991  0.2389
  152MOL    C2548647   4.644   2.153   5.502  0.2382 -0.5126 -0.0165
  152MOL    H2648648   4.719   1.730   5.518 -0.3357 -0.5725 -1.9589
  152MOL    H2748649   4.638   1.857   5.426 -0.9279 -0.4461  1.5390
  152MOL    H2848650   4.817   1.912   5.654  0.8070  1.0931 -2.7955
  152MOL    H2948651   4.946   2.075   5.641 -0.3182 -0.4395  0.3858
  152MOL    H3048652   4.987   2.324   5.571 -0.3172 -0.0640  1.8715
  152MOL    H3148653   4.814   2.440   5.450  1.6835  0.2734  1.5377
  152MOL    H3248654   4.582   2.330   5.408  1.9659  0.5288 -2.5805
  152MOL    H3348655   4.554   2.102   5.474  0.2653 -0.8029  0.4117
  152MOL    C3448656   4.602   1.907   5.689 -0.2340 -0.3815  0.6385
  152MOL    C3548657   4.602   1.786   5.784 -0.0228  0.3771  0.3484
  152MOL    C3648658   4.739   1.738   5.840  0.1736  0.1711 -0.0994
  152MOL    C3748659   4.779   1.608   5.816  0.0882 -0.0473  0.3752
  152MOL    C3848660   4.898   1.554   5.872 -0.3972  0.0370  0.2808
  152MOL    C3948661   4.975   1.631   5.962  0.0667 -0.3962 -0.8493
  152MOL    C4048662   4.928   1.760   5.985  0.5907  0.6857  0.2930
  152MOL    C4148663   4.813   1.812   5.931  1.0664 -0.3551 -0.4976
  152MOL    H4248664   4.516   1.921   5.624  2.3419  0.2515 -2.7707
  152MOL    H4348665   4.607   1.994   5.755 -0.2485  0.1888 -0.0992
  152MOL    H4448666   4.560   1.703   5.727 -0.5337 -1.3848  3.1580
  152MOL    H4548667   4.721   1.550   5.745 -0.4714  0.2841  0.5666
  152MOL    H4648668   4.921   1.450   5.856 -0.1178  0.3152 -1.2567
  152MOL    H4748669   5.064   1.591   6.007  1.0012  0.9966 -1.4248
  152MOL    H4848670   4.978   1.815   6.063  0.2961  2.5695 -0.8175
  152MOL    H4948671   4.776   1.905   5.973  1.2776 -0.3531 -0.3158
  152MOL    C5048672   4.492   1.803   5.894  0.2059  0.4938 -0.0197
  152MOL    C5148673   4.470   1.680   5.986 -0.2035  0.0294  0.0022
  152MOL    C5248674   4.401   1.722   6.109 -0.0111 -0.1206 -0.1189
  152MOL    C5348675   4.272   1.776   6.110 -1.0670  0.0225 -0.3262
  152MOL    C5448676   4.213   1.818   6.229  0.1473  0.2660  0.7132
  152MOL    C5548677   4.283   1.807   6.353  1.0654  0.3097  0.7034
  152MOL    C5648678   4.415   1.767   6.354  0.1224  0.4087 -0.2400
  152MOL    C5748679   4.471   1.716   6.231 -0.2477 -0.0352  0.4903
  152MOL    H5848680   4.394   1.834   5.860  0.0298 -0.4061 -0.3362
  152MOL    H5948681   4.528   1.886   5.955 -2.0567  0.7402  1.0028
  152MOL    H6048682   4.570   1.649   6.014 -0.5756  0.3308  1.7266
  152MOL    H6148683   4.228   1.770   6.011  0.6242  0.3496 -1.1219
  152MOL    H6248684   4.110   1.850   6.236  0.0212 -0.2408  1.2537
  152MOL    H6348685   4.236   1.823   6.449 -0.5025 -2.1289  0.4096
  152MOL    H6448686   4.473   1.752   6.444 -1.0402 -1.5288  0.2250
  152MOL    H6548687   4.570   1.674   6.240 -0.6283 -1.0316  0.0541
  152MOL    C6648688   4.410   1.556   5.920  0.3163 -0.0090 -0.1111
  152MOL    C6748689   4.404   1.431   6.010  0.2948 -0.2938  0.1342
  152MOL    C6848690   4.299   1.341   5.943  0.5403  0.5740 -0.1653
  152MOL    C6948691   4.330   1.268   5.826 -0.8481 -0.3384  0.0912
  152MOL    C7048692   4.233   1.185   5.773  0.1837  0.1567 -0.5403
  152MOL    C7148693   4.104   1.168   5.832 -0.5688 -0.0280 -0.3605
  152MOL    C7248694   4.075   1.246   5.944 -1.0272  0.5399 -0.2123
  152MOL    C7348695   4.173   1.328   6.004  0.5511 -0.4133  0.0592
  152MOL    H7448696   4.462   1.528   5.828  0.1533  0.2339 -0.2747
  152MOL    H7548697   4.310   1.579   5.886  0.5462 -0.4176 -1.0741
  152MOL    H7648698   4.356   1.457   6.104 -0.6274  0.4479 -0.5328
  152MOL    H7748699   4.423   1.282   5.772 -1.6142 -0.7615 -1.3793
  152MOL    H7848700   4.260   1.136   5.681  0.1757 -0.0060 -0.4553
  152MOL    H7948701   4.022   1.110   5.792 -0.0285 -0.2865 -1.1027
  152MOL    H8048702   3.979   1.235   5.993  0.8446 -2.5127  2.9431
  152MOL    H8148703   4.150   1.376   6.098 -0.4356 -0.6438 -0.0605
  152MOL    C8248704   4.542   1.372   6.022 -1.1951  0.0710  0.2480
  152MOL    C8348705   4.553   1.229   6.090  0.8405  0.2372 -0.2096
  152MOL    C8448706   4.682   1.162   6.041  0.3069  0.1330  0.3209
  152MOL    C8548707   4.810   1.216   6.072  0.2683 -0.0287 -0.5184
  152MOL    C8648708   4.923   1.179   6.001  0.1392  0.8203 -0.5176
  152MOL    C8748709   4.906   1.082   5.900 -0.4883  0.3678 -0.1841
  152MOL    C8848710   4.778   1.036   5.857  0.0211  0.3012 -0.1064
  152MOL    C8948711   4.667   1.067   5.935 -0.9034  0.3748  0.4926
  152MOL    H9048712   4.617   1.436   6.070 -0.4223 -1.3997  1.0497
  152MOL    H9148713   4.589   1.354   5.926 -0.7345  2.1224  0.0608
  152MOL    H9248714   4.474   1.164   6.053 -0.1623 -0.4554  2.9697
  152MOL    H9348715   4.818   1.296   6.145 -1.9462  0.2521 -0.5358
  152MOL    H9448716   5.020   1.223   6.016 -0.0039  0.7913  0.5370
  152MOL    H9548717   4.993   1.043   5.850 -2.6703 -2.6890 -1.7890
  152MOL    H9648718   4.757   0.973   5.771 -1.4438  0.0956  0.3859
  152MOL    H9748719   4.569   1.047   5.896 -0.5330  0.9335 -0.7287
  152MOL    C9848720   4.544   1.242   6.241  0.3742 -0.1497 -0.7429
  152MOL    C9948721   4.593   1.123   6.331  0.2253 -0.1977  0.0289
  152MOL   C10048722   4.616   1.157   6.472  0.3788  0.1378  0.3311
  152MOL   C10148723   4.744   1.185   6.517 -0.6167  0.1113 -0.2260
  152MOL   C10248724   4.761   1.214   6.653 -0.3386 -0.9148 -0.5656
  152MOL   C10348725   4.654   1.207   6.747  0.1880  0.9861 -0.8698
  152MOL   C10448726   4.530   1.184   6.691 -0.0995  0.9114 -0.0064
  152MOL   C10548727   4.506   1.162   6.559  0.1990 -0.1460 -0.5782
  152MOL   H10648728   4.446   1.279   6.273 -0.1248 -2.1691  0.1020
  152MOL   H10748729   4.618   1.318   6.267 -0.1961 -0.1277  0.9222
  152MOL   H10848730   4.690   1.086   6.298  0.2221 -0.2386  0.0661
  152MOL   H10948731   4.827   1.194   6.449 -1.4563 -0.1958 -1.3044
  152MOL   H11048732   4.860   1.221   6.696 -0.9157 -0.8728  0.7929
  152MOL   H11148733   4.676   1.223   6.851 -0.5529 -0.3532 -0.4968
  152MOL   H11248734   4.454   1.195   6.766  1.5444  1.6781  1.5887
  152MOL   H11348735   4.402   1.157   6.529 -0.4137 -1.7461  1.6527
  152MOL   C11448736   4.514   0.992   6.314 -0.3679 -0.3522  0.3996
  152MOL   C11548737   4.603   0.869   6.340  0.0440  0.3439  0.0044
  152MOL   C11648738   4.513   0.749   6.377 -0.5896  0.5133  0.1070
  152MOL   C11748739   4.528   0.692   6.504 -0.4941 -0.3180  0.5191
  152MOL   C11848740   4.458   0.580   6.554  0.1797  0.0874  0.3763
  152MOL   C11948741   4.358   0.526   6.470  0.3678 -0.0436  0.4954
  152MOL   C12048742   4.337   0.581   6.343  0.6680 -0.4708  0.3485
  152MOL   C12148743   4.418   0.689   6.293  0.0441 -0.1165 -0.7395
  152MOL   H12248744   4.488   0.985   6.208  2.7439  0.5849 -0.4765
  152MOL   H12348745   4.425   0.989   6.376 -0.4338  2.1711  0.4893
  152MOL   H12448746   4.670   0.880   6.425 -1.0806  1.8307  0.7332
  152MOL   H12548747   4.598   0.736   6.574 -0.8596  1.8706 -0.4454
  152MOL   H12648748   4.482   0.530   6.647  1.7983 -3.6316 -1.8934
  152MOL   H12748749   4.306   0.434   6.493 -1.0429  0.7253  0.4518
  152MOL   H12848750   4.257   0.549   6.279  0.4225 -0.8022  0.8174
  152MOL   H12948751   4.394   0.726   6.195  0.7102 -0.3264 -0.9841
  152MOL   C13048752   4.701   0.835   6.216 -0.3934 -0.3195  0.7222
  152MOL   C13148753   4.763   0.692   6.210 -0.1831  0.7455 -0.4648
  152MOL   C13248754   4.786   0.656   6.062 -0.1397 -0.2000  0.5479
  152MOL   C13348755   4.885   0.723   5.985  0.7241  0.2600 -0.3766
  152MOL   C13448756   4.909   0.698   5.853 -0.5891 -0.1891 -0.8032
  152MOL   C13548757   4.824   0.603   5.785 -0.3936 -0.0411  0.6843
  152MOL   C13648758   4.721   0.548   5.858 -0.2846  0.3503  0.4399
  152MOL   C13748759   4.702   0.565   5.997  0.2189 -0.2370  0.0018
  152MOL   H13848760   4.763   0.923   6.199 -0.9025  0.4542  2.6707
  152MOL   H13948761   4.636   0.840   6.129 -1.5444 -1.1490  1.5253
  152MOL   H14048762   4.693   0.611   6.230  0.4720  0.2561 -0.1175
  152MOL   H14148763   4.952   0.787   6.041  0.5882 -1.0413  1.3402
  152MOL   H14248764   5.000   0.733   5.808  0.6814 -0.5864  1.3968
  152MOL   H14348765   4.839   0.573   5.683 -2.1153  2.5469 -0.3677
  152MOL   H14448766   4.658   0.474   5.810  0.0382  1.3652 -1.5721
  152MOL   H14548767   4.621   0.517   6.051  0.4278  0.6049  1.0515
  152MOL   C14648768   4.879   0.662   6.311  0.3954 -0.3762 -0.3732
  152MOL   C14748769   4.916   0.521   6.347  0.0661  0.3273  0.4595
  152MOL   C14848770   5.067   0.515   6.399  0.3001 -0.3122 -0.1885
  152MOL   C14948771   5.159   0.454   6.320  0.2660  0.4860 -0.1731
  152MOL   C15048772   5.294   0.436   6.366 -0.1801  0.0792 -0.7628
  152MOL   C15148773   5.331   0.478   6.496  0.1596 -0.0949 -0.0557
  152MOL   C15248774   5.237   0.558   6.572 -1.1313 -0.1946 -0.1067
  152MOL   C15348775   5.103   0.564   6.524  0.4883  0.8442  0.5349
  152MOL   H15448776   4.856   0.708   6.407  1.3664 -0.7330  0.0305
  152MOL   H15548777   4.965   0.723   6.283 -0.2860  0.0605 -1.5513
  152MOL   H15648778   4.902   0.452   6.264 -2.4910  0.8754  0.4025
  152MOL   H15748779   5.134   0.433   6.217  0.4990 -1.8592  0.2111
  152MOL   H15848780   5.362   0.382   6.301  0.1314  0.3778 -0.6861
  152MOL   H15948781   5.429   0.457   6.536 -0.6553  0.1138  2.0871
  152MOL   H16048782   5.260   0.594   6.671  1.7855  0.3363 -0.9420
  152MOL   H16148783   5.031   0.604   6.594  0.4996  0.8532  0.5405
  152MOL   C16248784   4.816   0.473   6.462  0.1551  0.1818 -0.2982
  152MOL   C16348785   4.839   0.335   6.522  0.0762 -0.2768  1.0894
  152MOL   C16448786   4.806   0.333   6.672  0.5934 -0.2036 -0.2623
  152MOL   C16548787   4.913   0.338   6.773 -0.3730 -0.3087  0.6676
  152MOL   C16648788   4.883   0.336   6.914 -0.1364  0.0727 -1.0391
  152MOL   C16748789   4.751   0.307   6.949 -0.5346  0.0571 -0.5523
  152MOL   C16848790   4.641   0.302   6.858  0.5505 -0.3869  0.1930
  152MOL   C16948791   4.671   0.319   6.721  0.5643 -0.6238  0.5854
  152MOL   H17048792   4.712   0.478   6.428  0.1839  1.9456 -0.1783
  152MOL   H17148793   4.806   0.546   6.542  0.7465 -1.2186  1.0795
  152MOL   H17248794   4.944   0.305   6.521  0.5559  1.3989  0.3708
  152MOL   H17348795   5.015   0.349   6.741 -0.5904  1.3000  0.4843
  152MOL   H17448796   4.962   0.337   6.988 -1.6202 -2.8040  0.6659
  152MOL   H17548797   4.748   0.286   7.054  0.4880  1.7459 -0.1659
  152MOL   H17648798   4.537   0.302   6.887  1.0078 -1.3146  1.8974
  152MOL   H17748799   4.591   0.317   6.648  1.1804 -0.0197 -0.1172
  152MOL   C17848800   4.771   0.218   6.440 -0.0955 -0.1605  0.0311
  152MOL   C17948801   4.769   0.072   6.503  0.7560  0.2436 -0.7987
  152MOL   C18048802   4.660   8.102   6.425  0.5067 -0.5533 -0.3286
  152MOL   C18148803   4.545   8.047   6.490 -0.0811  0.4872  0.2696
  152MOL   C18248804   4.442   7.988   6.413  0.1430 -0.0357  0.4854
  152MOL   C18348805   4.459   7.969   6.276  0.5328 -0.8233  0.7393
  152MOL   C18448806   4.578   8.006   6.216 -0.3749 -0.4683 -0.0420
  152MOL   C18548807   4.679   8.077   6.288  0.1057 -0.1816  0.1664
  152MOL   H18648808   4.827   0.215   6.347 -1.2018 -0.3572 -0.6296
  152MOL   H18748809   4.673   0.252   6.408 -0.6782 -1.3229  0.5603
  152MOL   H18848810   4.724   0.086   6.602  2.6678 -1.3924  0.3221
  152MOL   H18948811   4.540   8.045   6.598  0.2261  2.0649  0.3352
  152MOL   H19048812   4.358   7.933   6.452 -0.9765  0.9068 -0.5478
  152MOL   H19148813   4.385   7.905   6.229 -0.6191  1.8784 -1.2908
  152MOL   H19248814   4.606   7.983   6.114 -0.5734 -0.1713 -0.1617
  152MOL   H19348815   4.765   0.003   6.237 -0.2885 -1.4730 -1.5731
  152MOL   C19448816   4.911   0.003   6.512  0.0702 -0.2999  0.0871
  152MOL   C19548817   4.933   8.003   6.625  0.0316 -0.3025  0.6996
  152MOL   C19648818   5.042   7.903   6.580  0.6676 -0.8497 -0.2910
  152MOL   C19748819   5.004   7.766   6.563  0.4987  0.6329  0.0957
  152MOL   C19848820   5.095   7.668   6.509  0.1471  0.2125 -0.1157
  152MOL   C19948821   5.215   7.710   6.454  0.1690 -0.4279  0.5428
  152MOL   C20048822   5.250   7.849   6.465  0.8324  0.0901 -0.6812
  152MOL   C20148823   5.170   7.946   6.526 -0.1201 -0.4384 -0.5448
  152MOL   H20248824   4.995   0.073   6.505 -0.4371  0.1444 -1.7686
  152MOL   H20348825   4.916   8.052   6.425  4.2075  0.5007 -0.3837
  152MOL   H20448826   4.841   7.945   6.620  0.0942 -0.3731  0.4037
  152MOL   H20548827   4.915   7.731   6.612 -0.0869  0.3848 -1.1263
  152MOL   H20648828   5.083   7.561   6.508  1.8662 -0.0144  0.6681
  152MOL   H20748829   5.276   7.639   6.400 -0.8814 -0.6010 -0.4317
  152MOL   H20848830   5.345   7.884   6.429 -1.3673  3.2378 -3.8620
  152MOL   H20948831   5.218   8.040   6.550 -1.3476 -0.3715  1.6888
  152MOL   C21048832   4.962   8.066   6.766 -0.4466  0.1878 -0.2810
  152MOL   C21148833   4.899   7.986   6.886 -0.3258  0.1586 -0.0799
  152MOL   C21248834   4.756   7.952   6.873  0.4077 -0.2372  0.0833
  152MOL   C21348835   4.663   8.058   6.863  0.3407  0.1725 -0.1138
  152MOL   C21448836   4.523   8.029   6.848 -0.8713  0.3628  0.6787
  152MOL   C21548837   4.476   7.901   6.846 -0.8142 -0.1131 -0.4808
  152MOL   C21648838   4.566   7.794   6.852  0.4124  0.3386  0.1350
  152MOL   C21748839   4.702   7.818   6.873  1.1519  0.7763 -0.1149
  152MOL   H21848840   4.913   0.048   6.779  1.7678  1.3661 -0.4599
  152MOL   H21948841   5.068   8.085   6.779 -0.9649  2.0295  1.6111
  152MOL   H22048842   4.891   8.051   6.973  1.6553 -0.3443  0.4994
  152MOL   H22148843   4.700   0.045   6.865 -1.0980  0.6775  2.6752
  152MOL   H22248844   4.458   8.114   6.834 -1.2972 -0.1783 -0.6944
  152MOL   H22348845   4.369   7.890   6.847 -0.9251  0.5631  3.6138
  152MOL   H22448846   4.524   7.694   6.849  0.1332  0.4247  1.1254
  152MOL   H22548847   4.761   7.727   6.884 -1.6603 -1.1404 -0.3901
  152MOL   C22648848   4.998   7.870   6.921  0.1176  0.4814 -0.4262
  152MOL   C22748849   5.138   7.910   6.974 -1.2409  0.3973  0.6637
  152MOL   C22848850   5.118   8.005   7.093 -0.0445 -0.4091 -0.8778
  152MOL   C22948851   5.170   0.018   7.082 -0.8896  0.2450  0.0316
  152MOL   C23048852   5.154   0.106   7.188  0.0566  0.5045 -0.4716
  152MOL   C23148853   5.107   0.053   7.312 -0.4710  0.6425 -0.0257
  152MOL   C23248854   5.045   8.042   7.315 -0.2730  0.2178  0.3187
  152MOL   C23348855   5.049   7.958   7.207 -0.1518  0.2978  0.0703
  152MOL   H23448856   5.005   7.817   6.826  1.6292  1.7672 -1.0423
  152MOL   H23548857   4.943   7.805   6.990 -0.5851  2.3996  0.8465
  152MOL   H23648858   5.201   7.958   6.899 -0.3563 -1.2255  0.3449
  152MOL   H23748859   5.197   0.061   6.987 -0.7465  2.3252  0.9789
  152MOL   H23848860   5.188   0.209   7.180 -1.0628  0.7968 -1.6539
  152MOL   H23948861   5.096   0.120   7.396 -1.1383  0.5728 -0.0523
  152MOL   H24048862   4.992   8.001   7.399  1.6528 -1.7510  0.6146
  152MOL   H24148863   5.002   7.863   7.223 -1.9807  1.5431  2.3012
  152MOL   C24248864   5.220   7.782   7.018  0.5597  0.1166 -0.3615
  152MOL   C24348865   5.314   7.721   6.911 -0.2996 -0.6458  0.1460
  152MOL   C24448866   5.427   7.824   6.868 -0.5999 -0.5436 -0.4395
  152MOL   C24548867   5.456   7.842   6.728  0.0516 -0.2196 -0.1453
  152MOL   C24648868   5.561   7.933   6.683 -0.4495  0.4211 -1.0047
  152MOL   C24748869   5.633   7.997   6.782 -0.0155  0.0053  0.3886
  152MOL   C24848870   5.605   7.981   6.922 -0.6058  0.1890 -0.3561
  152MOL   C24948871   5.499   7.899   6.961  0.2853  0.5702 -0.9818
  152MOL   H25048872   5.147   7.710   7.055  0.1043  0.3753 -0.7554
  152MOL   H25148873   5.277   7.813   7.105 -0.2327  1.3931 -0.2803
  152MOL   H25248874   5.260   7.704   6.817  0.0081 -3.0702  0.3558
  152MOL   H25348875   5.400   7.779   6.660 -0.8762  1.3929 -0.8905
  152MOL   H25448876   5.591   7.930   6.579 -2.1942 -0.3732 -1.5003
  152MOL   H25548877   5.719   8.057   6.756 -0.8698  1.1436  0.1304
  152MOL   H25648878   5.662   8.039   6.993 -0.6872 -0.0207 -0.1166
  152MOL   H25748879   5.473   7.903   7.065  2.0167 -1.3095 -0.4364
  152MOL   C25848880   5.378   7.588   6.966  0.4382  0.4291  0.5727
  152MOL   C25948881   5.285   7.461   6.961  0.0498  0.2223  0.5136
  152MOL   C26048882   5.276   7.410   6.820 -0.1033  1.1567 -0.4381
  152MOL   C26148883   5.388   7.341   6.763 -0.3732 -0.0300  0.2388
  152MOL   C26248884   5.382   7.276   6.644 -0.2071 -0.5416 -0.1422
  152MOL   C26348885   5.261   7.264   6.585  0.6939 -0.1004 -0.6069
  152MOL   C26448886   5.146   7.320   6.638  0.9003  0.5101  0.0979
  152MOL   C26548887   5.153   7.395   6.753 -0.3748  0.3084  0.2944
  152MOL   H26648888   5.403   7.602   7.071  3.1685 -1.1752  0.1938
  152MOL   H26748889   5.473   7.570   6.915  0.2798 -2.4357  1.2129
  152MOL   H26848890   5.183   7.491   6.983 -0.3814  0.1412 -1.2982
  152MOL   H26948891   5.488   7.349   6.804 -0.8082  0.1168  1.2704
  152MOL   H27048892   5.466   7.235   6.590 -0.7877  0.5053 -1.8909
  152MOL   H27148893   5.268   7.212   6.490  0.6987  0.8429 -1.1345
  152MOL   H27248894   5.048   7.297   6.599  1.2732  1.5469 -1.4951
  152MOL   H27348895   5.062   7.437   6.793 -1.5378 -2.4667  0.6298
  152MOL   C27448896   5.331   7.358   7.067 -0.3190  0.3482 -0.1869
  152MOL   C27548897   5.229   7.281   7.142  0.1432 -0.0536 -0.3212
  152MOL   C27648898   5.145   7.361   7.239 -0.3415 -0.3045 -1.1709
  152MOL   C27748899   5.028   7.426   7.200 -0.3898 -0.3031  0.3566
  152MOL   C27848900   4.962   7.505   7.293  0.2238  0.1643  0.6064
  152MOL   C27948901   4.998   7.510   7.427 -0.4223 -0.5435 -0.4386
  152MOL   C28048902   5.103   7.424   7.469  0.1388  0.2968 -0.1662
  152MOL   C28148903   5.183   7.356   7.375 -0.2205 -0.0136  0.0768
  152MOL   H28248904   5.382   7.409   7.149 -0.3468  0.2550 -0.1116
  152MOL   H28348905   5.409   7.294   7.024 -1.2864 -1.2605  0.4069
  152MOL   H28448906   5.274   7.199   7.199 -0.6230 -0.9960 -1.0368
  152MOL   H28548907   5.000   7.422   7.095 -0.2479  2.0881  0.2014
  152MOL   H28648908   4.878   7.561   7.253  0.1442 -0.3692  0.0354
  152MOL   H28748909   4.943   7.557   7.507  2.4856 -0.6505  1.7156
  152MOL   H28848910   5.131   7.413   7.573 -1.3224 -0.8799  0.1095
  152MOL   H28948911   5.273   7.307   7.411 -0.1754  1.9725  2.7815
  152MOL   C29048912   5.137   7.209   7.045 -0.6058  0.1557  0.7311
  152MOL   C29148913   5.196   7.090   6.969 -0.1397 -0.1467 -0.2336
  152MOL   C29248914   5.267   6.991   7.057 -0.3546  0.0010 -0.0129
  152MOL   C29348915   5.387   6.937   7.018 -0.3758 -0.0229  0.6774
  152MOL   C29448916   5.442   6.827   7.082 -0.0673  0.2485  0.3965
  152MOL   C29548917   5.377   6.771   7.199  0.1388  0.6354  0.4123
  152MOL   C29648918   5.272   6.843   7.249  0.2524 -0.0362 -0.0926
  152MOL   C29748919   5.210   6.944   7.176  0.8322  0.3183  0.6377
  152MOL   H29848920   5.074   7.272   6.982 -0.4027  1.4867  1.8144
  152MOL   H29948921   5.055   7.159   7.098  0.2874 -2.4345 -0.2644
  152MOL   H30048922   5.272   7.126   6.899  1.1370  0.1998  1.2969
  152MOL   H30148923   5.436   6.985   6.934 -0.5897 -0.4568  0.3044
  152MOL   H30248924   5.534   6.782   7.047 -0.7229 -1.2719  0.5731
  152MOL   H30348925   5.397   6.675   7.244 -0.4239  1.4368  2.4721
  152MOL   H30448926   5.229   6.815   7.344 -0.5923  1.2348 -0.1015
  152MOL   H30548927   5.123   6.990   7.220  1.2638  1.4954  0.2654
  152MOL   C30648928   5.087   7.023   6.879  0.4155  0.0597 -0.5716
  152MOL   C30748929   5.127   6.895   6.799 -0.3226 -0.8048 -0.4589
  152MOL   C30848930   5.002   6.812   6.764 -0.3759  0.8127  0.0784
  152MOL   C30948931   4.945   6.806   6.635  0.4670 -0.1781  0.0436
  152MOL   C31048932   4.842   6.711   6.605  0.2347  0.4619  0.2344
  152MOL   C31148933   4.775   6.646   6.712 -0.0277  0.6078  0.2283
  152MOL   C31248934   4.822   6.662   6.842 -0.2282 -0.1150 -0.1132
  152MOL   C31348935   4.936   6.735   6.866  0.4127 -0.5740  0.1285
  152MOL   H31448936   5.051   7.101   6.813 -0.1275 -0.1124 -0.4784
  152MOL   H31548937   4.999   6.998   6.937  1.2032  0.2378  0.7288
  152MOL   H31648938   5.190   6.836   6.865 -0.1661  0.5751  0.6420
  152MOL   H31748939   5.002   6.846   6.552  0.9256  0.6380  0.7515
  152MOL   H31848940   4.812   6.707   6.502  0.5309  0.1671  0.1592
  152MOL   H31948941   4.690   6.581   6.698  0.8652 -0.5632  0.1562
  152MOL   H32048942   4.779   6.614   6.929  1.0879 -2.3660 -0.6676
  152MOL   H32148943   4.988   6.740   6.961 -1.2240 -4.3776  1.3304
  152MOL   H32248944   5.187   6.919   6.712 -2.5829  0.8092 -1.6389
  153MOL     C148945   0.944   3.007   5.576 -0.3349  0.1576  0.1368
  153MOL     C248946   1.096   3.015   5.577 -0.1267 -0.5169  0.2341
  153MOL     C348947   1.159   3.035   5.720 -0.6492  0.0002 -0.3188
  153MOL     C448948   1.182   2.921   5.802 -0.0832 -0.0515  0.6159
  153MOL     C548949   1.240   2.935   5.929  0.4308 -0.0800 -1.1437
  153MOL     C648950   1.275   3.061   5.970  0.2512 -0.5653 -1.3880
  153MOL     C748951   1.246   3.179   5.892 -0.0833  0.3615 -0.5091
  153MOL     C848952   1.193   3.163   5.764 -0.9676 -0.3505  0.0073
  153MOL     H948953   0.898   2.979   5.481  0.5301 -0.4675 -0.0954
  153MOL    H1048954   0.909   2.940   5.654  1.5325 -0.3416  0.5699
  153MOL    H1148955   1.119   3.094   5.506 -0.2032 -1.8710 -1.3354
  153MOL    H1248956   1.152   2.826   5.761  2.0265 -0.5012  0.0729
  153MOL    H1348957   1.265   2.846   5.985 -2.2442 -0.3147 -0.2634
  153MOL    H1448958   1.324   3.076   6.064 -0.0269 -0.0178 -1.3268
  153MOL    H1548959   1.272   3.273   5.939  0.1228 -0.6796  1.5284
  153MOL    H1648960   1.180   3.256   5.711 -2.0867 -0.5139 -0.0194
  153MOL    H1748961   0.889   3.099   5.595 -0.0848  0.1500  0.9186
  153MOL    C1848962   1.160   2.895   5.504  0.5598  0.2288  0.0809
  153MOL    C1948963   1.139   2.873   5.348  0.2531  0.7318 -0.4109
  153MOL    C2048964   1.193   2.995   5.276 -0.5225  0.2556  0.3162
  153MOL    C2148965   1.114   3.079   5.192  0.0405  0.2958  0.2420
  153MOL    C2248966   1.177   3.176   5.112  0.2752  0.2173  0.3121
  153MOL    C2348967   1.309   3.187   5.106  0.1077 -0.4252 -0.1741
  153MOL    C2448968   1.395   3.106   5.181  0.7294 -0.1064 -0.7223
  153MOL    C2548969   1.334   3.007   5.262 -0.8174  0.1628 -0.5911
  153MOL    H2648970   1.128   2.801   5.550  0.0418 -0.1792 -1.1132
  153MOL    H2748971   1.266   2.905   5.528  0.5228  1.0786 -0.0839
  153MOL    H2848972   1.035   2.854   5.321  0.3090  1.8136 -1.4110
  153MOL    H2948973   1.006   3.072   5.200  0.2208 -1.5166  1.4556
  153MOL    H3048974   1.119   3.239   5.046  1.5769 -0.3449 -1.4090
  153MOL    H3148975   1.351   3.269   5.051  1.6713  1.5349  3.7600
  153MOL    H3248976   1.502   3.118   5.178  0.9534 -2.1779 -2.3082
  153MOL    H3348977   1.390   2.936   5.321 -0.2722  0.8690 -0.2535
  153MOL    C3448978   1.209   2.739   5.311 -0.3436 -0.8332 -0.7434
  153MOL    C3548979   1.226   2.717   5.154  0.1547  0.8009 -0.0820
  153MOL    C3648980   1.313   2.601   5.117  0.2283  0.5062 -0.2949
  153MOL    C3748981   1.257   2.475   5.087  0.1660  0.1146  0.6727
  153MOL    C3848982   1.344   2.371   5.052 -0.1281  0.6598  0.2798
  153MOL    C3948983   1.483   2.393   5.036  0.0914  0.5620 -0.2232
  153MOL    C4048984   1.535   2.524   5.053 -0.1166  0.4986  0.0629
  153MOL    C4148985   1.450   2.626   5.097  0.1449 -0.4964 -0.5919
  153MOL    H4248986   1.146   2.660   5.352 -0.0055 -1.0656 -0.6717
  153MOL    H4348987   1.307   2.725   5.356 -0.8929 -2.0004  0.1191
  153MOL    H4448988   1.280   2.807   5.127  0.7319  0.0203 -1.6236
  153MOL    H4548989   1.151   2.455   5.081  0.5556 -1.4684 -2.0040
  153MOL    H4648990   1.307   2.275   5.020 -1.2836  0.7757  1.2207
  153MOL    H4748991   1.556   2.325   4.995  0.1842  1.7091 -2.0237
  153MOL    H4848992   1.641   2.537   5.036  0.3858 -3.2367 -0.1189
  153MOL    H4948993   1.495   2.723   5.110 -0.4303 -0.1777 -0.9166
  153MOL    C5048994   1.097   2.733   5.068  0.7594  0.5834  0.2103
  153MOL    C5148995   1.124   2.787   4.923 -0.4656  0.2540  0.6472
  153MOL    C5248996   1.196   2.684   4.827  0.2925  0.0954 -0.0186
  153MOL    C5348997   1.121   2.572   4.793  0.3073  0.1635  0.3340
  153MOL    C5448998   1.186   2.464   4.725 -0.4197  0.3106 -0.6473
  153MOL    C5548999   1.311   2.477   4.670  0.5971  0.0745  0.8216
  153MOL    C5649000   1.385   2.598   4.697 -0.6348 -0.3796  0.5816
  153MOL    C5749001   1.330   2.701   4.779  0.2865 -0.3205  0.2526
  153MOL    H5849002   1.017   2.785   5.118 -0.6915 -0.2133 -1.2317
  153MOL    H5949003   1.055   2.634   5.049 -0.0191  1.0941 -0.7447
  153MOL    H6049004   1.200   2.863   4.941 -0.4354  0.4173 -0.1484
  153MOL    H6149005   1.018   2.556   4.821  0.8462 -0.1065  2.2611
  153MOL    H6249006   1.134   2.374   4.698 -2.3033  0.8726  0.9755
  153MOL    H6349007   1.349   2.393   4.614  2.1199 -0.3968  2.5029
  153MOL    H6449008   1.481   2.617   4.652 -0.7050  0.9239  0.9797
  153MOL    H6549009   1.393   2.788   4.796  0.7067 -1.1039  3.0569
  153MOL    C6649010   1.004   2.850   4.856 -0.3205  0.2790 -0.6976
  153MOL    C6749011   1.031   2.934   4.726  0.2589 -0.3017  0.5297
  153MOL    C6849012   0.907   2.943   4.639  0.0205 -1.1586 -0.0615
  153MOL    C6949013   0.918   2.920   4.501  0.3637  0.4401 -0.3114
  153MOL    C7049014   0.807   2.941   4.416 -0.7193 -0.5913 -0.1958
  153MOL    C7149015   0.685   2.972   4.468  0.1296 -0.0554 -0.4859
  153MOL    C7249016   0.676   2.992   4.604  0.9026  0.4311  0.0447
  153MOL    C7349017   0.785   2.982   4.690  0.1650 -0.0387  0.4528
  153MOL    H7449018   0.944   2.914   4.921  3.6174  1.5474  1.8832
  153MOL    H7549019   0.930   2.771   4.842  2.3239 -2.2594 -0.8853
  153MOL    H7649020   1.099   2.875   4.665 -0.6656 -0.9561  0.1230
  153MOL    H7749021   1.014   2.894   4.459 -0.0465  1.3873 -1.9207
  153MOL    H7849022   0.823   2.942   4.310 -0.0795 -3.0125 -0.1684
  153MOL    H7949023   0.603   2.999   4.403 -0.1665  0.9059  0.2904
  153MOL    H8049024   0.581   3.028   4.639  0.6692  1.0200 -1.1839
  153MOL    H8149025   0.784   3.026   4.788  2.8421  1.7633 -0.2742
  153MOL    C8249026   1.097   3.080   4.742 -0.1017  0.4010 -0.4452
  153MOL    C8349027   1.196   3.118   4.635  0.8685 -0.5120  0.5830
  153MOL    C8449028   1.207   3.269   4.615 -0.5794 -0.0792  0.2054
  153MOL    C8549029   1.282   3.357   4.697 -0.3705  0.0852 -0.3158
  153MOL    C8649030   1.284   3.494   4.662  0.2286  0.2897  0.6861
  153MOL    C8749031   1.204   3.545   4.563 -0.3645  0.3041  0.1132
  153MOL    C8849032   1.123   3.457   4.490 -0.4001  0.3201 -0.3602
  153MOL    C8949033   1.119   3.322   4.525  0.0804  0.1279  0.1122
  153MOL    H9049034   1.142   3.091   4.840 -0.6309  0.8097 -0.2454
  153MOL    H9149035   1.015   3.151   4.751  2.1203  3.0137 -0.1583
  153MOL    H9249036   1.159   3.080   4.541 -0.6237  0.0794  0.9226
  153MOL    H9349037   1.347   3.312   4.771  0.3557  0.7679 -0.5409
  153MOL    H9449038   1.361   3.544   4.718  1.6925 -1.1251 -0.0117
  153MOL    H9549039   1.203   3.652   4.547  0.4131  0.1978 -0.6979
  153MOL    H9649040   1.050   3.496   4.420 -1.0969  0.3115  0.3559
  153MOL    H9749041   1.050   3.248   4.487 -1.2019  0.5927  1.4732
  153MOL    C9849042   1.334   3.056   4.651 -0.4762 -0.3571  0.1560
  153MOL    C9949043   1.453   3.095   4.564 -0.0104  0.0704  0.0363
  153MOL   C10049044   1.579   3.026   4.617  0.0450 -0.0090 -0.0840
  153MOL   C10149045   1.599   2.892   4.587  0.5076 -0.0595  0.1465
  153MOL   C10249046   1.712   2.826   4.628 -0.6366  0.2503 -0.4151
  153MOL   C10349047   1.806   2.900   4.702 -0.3776 -1.0835 -0.1150
  153MOL   C10449048   1.787   3.038   4.734  0.4311  0.5061 -0.0853
  153MOL   C10549049   1.670   3.101   4.698 -0.6601  0.2689 -0.3020
  153MOL   H10649050   1.324   2.948   4.640 -1.9606 -0.3335  1.0611
  153MOL   H10749051   1.358   3.076   4.756 -0.9793  1.7892 -0.1119
  153MOL   H10849052   1.469   3.202   4.583  3.0746 -0.3149 -0.1198
  153MOL   H10949053   1.521   2.839   4.535 -1.3010  2.1408  0.5227
  153MOL   H11049054   1.732   2.725   4.594  1.1430  0.4631 -0.0525
  153MOL   H11149055   1.898   2.853   4.733 -1.3747 -1.8215  1.7955
  153MOL   H11249056   1.862   3.091   4.791  0.3560 -2.2945  2.7823
  153MOL   H11349057   1.657   3.204   4.725  2.1470  0.6171 -0.1381
  153MOL   C11449058   1.410   3.067   4.419 -0.1691 -0.9748  0.1648
  153MOL   C11549059   1.496   3.134   4.311 -0.6822 -0.4041  0.8678
  153MOL   C11649060   1.499   3.041   4.189 -0.4035  0.0227  0.0191
  153MOL   C11749061   1.614   2.975   4.146 -0.0224  0.3402  0.1624
  153MOL   C11849062   1.623   2.883   4.041 -0.0627  0.5452  0.8580
  153MOL   C11949063   1.505   2.864   3.963 -1.1287  0.0588  0.0885
  153MOL   C12049064   1.386   2.930   4.002  0.0249 -0.1422 -0.3140
  153MOL   C12149065   1.380   3.011   4.121  0.5574 -0.0861  0.0812
  153MOL   H12249066   1.308   3.100   4.399  0.1627 -0.8136 -1.3343
  153MOL   H12349067   1.415   2.962   4.393  0.1788 -0.4802 -1.8476
  153MOL   H12449068   1.603   3.130   4.332 -0.5567 -0.7432  0.1711
  153MOL   H12549069   1.697   2.988   4.213 -0.3599 -0.3672  0.7312
  153MOL   H12649070   1.716   2.835   4.014 -0.3972  1.0444 -1.2993
  153MOL   H12749071   1.509   2.799   3.877 -0.9698 -2.1415  1.7371
  153MOL   H12849072   1.299   2.892   3.950 -1.4367  0.2735  1.7400
  153MOL   H12949073   1.287   3.056   4.153 -1.0596 -1.0413 -3.0775
  153MOL   C13049074   1.465   3.277   4.270  0.1844 -0.2228 -0.5831
  153MOL   C13149075   1.523   3.393   4.345  0.2424  0.5963 -0.0509
  153MOL   C13249076   1.676   3.377   4.348 -0.6189 -0.8568  0.4372
  153MOL   C13349077   1.750   3.386   4.225 -0.0561  0.7488  0.2073
  153MOL   C13449078   1.890   3.362   4.234 -0.1643 -0.4973 -0.2950
  153MOL   C13549079   1.951   3.340   4.352 -0.8590  0.9562  0.9425
  153MOL   C13649080   1.883   3.340   4.472  0.3600 -0.8796 -0.4802
  153MOL   C13749081   1.739   3.358   4.470 -0.5454 -0.2124 -1.1841
  153MOL   H13849082   1.357   3.287   4.267  0.2033  0.3641  0.3855
  153MOL   H13949083   1.498   3.294   4.168  2.1025  0.5200  0.1236
  153MOL   H14049084   1.486   3.392   4.447  0.1218 -0.0621 -0.0974
  153MOL   H14149085   1.702   3.394   4.129  0.8158 -0.9348 -0.3910
  153MOL   H14249086   1.948   3.363   4.143 -1.2142  0.1911 -0.9726
  153MOL   H14349087   2.058   3.324   4.353 -0.8511  0.9676  2.8645
  153MOL   H14449088   1.933   3.328   4.568 -1.8616  1.1432  0.9914
  153MOL   H14549089   1.678   3.353   4.558  0.3529 -0.5539 -0.5695
  153MOL   C14649090   1.476   3.526   4.284 -0.5634  0.2940  0.2090
  153MOL   C14749091   1.550   3.647   4.325  0.3959  0.0647 -1.0257
  153MOL   C14849092   1.531   3.776   4.239 -0.6350 -0.4288  0.0324
  153MOL   C14949093   1.404   3.833   4.214 -0.2453  0.4156 -0.3547
  153MOL   C15049094   1.388   3.958   4.145  0.3574 -0.0019 -0.0767
  153MOL   C15149095   1.508   4.037   4.118  0.4036  0.3739 -0.0942
  153MOL   C15249096   1.630   3.976   4.139  0.0725  0.2510  0.2104
  153MOL   C15349097   1.645   3.851   4.205  0.2628 -0.1966  0.1719
  153MOL   H15449098   1.369   3.541   4.301 -0.6144 -1.0032  1.1271
  153MOL   H15549099   1.487   3.513   4.176 -2.8009 -0.0974 -0.0084
  153MOL   H15649100   1.658   3.627   4.321  0.5028  0.3135  0.3380
  153MOL   H15749101   1.314   3.781   4.243  0.2955  0.0321  0.6377
  153MOL   H15849102   1.288   3.998   4.138  0.3131 -0.4823 -2.3677
  153MOL   H15949103   1.500   4.141   4.090  0.1651  0.8079  1.4913
  153MOL   H16049104   1.716   4.041   4.134  0.4421 -0.2452  0.0616
  153MOL   H16149105   1.744   3.815   4.230 -1.0549 -2.3845  2.5014
  153MOL   C16249106   1.527   3.671   4.479 -0.1085 -0.1583  0.2502
  153MOL   C16349107   1.621   3.771   4.545 -0.2875  0.3919  0.2236
  153MOL   C16449108   1.557   3.846   4.661  0.1794  0.3502 -0.0877
  153MOL   C16549109   1.517   3.766   4.777 -0.9764 -0.6018  0.3150
  153MOL   C16649110   1.460   3.831   4.884 -0.4937 -0.0358  0.1296
  153MOL   C16749111   1.431   3.967   4.880 -0.6173  0.5702  0.3966
  153MOL   C16849112   1.475   4.048   4.773 -0.6822 -0.3679  0.4357
  153MOL   C16949113   1.541   3.987   4.663  0.2706  0.2329 -0.0366
  153MOL   H17049114   1.535   3.576   4.531  1.1351 -1.0491 -1.4983
  153MOL   H17149115   1.425   3.709   4.489  0.1461  0.2606  1.3561
  153MOL   H17249116   1.646   3.854   4.479 -1.7263 -0.1519 -1.0526
  153MOL   H17349117   1.532   3.659   4.770 -0.6791 -0.5243 -0.2727
  153MOL   H17449118   1.426   3.775   4.970 -0.9319 -1.2658 -0.8305
  153MOL   H17549119   1.372   4.009   4.960 -1.3370  2.4084 -1.0554
  153MOL   H17649120   1.459   4.155   4.765 -0.9782 -0.5263 -1.3714
  153MOL   H17749121   1.551   4.045   4.573 -1.8126 -2.3352 -2.0201
  153MOL   C17849122   1.756   3.708   4.576  0.6168  0.2713  0.1070
  153MOL   C17949123   1.862   3.786   4.655 -0.2947  0.4959 -0.1146
  153MOL   C18049124   1.965   3.680   4.722 -0.7777 -0.1846 -0.1045
  153MOL   C18149125   2.026   3.587   4.637 -0.5681 -0.0927 -0.2452
  153MOL   C18249126   2.123   3.503   4.690 -0.2599 -0.4244  0.4074
  153MOL   C18349127   2.142   3.495   4.827 -0.2647  0.3106 -0.2953
  153MOL   C18449128   2.069   3.575   4.909 -0.6408 -0.2321  0.2252
  153MOL   C18549129   1.982   3.677   4.859  0.0201 -0.5423  0.9102
  153MOL   H18649130   1.799   3.674   4.482 -0.1218 -1.0375  0.2263
  153MOL   H18749131   1.730   3.615   4.628 -1.3712  0.6370 -0.1995
  153MOL   H18849132   1.810   3.812   4.748 -1.5479  2.4677 -1.3432
  153MOL   H18949133   2.028   3.600   4.530  2.2182  1.5918 -0.0255
  153MOL   H19049134   2.169   3.435   4.620  0.2429  1.9636 -1.6449
  153MOL   H19149135   2.202   3.415   4.869 -0.6964 -0.5693 -1.3431
  153MOL   H19249136   2.085   3.572   5.016  0.6215 -0.9609  0.0291
  153MOL   H19349137   1.943   3.760   4.917  3.4931  0.8497  1.3986
  153MOL   C19449138   1.933   3.897   4.579  0.2483 -0.3610 -0.3559
  153MOL   C19549139   1.905   4.040   4.635  0.0441  0.4153  0.2417
  153MOL   C19649140   1.970   4.053   4.780  0.0533  0.2995  0.5245
  153MOL   C19749141   2.111   4.025   4.785  0.6916 -0.3946 -0.3988
  153MOL   C19849142   2.173   4.040   4.906  0.2591  0.3028 -1.0240
  153MOL   C19949143   2.102   4.066   5.024 -0.5827  0.0664 -0.4639
  153MOL   C20049144   1.963   4.101   5.020  0.3860 -0.0791 -0.2516
  153MOL   C20149145   1.895   4.080   4.900 -0.5163 -0.0215  0.1111
  153MOL   H20249146   1.902   3.888   4.475 -0.6934 -0.3303 -0.0795
  153MOL   H20349147   2.037   3.867   4.569  0.1181 -1.3891  1.2499
  153MOL   H20449148   1.797   4.036   4.645 -0.1548 -2.8671 -2.4191
  153MOL   H20549149   2.178   4.004   4.703 -0.6890  0.1800 -1.6991
  153MOL   H20649150   2.281   4.031   4.913  0.1434 -0.1916  0.3565
  153MOL   H20749151   2.152   4.063   5.120 -0.4213  2.5921 -0.4428
  153MOL   H20849152   1.910   4.127   5.111  0.9594 -0.2551  0.1391
  153MOL   H20949153   1.788   4.093   4.899 -0.2281  2.8134 -1.7666
  153MOL   C21049154   1.941   4.145   4.535  0.0797 -0.5379 -1.0478
  153MOL   C21149155   1.975   4.286   4.594  0.2662 -0.0662  0.1907
  153MOL   C21249156   2.061   4.363   4.498  0.4700  0.7073  0.3607
  153MOL   C21349157   2.201   4.379   4.524  0.5145 -0.6548  0.2793
  153MOL   C21449158   2.283   4.450   4.436  0.2231  0.3797  0.4720
  153MOL   C21549159   2.226   4.513   4.320  0.0483 -0.2887 -0.0601
  153MOL   C21649160   2.092   4.486   4.293 -0.0597 -0.0173 -0.5824
  153MOL   C21749161   2.004   4.415   4.381 -0.2501  0.0077 -0.1161
  153MOL   H21849162   1.858   4.149   4.464 -0.1221 -3.8034 -1.0659
  153MOL   H21949163   2.033   4.119   4.484  0.5747 -0.4054 -0.2356
  153MOL   H22049164   2.043   4.276   4.679  1.0745 -0.0782 -0.4459
  153MOL   H22149165   2.258   4.328   4.601  1.5130 -1.3014 -0.8591
  153MOL   H22249166   2.390   4.462   4.444  0.4882 -0.9180 -0.9515
  153MOL   H22349167   2.286   4.570   4.250 -0.7010  0.8619  0.2318
  153MOL   H22449168   2.062   4.540   4.204  2.5118 -0.3777 -1.7239
  153MOL   H22549169   1.906   4.383   4.347  0.7545 -2.2887 -0.9312
  153MOL   C22649170   1.847   4.355   4.637 -0.0189 -0.2334  0.3653
  153MOL   C22749171   1.846   4.494   4.700  0.2111 -0.3023  0.7491
  153MOL   C22849172   1.959   4.508   4.800  0.3196 -0.1482  0.1815
  153MOL   C22949173   2.065   4.600   4.774  0.4029  0.1494  0.2223
  153MOL   C23049174   2.171   4.632   4.867  0.0851 -0.1640 -0.0787
  153MOL   C23149175   2.172   4.567   4.993  0.3711 -0.1671  0.2949
  153MOL   C23249176   2.065   4.470   5.016 -0.5421  0.3201  1.4917
  153MOL   C23349177   1.963   4.444   4.924  0.4067 -0.7679  0.0132
  153MOL   H23449178   1.826   4.282   4.715 -0.5661 -1.0059 -0.5006
  153MOL   H23549179   1.779   4.350   4.552  3.3336  0.5287 -2.4455
  153MOL   H23649180   1.755   4.482   4.758 -0.6115 -0.6050 -0.6012
  153MOL   H23749181   2.077   4.659   4.684  2.8542  0.8792  0.9819
  153MOL   H23849182   2.245   4.707   4.845 -0.4207  0.5915  0.7019
  153MOL   H23949183   2.252   4.575   5.066 -1.3026 -2.1434  2.4067
  153MOL   H24049184   2.075   4.409   5.105 -0.9083 -2.6272 -0.4254
  153MOL   H24149185   1.879   4.378   4.941 -0.2785 -0.7270 -2.8810
  153MOL   C24249186   1.809   4.616   4.603 -0.4793 -1.1370  0.6172
  153MOL   C24349187   1.658   4.638   4.565 -0.3439  0.2867 -0.4016
  153MOL   C24449188   1.555   4.614   4.671 -0.2448  0.3465  0.3622
  153MOL   C24549189   1.567   4.683   4.794 -0.1908  0.0353 -0.7823
  153MOL   C24649190   1.475   4.658   4.901  0.7586 -1.1189 -0.3423
  153MOL   C24749191   1.375   4.558   4.889 -0.0560 -0.2509 -0.3668
  153MOL   C24849192   1.359   4.490   4.762 -0.4744 -0.0558  0.3207
  153MOL   C24949193   1.447   4.522   4.654  0.8139 -0.1050 -0.6336
  153MOL   H25049194   1.871   4.615   4.514 -0.2873 -0.1915  0.7398
  153MOL   H25149195   1.824   4.711   4.655  2.2723 -0.2758 -1.6180
  153MOL   H25249196   1.646   4.550   4.502  0.2812 -0.7378  0.8840
  153MOL   H25349197   1.646   4.755   4.813 -1.8937  1.8562 -0.4484
  153MOL   H25449198   1.471   4.705   4.998  0.4990  0.9598 -1.3392
  153MOL   H25549199   1.300   4.542   4.965  0.8704  1.4650  0.9405
  153MOL   H25649200   1.275   4.424   4.747 -0.6368 -0.2288  1.9415
  153MOL   H25749201   1.431   4.468   4.562 -0.9383 -1.2442  0.2961
  153MOL   C25849202   1.625   4.769   4.492 -0.4026  0.5091  0.0248
  153MOL   C25949203   1.702   4.783   4.362  0.8127 -0.1187 -0.0805
  153MOL   C26049204   1.673   4.665   4.262 -0.1113  0.3012  0.1199
  153MOL   C26149205   1.779   4.587   4.212 -0.0108 -1.1758  0.2275
  153MOL   C26249206   1.755   4.483   4.123  0.1616 -0.2254  0.7028
  153MOL   C26349207   1.620   4.444   4.096  0.3958 -0.2912  0.1097
  153MOL   C26449208   1.510   4.527   4.131  0.4319 -0.5418 -0.1291
  153MOL   C26549209   1.539   4.639   4.214 -0.3074 -0.4662  1.0316
  153MOL   H26649210   1.644   4.860   4.548 -2.4951  1.3967 -0.6802
  153MOL   H26749211   1.519   4.770   4.467  0.0066  0.1959 -1.7909
  153MOL   H26849212   1.808   4.783   4.386  0.4489  0.7627  1.5905
  153MOL   H26949213   1.882   4.614   4.227  0.1605 -0.9347 -1.3216
  153MOL   H27049214   1.831   4.433   4.066  1.7786  0.2430  2.4154
  153MOL   H27149215   1.596   4.359   4.034 -0.1714 -0.6061  0.7478
  153MOL   H27249216   1.414   4.501   4.088  0.6193 -1.7366  0.1502
  153MOL   H27349217   1.457   4.703   4.242  0.2449  0.7845 -0.1192
  153MOL   C27449218   1.676   4.919   4.291 -0.0816  0.3095  0.0329
  153MOL   C27549219   1.777   4.964   4.180 -0.1209  0.4333 -0.8719
  153MOL   C27649220   1.725   5.072   4.086  0.6210 -0.1387  0.1488
  153MOL   C27749221   1.793   5.106   3.967 -0.8726 -0.9374 -0.0800
  153MOL   C27849222   1.753   5.217   3.889  0.0663  0.2908 -0.0265
  153MOL   C27949223   1.644   5.293   3.928  0.6789 -0.6970 -0.2142
  153MOL   C28049224   1.577   5.264   4.048  0.5452  0.0801  0.3763
  153MOL   C28149225   1.623   5.160   4.130 -0.3797  0.5987  0.3396
  153MOL   H28249226   1.657   5.003   4.358 -1.1345  0.3127 -0.2596
  153MOL   H28349227   1.579   4.906   4.244 -1.1361 -0.3873  2.3467
  153MOL   H28449228   1.784   4.873   4.121 -4.5144  1.7783 -3.6771
  153MOL   H28549229   1.869   5.045   3.922 -1.6628 -1.3104 -0.9216
  153MOL   H28649230   1.801   5.235   3.793 -1.4521  2.1561 -0.4565
  153MOL   H28749231   1.607   5.374   3.868 -0.3953  0.3491  1.7955
  153MOL   H28849232   1.493   5.325   4.079 -0.9149 -1.9170  0.4368
  153MOL   H28949233   1.580   5.159   4.229  0.8963  6.5885  1.1225
  153MOL   C29049234   1.919   4.995   4.236  0.6953  0.4045  0.4145
  153MOL   C29149235   1.931   5.139   4.301 -0.8001 -0.5137  0.7661
  153MOL   C29249236   1.872   5.128   4.443 -0.0449 -0.1600 -0.0046
  153MOL   C29349237   1.756   5.207   4.469 -0.0312 -0.1512  0.4111
  153MOL   C29449238   1.712   5.205   4.604  0.0080 -0.3179 -0.3968
  153MOL   C29549239   1.781   5.127   4.703 -0.5871  0.5773  0.5155
  153MOL   C29649240   1.895   5.053   4.673 -0.0743  0.0605  0.2494
  153MOL   C29749241   1.941   5.057   4.539  0.1626  0.3152  0.4917
  153MOL   H29849242   1.983   4.980   4.150  1.5074 -0.9413  1.2317
  153MOL   H29949243   1.944   4.912   4.303 -0.9548  0.1309  0.7160
  153MOL   H30049244   1.864   5.213   4.257  1.2892 -0.0364 -1.7318
  153MOL   H30149245   1.704   5.270   4.398 -1.5141  0.2269  1.7860
  153MOL   H30249246   1.623   5.260   4.629 -0.0640 -1.3116  1.7225
  153MOL   H30349247   1.750   5.130   4.806  0.8489 -2.1650  1.0707
  153MOL   H30449248   1.958   5.005   4.747  0.1066  1.9713  1.3690
  153MOL   H30549249   2.035   5.006   4.522  0.4298  0.1168  2.3612
  153MOL   C30649250   2.071   5.209   4.301  0.5489  0.1345  0.4339
  153MOL   C30749251   2.124   5.228   4.156 -0.0879  0.4088  0.4595
  153MOL   C30849252   2.251   5.311   4.135 -0.5980 -0.3969  0.2056
  153MOL   C30949253   2.362   5.302   4.221 -0.2849 -0.0743  0.5258
  153MOL   C31049254   2.476   5.372   4.189  0.3085 -0.6490 -0.1636
  153MOL   C31149255   2.479   5.478   4.099  0.9267 -0.1859 -0.8889
  153MOL   C31249256   2.365   5.506   4.019 -0.1322  0.5281 -0.8730
  153MOL   C31349257   2.256   5.418   4.040  0.4488 -0.3755 -0.0638
  153MOL   H31449258   2.132   5.148   4.367  0.2810 -0.1567  0.4129
  153MOL   H31549259   2.051   5.307   4.345 -0.4022  0.9363 -1.6942
  153MOL   H31649260   2.050   5.266   4.084  2.1507 -1.3892 -2.9181
  153MOL   H31749261   2.356   5.233   4.304  1.8322  0.9953  1.6129
  153MOL   H31849262   2.559   5.354   4.256  1.0291 -0.8505 -1.1091
  153MOL   H31949263   2.569   5.537   4.094  1.2534 -0.5532  0.3841
  153MOL   H32049264   2.371   5.593   3.956 -1.5791  0.3325 -1.3029
  153MOL   H32149265   2.169   5.435   3.978  2.0822  0.3180 -2.2434
  153MOL   H32249266   2.166   5.139   4.109 -0.2180 -0.1617  1.4248
  154MOL     C149267   7.041   6.727   5.192  0.4592  0.2389 -0.7287
  154MOL     C249268   6.911   6.688   5.115  0.3131 -0.6237 -1.0855
  154MOL     C349269   6.919   6.555   5.045  0.4716  0.5781  1.1678
  154MOL     C449270   6.952   6.441   5.120 -0.5806 -0.0367 -0.3316
  154MOL     C549271   6.956   6.307   5.058 -0.6856 -0.6050  0.2678
  154MOL     C649272   6.932   6.293   4.923  0.0547 -0.2363  0.3574
  154MOL     C749273   6.908   6.409   4.850 -0.5650 -0.5213  0.4066
  154MOL     C849274   6.891   6.539   4.905  0.4020  0.4857  0.1554
  154MOL     H949275   7.124   6.700   5.127  1.7808  0.0404  1.0151
  154MOL    H1049276   7.043   6.830   5.227  3.3196 -0.2690  0.6854
  154MOL    H1149277   6.917   6.748   5.023 -0.8738  1.3438  0.0905
  154MOL    H1249278   6.966   6.457   5.226  2.2778  1.4864 -0.8938
  154MOL    H1349279   6.985   6.222   5.117  1.1322  1.3115  2.2296
  154MOL    H1449280   6.930   6.200   4.869 -0.0035 -0.3591  0.5727
  154MOL    H1549281   6.899   6.391   4.744  0.9878 -0.7338  0.2885
  154MOL    H1649282   6.857   6.620   4.842  0.1624 -0.0044 -0.3508
  154MOL    H1749283   7.039   6.654   5.273  1.7818 -1.8236 -2.4665
  154MOL    C1849284   6.767   6.696   5.174 -0.0463  0.2574  0.2516
  154MOL    C1949285   6.716   6.826   5.248 -0.2455  0.2164  0.4371
  154MOL    C2049286   6.754   6.954   5.164  0.4172 -0.7216  0.8173
  154MOL    C2149287   6.722   6.971   5.029  0.2536 -0.2448  0.2949
  154MOL    C2249288   6.763   7.082   4.957 -0.9036  0.1703 -0.3566
  154MOL    C2349289   6.850   7.180   5.020 -0.2039  0.1150  0.1520
  154MOL    C2449290   6.875   7.167   5.153 -0.8005  0.6509 -0.6343
  154MOL    C2549291   6.830   7.054   5.228 -0.1366 -0.0354  0.5155
  154MOL    H2649292   6.760   6.618   5.250 -1.0150 -0.6189 -0.7259
  154MOL    H2749293   6.690   6.679   5.098 -2.4532  0.9544  2.4689
  154MOL    H2849294   6.776   6.834   5.339 -1.9615  0.5142  1.5573
  154MOL    H2949295   6.660   6.899   4.978  0.0095 -0.4418  0.8708
  154MOL    H3049296   6.730   7.087   4.855  4.6136 -1.6656 -2.3756
  154MOL    H3149297   6.874   7.269   4.964 -0.3657  0.1697  0.1723
  154MOL    H3249298   6.940   7.239   5.200  0.1576 -0.8014  0.3362
  154MOL    H3349299   6.861   7.053   5.331 -0.2765  0.9736  0.5671
  154MOL    C3449300   6.567   6.830   5.294  0.5756 -0.0311  0.4465
  154MOL    C3549301   6.507   6.957   5.359 -0.1220 -0.5452  0.5257
  154MOL    C3649302   6.358   6.931   5.376 -0.1241  0.4842 -0.1769
  154MOL    C3749303   6.260   7.015   5.317  0.2682 -0.4306  0.1020
  154MOL    C3849304   6.117   6.990   5.334  0.2197 -0.7536  0.8026
  154MOL    C3949305   6.077   6.887   5.422 -0.2499  0.0699  0.5853
  154MOL    C4049306   6.173   6.813   5.495 -0.0456 -0.0720 -0.1306
  154MOL    C4149307   6.309   6.833   5.469 -0.4208 -0.2808 -0.4063
  154MOL    H4249308   6.558   6.735   5.346  0.6754 -0.1842  0.1871
  154MOL    H4349309   6.513   6.812   5.200  0.1782  1.9440  0.2677
  154MOL    H4449310   6.515   7.040   5.289 -1.2842 -0.4459  0.5015
  154MOL    H4549311   6.303   7.094   5.257 -0.7107  0.9991  1.2296
  154MOL    H4649312   6.036   7.041   5.284  0.0357 -0.7091  1.1416
  154MOL    H4749313   5.972   6.861   5.431 -0.5858  0.3678 -2.2128
  154MOL    H4849314   6.136   6.743   5.569 -2.1137  0.9235 -0.2009
  154MOL    H4949315   6.384   6.781   5.527  0.2761  1.1998  0.0258
  154MOL    C5049316   6.570   7.011   5.490 -1.1330  0.6567 -0.4257
  154MOL    C5149317   6.489   7.109   5.583  0.0556 -0.0878 -0.0209
  154MOL    C5249318   6.555   7.135   5.719 -0.4579  0.0250  0.3155
  154MOL    C5349319   6.485   7.140   5.839  0.0910  0.6193 -0.5417
  154MOL    C5449320   6.551   7.163   5.961 -0.3865  0.6075 -0.1769
  154MOL    C5549321   6.696   7.167   5.971  0.0945  0.2637  0.3583
  154MOL    C5649322   6.769   7.157   5.848  0.7371  0.1026 -0.0587
  154MOL    C5749323   6.694   7.145   5.728  0.1362 -0.3072  0.1807
  154MOL    H5849324   6.666   7.050   5.457 -1.0219  0.0267 -0.8560
  154MOL    H5949325   6.594   6.929   5.558 -1.3639  0.6884 -0.3029
  154MOL    H6049326   6.402   7.045   5.598 -0.3676  0.8977  1.9052
  154MOL    H6149327   6.378   7.124   5.839 -0.2483  2.2828  2.8980
  154MOL    H6249328   6.497   7.164   6.055 -0.7138 -0.9514 -0.3331
  154MOL    H6349329   6.746   7.175   6.066  2.9900  0.5250 -1.1236
  154MOL    H6449330   6.877   7.163   5.846  0.6999  1.3668  0.9580
  154MOL    H6549331   6.752   7.128   5.639 -1.5255 -1.5783 -0.6814
  154MOL    C6649332   6.428   7.236   5.519  0.3154 -0.1294 -0.7833
  154MOL    C6749333   6.543   7.340   5.485  0.0144  0.1394  0.0703
  154MOL    C6849334   6.513   7.400   5.344  0.4316 -0.3265  0.4031
  154MOL    C6949335   6.389   7.446   5.310  0.2771  0.1017  0.5126
  154MOL    C7049336   6.360   7.512   5.183  0.3239  1.0285  0.1297
  154MOL    C7149337   6.465   7.530   5.091 -0.2782  0.6120 -0.2462
  154MOL    C7249338   6.594   7.484   5.126  0.0054  0.5592  0.3504
  154MOL    C7349339   6.619   7.421   5.251  0.4440 -0.1856 -0.7291
  154MOL    H7449340   6.346   7.281   5.575  0.1477 -0.3260 -0.8671
  154MOL    H7549341   6.390   7.203   5.422 -0.3278 -1.0130 -0.2386
  154MOL    H7649342   6.634   7.282   5.472  1.5964  2.8980 -1.6667
  154MOL    H7749343   6.309   7.428   5.381 -0.1206 -0.5324 -0.0842
  154MOL    H7849344   6.264   7.554   5.158  0.6173  0.1927 -2.4878
  154MOL    H7949345   6.450   7.586   5.000  0.3112 -2.9518 -2.6773
  154MOL    H8049346   6.669   7.504   5.050  1.7656  1.8932  2.3706
  154MOL    H8149347   6.722   7.389   5.260  0.1466 -0.5205  2.0323
  154MOL    C8249348   6.560   7.463   5.591  0.0928  0.9819  0.0979
  154MOL    C8349349   6.679   7.565   5.572  0.3830 -0.0337  0.9009
  154MOL    C8449350   6.661   7.660   5.693 -0.1206  0.7709  0.4270
  154MOL    C8549351   6.702   7.608   5.817 -0.1918  1.1192  0.2275
  154MOL    C8649352   6.683   7.687   5.931 -0.6733 -0.4986  0.2168
  154MOL    C8749353   6.638   7.821   5.928 -0.7229  0.2168 -0.1161
  154MOL    C8849354   6.599   7.870   5.801  0.2603 -0.3644 -0.6262
  154MOL    C8949355   6.607   7.793   5.688 -0.2154 -0.8309  0.1067
  154MOL    H9049356   6.591   7.415   5.683  1.5423 -0.2188 -0.9901
  154MOL    H9149357   6.462   7.504   5.613  0.1546  1.1873 -0.0022
  154MOL    H9249358   6.651   7.625   5.485 -2.3604  0.4504  2.0723
  154MOL    H9349359   6.738   7.506   5.823 -0.0807  1.1787  0.5823
  154MOL    H9449360   6.715   7.648   6.026 -0.9023  1.1276  0.9908
  154MOL    H9549361   6.646   7.892   6.009  1.5465  0.3841 -0.4425
  154MOL    H9649362   6.584   7.976   5.787 -1.4025 -0.4915 -0.0265
  154MOL    H9749363   6.571   7.840   5.597 -2.0985 -3.7405 -0.7128
  154MOL    C9849364   6.818   7.506   5.559  0.8540 -0.0388  0.4022
  154MOL    C9949365   6.932   7.601   5.517 -0.8982 -0.3950 -0.0171
  154MOL   C10049366   7.064   7.543   5.558 -0.4938 -0.2997  0.5036
  154MOL   C10149367   7.147   7.604   5.655 -0.0265 -0.3313  0.0042
  154MOL   C10249368   7.276   7.560   5.689 -0.3520  0.1526 -0.3043
  154MOL   C10349369   7.333   7.455   5.607  0.0473  0.0245 -0.9201
  154MOL   C10449370   7.247   7.379   5.524 -0.0901  0.3582  0.7390
  154MOL   C10549371   7.118   7.426   5.500  0.6033  0.2197  0.6292
  154MOL   H10649372   6.807   7.419   5.494 -1.0441 -0.3142  1.0713
  154MOL   H10749373   6.852   7.452   5.647  2.2813 -1.0787 -0.7462
  154MOL   H10849374   6.914   7.694   5.572 -0.2206  1.4562 -2.7668
  154MOL   H10949375   7.121   7.693   5.710 -0.5075 -0.6601  0.3083
  154MOL   H11049376   7.336   7.616   5.759 -1.1667  0.2905  0.2865
  154MOL   H11149377   7.436   7.430   5.629 -0.1483 -0.1537 -0.1707
  154MOL   H11249378   7.278   7.283   5.487 -0.3443  0.8505 -0.8095
  154MOL   H11349379   7.053   7.373   5.431  0.4718 -0.8969  1.5961
  154MOL   C11449380   6.925   7.633   5.368  0.0957  0.0910  0.5296
  154MOL   C11549381   7.028   7.736   5.316  0.2253  0.1299  0.2429
  154MOL   C11649382   7.045   7.738   5.163 -0.2498  0.3095  0.1348
  154MOL   C11749383   7.166   7.721   5.099 -0.5646 -0.1920  0.3739
  154MOL   C11849384   7.173   7.721   4.957  0.1247  0.5340  1.1528
  154MOL   C11949385   7.064   7.741   4.874 -0.4672  0.1675  0.8477
  154MOL   C12049386   6.938   7.766   4.938 -0.7126  0.7082 -0.1475
  154MOL   C12149387   6.933   7.764   5.082 -0.3245  0.3404  0.3431
  154MOL   H12249388   6.825   7.645   5.327 -0.1751 -2.7783  0.2639
  154MOL   H12349389   6.949   7.537   5.322  0.4798  0.8636 -0.9081
  154MOL   H12449390   7.122   7.702   5.359 -0.8977 -0.5440  2.2406
  154MOL   H12549391   7.257   7.703   5.154  0.3091 -1.4684 -1.4401
  154MOL   H12649392   7.272   7.719   4.913 -1.2521 -0.0036 -2.0693
  154MOL   H12749393   7.076   7.750   4.767 -0.9560 -2.5563  0.5199
  154MOL   H12849394   6.848   7.791   4.882  1.2083  2.6165 -2.5156
  154MOL   H12949395   6.837   7.793   5.123 -0.8418 -1.2936  0.2958
  154MOL   C13049396   6.989   7.879   5.363 -0.2648  0.5727  0.9416
  154MOL   C13149397   7.105   7.950   5.437 -0.4110  0.5069  0.4314
  154MOL   C13249398   7.233   7.968   5.349  0.6137 -0.4681  0.3834
  154MOL   C13349399   7.347   7.903   5.403  0.9132 -0.3043  0.1564
  154MOL   C13449400   7.464   7.915   5.334  0.1175  0.0254  0.1016
  154MOL   C13549401   7.472   7.988   5.216 -0.4538  0.0160  0.0152
  154MOL   C13649402   7.357   8.052   5.160  0.4781  0.0423  0.0899
  154MOL   C13749403   7.235   8.042   5.227 -0.4834  0.7169 -0.2528
  154MOL   H13849404   6.899   7.870   5.425 -1.0130  0.0969 -0.1965
  154MOL   H13949405   6.952   7.940   5.281  0.8250 -1.6185 -1.2294
  154MOL   H14049406   7.130   7.882   5.518  1.4733  0.0098 -0.5455
  154MOL   H14149407   7.351   7.842   5.492  1.0450 -0.0144  0.3485
  154MOL   H14249408   7.549   7.869   5.382  0.5431  0.4667 -0.2212
  154MOL   H14349409   7.564   7.997   5.161  0.0168 -0.2381  0.7644
  154MOL   H14449410   7.355   0.002   5.074 -1.8808 -1.3775 -0.9732
  154MOL   H14549411   7.141   8.079   5.189 -0.2381  2.0708  0.4218
  154MOL   C14649412   7.067   8.083   5.495 -0.2356  0.3314 -0.6633
  154MOL   C14749413   7.003   8.057   5.635 -0.0379 -0.1662  0.4838
  154MOL   C14849414   7.094   8.003   5.748 -0.0564  0.7133  0.5181
  154MOL   C14949415   7.033   7.919   5.845 -0.7982  0.0149 -0.5590
  154MOL   C15049416   7.118   7.843   5.928 -0.1903  0.5451 -0.8849
  154MOL   C15149417   7.259   7.861   5.938  0.1315  0.4088  0.5377
  154MOL   C15249418   7.319   7.955   5.849  0.2799 -0.6096  0.1025
  154MOL   C15349419   7.236   8.028   5.753 -0.3580  0.8890  0.3642
  154MOL   H15449420   6.999   0.033   5.441 -1.3195 -0.0955  0.1547
  154MOL   H15549421   7.154   0.031   5.513 -0.9049  0.4871  2.3033
  154MOL   H15649422   6.929   7.978   5.625  1.0393 -1.2106  0.7299
  154MOL   H15749423   6.925   7.913   5.851 -0.9560  2.7007  0.0024
  154MOL   H15849424   7.084   7.773   6.003  3.6395 -0.1113  0.3742
  154MOL   H15949425   7.324   7.808   6.005 -0.7340 -0.8223  0.4144
  154MOL   H16049426   7.424   7.977   5.861  0.1853 -0.6023  0.9492
  154MOL   H16149427   7.273   8.096   5.678  0.4696  0.2494  0.1791
  154MOL   C16249428   6.923   0.074   5.687  0.3495 -0.1734 -0.0955
  154MOL   C16349429   6.995   0.212   5.693  0.2508 -0.3510  0.1479
  154MOL   C16449430   6.975   0.289   5.561  0.3505  0.3886  0.2822
  154MOL   C16549431   6.846   0.324   5.513  0.3402  1.1928  0.3998
  154MOL   C16649432   6.828   0.383   5.381  0.1943  0.3981  0.3755
  154MOL   C16749433   6.945   0.408   5.310 -0.7345 -0.4200  0.0588
  154MOL   C16849434   7.078   0.382   5.361  0.6164  0.4291  0.3990
  154MOL   C16949435   7.089   0.323   5.483 -0.1806 -0.2906 -0.1846
  154MOL   H17049436   6.886   0.052   5.787  2.0022  0.2626  0.6252
  154MOL   H17149437   6.834   0.071   5.625  1.0788  1.2878 -1.2455
  154MOL   H17249438   7.100   0.185   5.698 -0.0112 -1.8253 -1.4780
  154MOL   H17349439   6.760   0.305   5.576 -0.1963 -0.1341 -0.6893
  154MOL   H17449440   6.727   0.392   5.342 -0.1958  0.0725  1.2905
  154MOL   H17549441   6.936   0.460   5.215  0.7554 -1.5046 -0.6876
  154MOL   H17649442   7.170   0.407   5.310  0.9496  0.4146  0.9978
  154MOL   H17749443   7.190   0.310   5.520  0.1771  0.2659 -0.9622
  154MOL   C17849444   6.961   0.304   5.813 -0.0044  0.3693 -0.2882
  154MOL   C17949445   7.034   0.281   5.946  0.5268  0.5567  0.3463
  154MOL   C18049446   6.948   0.193   6.043 -0.3797 -0.1123  0.4885
  154MOL   C18149447   6.986   0.062   6.087  0.9084 -0.0510  0.3755
  154MOL   C18249448   6.902   8.098   6.166 -0.2242 -0.1760  0.1568
  154MOL   C18349449   6.777   0.030   6.208  0.1581  0.3147 -0.5514
  154MOL   C18449450   6.734   0.157   6.162 -0.1652 -0.6261 -0.7396
  154MOL   C18549451   6.816   0.236   6.085 -0.1463 -0.2146  0.4109
  154MOL   H18649452   6.852   0.310   5.811 -0.1626 -1.4619  1.6036
  154MOL   H18749453   7.002   0.402   5.788 -2.7766  1.5131 -0.5373
  154MOL   H18849454   7.030   0.377   5.997 -0.6778  0.9724 -0.5122
  154MOL   H18949455   7.079   0.022   6.048  0.5956 -0.4862  0.0592
  154MOL   H19049456   6.940   8.000   6.191  0.0607 -0.0255  0.3229
  154MOL   H19149457   6.715   8.081   6.269 -0.0925  0.4963 -0.6156
  154MOL   H19249458   6.639   0.206   6.180  1.5309  2.4809  0.1136
  154MOL   H19349459   6.787   0.334   6.052  1.9890  0.1528 -0.3955
  154MOL   C19449460   7.186   0.246   5.943 -0.6118 -0.2253  0.4186
  154MOL   C19549461   7.289   0.340   5.875  0.2750  0.2995  0.3997
  154MOL   C19649462   7.290   0.488   5.937  0.2522  0.8402 -0.9631
  154MOL   C19749463   7.325   0.517   6.072  0.9752 -0.4741  0.2481
  154MOL   C19849464   7.328   0.652   6.119 -0.4453  0.3035 -0.0101
  154MOL   C19949465   7.294   0.760   6.030  0.3320 -0.0138  0.0872
  154MOL   C20049466   7.251   0.729   5.897  0.4290 -0.4933 -1.0758
  154MOL   C20149467   7.246   0.596   5.859 -0.0526 -0.5767  0.2595
  154MOL   H20249468   7.192   0.152   5.888  0.2880  0.5740 -0.8656
  154MOL   H20349469   7.220   0.229   6.045  0.4621  0.2284  0.1397
  154MOL   H20449470   7.266   0.349   5.768 -0.7681  2.6221  0.8011
  154MOL   H20549471   7.366   0.437   6.132  0.4054 -2.5679 -2.0633
  154MOL   H20649472   7.358   0.687   6.217  2.8338  1.6456 -1.4268
  154MOL   H20749473   7.284   0.864   6.057  1.9781 -0.0643  0.9925
  154MOL   H20849474   7.222   0.810   5.832  1.6125  0.0058 -0.9916
  154MOL   H20949475   7.213   0.580   5.757  0.3644  2.4868 -0.4022
  154MOL   C21049476   7.428   0.280   5.878 -0.4979 -0.4556  0.6081
  154MOL   C21149477   7.534   0.341   5.781  0.0038 -0.2767 -0.3212
  154MOL   C21249478   7.500   0.315   5.636 -0.4724 -0.0653  0.1532
  154MOL   C21349479   7.469   0.423   5.552 -0.6272 -0.7538  0.5635
  154MOL   C21449480   7.435   0.398   5.419 -0.0315 -0.7117 -0.1823
  154MOL   C21549481   7.439   0.267   5.368 -0.4060 -0.1537  0.4637
  154MOL   C21649482   7.471   0.161   5.452 -0.2130 -0.0415  0.2129
  154MOL   C21749483   7.514   0.184   5.582 -0.6870  0.3298  0.1786
  154MOL   H21849484   7.419   0.173   5.858 -0.9216 -0.2399 -0.3523
  154MOL   H21949485   7.472   0.289   5.978  0.9379  1.5587 -0.1765
  154MOL   H22049486   7.621   0.277   5.794 -0.2391 -0.4063  0.7157
  154MOL   H22149487   7.449   0.519   5.597 -1.5377 -0.7710  0.2180
  154MOL   H22249488   7.404   0.478   5.354  0.4614 -0.5582 -0.2347
  154MOL   H22349489   7.418   0.247   5.264 -2.7647  0.9473  0.7129
  154MOL   H22449490   7.468   0.061   5.410  0.7930  0.7869 -1.9123
  154MOL   H22549491   7.544   0.096   5.637 -0.3408 -0.0547 -0.6278
  154MOL   C22649492   7.601   0.477   5.822  0.0060 -0.6495  0.1533
  154MOL   C22749493   7.677   0.484   5.958  0.0249 -0.3111  0.3564
  154MOL   C22849494   7.767   0.363   5.984 -0.9284  0.1725  0.2975
  154MOL   C22949495   7.867   0.325   5.890  0.2688  0.4212  0.3678
  154MOL   C23049496   7.953   0.216   5.909  0.4661  0.3859 -0.2377
  154MOL   C23149497   7.932   0.136   6.023 -0.3537  0.4074  0.7423
  154MOL   C23249498   7.836   0.173   6.122 -0.3860  0.3900  0.8895
  154MOL   C23349499   7.755   0.284   6.103  1.1276  0.1421 -0.3794
  154MOL   H23449500   7.539   0.565   5.802  0.0450 -0.4101  1.0478
  154MOL   H23549501   7.673   0.469   5.741  1.4144 -0.6725  1.3920
  154MOL   H23649502   7.602   0.490   6.037 -0.2523 -0.3735  0.0985
  154MOL   H23749503   7.869   0.370   5.791  0.5472  0.9953  0.6321
  154MOL   H23849504   8.029   0.200   5.834 -0.1034  1.5702 -1.0911
  154MOL   H23949505   7.991   0.046   6.031 -0.8792 -0.1808 -1.6935
  154MOL   H24049506   7.831   0.103   6.204 -1.6350 -1.0369 -0.3687
  154MOL   H24149507   7.685   0.309   6.182 -1.3132 -0.7339 -2.2181
  154MOL   C24249508   7.761   0.615   5.966 -0.0752 -0.3494 -0.0391
  154MOL   C24349509   7.806   0.655   6.115 -0.5131 -0.0483 -0.7274
  154MOL   C24449510   7.898   0.776   6.114  0.1778 -0.0614  0.0852
  154MOL   C24549511   8.036   0.761   6.153 -0.0251 -0.6995 -0.2395
  154MOL   C24649512   0.008   0.870   6.143  0.1057 -0.0125  0.3925
  154MOL   C24749513   8.079   0.982   6.075 -0.1376 -0.1385 -0.3757
  154MOL   C24849514   7.947   0.997   6.032 -0.3767  0.1235  0.2274
  154MOL   C24949515   7.855   0.896   6.060  0.9906 -0.0853 -0.3255
  154MOL   H25049516   7.685   0.690   5.945  2.3385  1.7203 -1.6940
  154MOL   H25149517   7.835   0.625   5.886 -1.1186  0.0508 -0.9665
  154MOL   H25249518   7.869   0.576   6.157 -0.8408 -0.8511 -1.7230
  154MOL   H25349519   8.068   0.673   6.207  1.1183  0.0046  0.2536
  154MOL   H25449520   0.111   0.866   6.175  0.0082 -1.3589  0.5737
  154MOL   H25549521   0.029   1.068   6.064 -0.1287 -0.3240 -1.8297
  154MOL   H25649522   7.909   1.087   5.986  1.2248  1.0405  0.6983
  154MOL   H25749523   7.755   0.903   6.020 -0.1826 -0.3941  2.4574
  154MOL   C25849524   7.687   0.681   6.214 -0.2364 -0.2155  0.3772
  154MOL   C25949525   7.701   0.771   6.337  0.6592  0.4293  0.4631
  154MOL   C26049526   7.563   0.801   6.399 -0.5072 -0.3245 -0.0969
  154MOL   C26149527   7.484   0.702   6.454  0.3501  0.3126  0.0943
  154MOL   C26249528   7.362   0.740   6.514  0.1712 -0.0057  0.0367
  154MOL   C26349529   7.316   0.876   6.511 -0.3548  0.0400  0.0141
  154MOL   C26449530   7.397   0.970   6.449 -0.3216  0.1947  0.7811
  154MOL   C26549531   7.522   0.937   6.400  0.9917 -0.1686  0.0182
  154MOL   H26649532   7.661   0.579   6.241 -0.0784 -0.7095 -1.2381
  154MOL   H26749533   7.607   0.722   6.152 -0.8259 -0.2502  1.1125
  154MOL   H26849534   7.750   0.867   6.318 -1.6272  1.7711  1.1430
  154MOL   H26949535   7.533   0.606   6.457  1.2511  0.7842  0.5387
  154MOL   H27049536   7.297   0.666   6.559  0.4068  1.2722  2.5374
  154MOL   H27149537   7.227   0.899   6.568 -1.6531 -2.3336 -0.9551
  154MOL   H27249538   7.350   1.065   6.470 -2.2805 -0.3388 -1.0279
  154MOL   H27349539   7.581   1.020   6.364 -0.5266  1.7705  1.8155
  154MOL   C27449540   7.803   0.721   6.442  1.0698  0.6259 -0.1550
  154MOL   C27549541   7.921   0.812   6.493 -0.0101 -0.3595 -0.5688
  154MOL   C27649542   7.870   0.951   6.517 -0.1452 -0.6356 -0.0478
  154MOL   C27749543   7.783   0.985   6.618 -0.8521 -0.2468 -0.9687
  154MOL   C27849544   7.712   1.114   6.624  0.2488 -0.1764 -0.5413
  154MOL   C27949545   7.752   1.211   6.529 -0.5981 -0.9970 -0.1918
  154MOL   C28049546   7.859   1.184   6.442 -0.4557 -0.5136 -0.1877
  154MOL   C28149547   7.917   1.054   6.428 -0.3349  0.1168  0.2475
  154MOL   H28249548   7.850   0.624   6.422  1.0095  0.4708  0.4485
  154MOL   H28349549   7.738   0.704   6.527 -0.2675 -3.0524 -1.7974
  154MOL   H28449550   8.001   0.804   6.419 -0.3860 -0.1768 -0.9946
  154MOL   H28549551   7.747   0.910   6.686 -0.3262  0.4722  0.1145
  154MOL   H28649552   7.643   1.136   6.704 -1.6000 -0.4139 -2.0584
  154MOL   H28749553   7.694   1.302   6.517  0.2156 -0.3068  1.0017
  154MOL   H28849554   7.891   1.252   6.364 -1.5193  0.0533 -0.1361
  154MOL   H28949555   7.978   1.032   6.342  0.3217 -4.5073  1.8066
  154MOL   C29049556   7.983   0.760   6.624 -0.4880 -0.0564  0.0367
  154MOL   C29149557   8.072   0.635   6.617 -0.5130  0.4530 -0.3433
  154MOL   C29249558   0.065   0.646   6.514  0.5143 -0.4414  0.1354
  154MOL   C29349559   0.166   0.741   6.529 -0.0357  0.0801  0.4504
  154MOL   C29449560   0.285   0.736   6.452  0.0589  0.8408 -0.0654
  154MOL   C29549561   0.284   0.644   6.346  0.5119 -0.1579  0.5434
  154MOL   C29649562   0.184   0.551   6.324 -0.1575 -0.6384  0.4143
  154MOL   C29749563   0.074   0.554   6.412  0.2600 -0.0620  0.3591
  154MOL   H29849564   7.911   0.741   6.703 -0.8184  2.5336  0.3925
  154MOL   H29949565   8.039   0.847   6.658  1.7300 -1.8881  1.1716
  154MOL   H30049566   8.017   0.542   6.600 -1.1598  0.6576  0.5757
  154MOL   H30149567   0.166   0.818   6.605 -0.0843  0.8241 -0.3002
  154MOL   H30249568   0.367   0.804   6.466  0.6755  0.4402 -1.6394
  154MOL   H30349569   0.367   0.641   6.276  1.1288 -1.8158  1.3262
  154MOL   H30449570   0.191   0.473   6.250  0.0115  1.4224 -1.8054
  154MOL   H30549571   0.017   0.463   6.399 -0.9714  0.8277 -0.6843
  154MOL   C30649572   0.012   0.609   6.758 -0.6197  0.2237 -0.0139
  154MOL   C30749573   0.091   0.480   6.772 -0.0305  0.7304  0.5777
  154MOL   C30849574   0.101   0.432   6.913  0.0316 -0.1333  0.0164
  154MOL   C30949575   0.205   0.478   6.998 -0.8162  0.2196 -0.2765
  154MOL   C31049576   0.210   0.439   7.137 -0.2701 -0.3878 -0.0622
  154MOL   C31149577   0.113   0.350   7.190  0.2273 -0.5317  0.1151
  154MOL   C31249578   0.013   0.303   7.107 -0.4752  0.0329  0.5716
  154MOL   C31349579   0.003   0.346   6.971 -0.0664  0.3732  0.3590
  154MOL   H31449580   8.043   0.611   6.827 -1.5038 -0.1654 -1.0631
  154MOL   H31549581   0.077   0.693   6.785 -0.7856  0.8773 -1.5778
  154MOL   H31649582   0.188   0.496   6.726 -0.4364  0.1403 -0.4993
  154MOL   H31749583   0.288   0.533   6.956 -2.1747  1.1491 -1.8236
  154MOL   H31849584   0.284   0.475   7.207 -1.0937  0.4849  0.3687
  154MOL   H31949585   0.120   0.314   7.292 -1.7164  1.4904  1.0255
  154MOL   H32049586   8.053   0.236   7.147 -1.0895  0.7424  0.6235
  154MOL   H32149587   8.033   0.322   6.908 -0.2583  0.9282  0.4024
  154MOL   H32249588   0.046   0.405   6.707  0.2355  2.6555 -1.8529
  155MOL     C149589   0.941   3.772   6.585  0.0406 -0.1282  0.7471
  155MOL     C249590   0.959   3.833   6.725 -0.4729 -0.3435  0.7399
  155MOL     C349591   1.090   3.914   6.727  0.2475  0.6221  0.1448
  155MOL     C449592   1.143   3.992   6.620 -0.2424 -0.1706 -0.2400
  155MOL     C549593   1.269   4.059   6.638  0.1182  0.0536 -0.1069
  155MOL     C649594   1.338   4.054   6.762 -0.6098 -0.1519  0.4498
  155MOL     C749595   1.282   3.980   6.866 -0.5642  0.4434  0.1985
  155MOL     C849596   1.164   3.918   6.847  0.4088  0.2363 -0.3073
  155MOL     H949597   0.915   3.849   6.513 -0.3300  0.0710  1.0908
  155MOL    H1049598   1.028   3.714   6.554 -0.5561  0.4059 -2.0285
  155MOL    H1149599   0.970   3.746   6.790 -0.9146 -0.7890  0.2190
  155MOL    H1249600   1.102   4.003   6.521 -1.7146  0.7690  0.4542
  155MOL    H1349601   1.303   4.128   6.561 -2.5814 -0.2050 -1.5925
  155MOL    H1449602   1.429   4.111   6.778 -1.7257  2.3517 -1.7367
  155MOL    H1549603   1.333   3.976   6.961 -0.9674 -0.5927  0.3754
  155MOL    H1649604   1.122   3.868   6.932  2.8790  1.9124  1.9726
  155MOL    H1749605   0.862   3.696   6.580  1.8990 -2.1432  1.2732
  155MOL    C1849606   0.841   3.926   6.767 -0.5456  0.6216  0.5522
  155MOL    C1949607   0.701   3.867   6.772 -0.3498 -0.1527 -0.3231
  155MOL    C2049608   0.706   3.725   6.837  0.0025 -0.5999 -0.3457
  155MOL    C2149609   0.648   3.618   6.769  0.3274 -0.5469 -0.1679
  155MOL    C2249610   0.661   3.480   6.808 -0.4147 -0.4643 -0.1396
  155MOL    C2349611   0.727   3.460   6.930 -0.3301 -0.5244  0.0538
  155MOL    C2449612   0.777   3.562   7.014 -0.2423 -0.2646  0.4331
  155MOL    C2549613   0.770   3.698   6.967 -0.0352 -0.5020  0.0859
  155MOL    H2649614   0.839   4.011   6.698  2.8703  0.8340  0.6087
  155MOL    H2749615   0.869   3.962   6.866 -1.5018  0.3715  0.9142
  155MOL    H2849616   0.667   3.854   6.669  1.8941  1.2482 -1.2833
  155MOL    H2949617   0.591   3.636   6.680  1.8555 -1.7426 -1.4122
  155MOL    H3049618   0.616   3.393   6.762 -1.1106 -0.5542  0.7058
  155MOL    H3149619   0.746   3.355   6.949  3.6850  0.3338  1.0813
  155MOL    H3249620   0.827   3.549   7.109  0.8203  1.1839  0.0860
  155MOL    H3349621   0.801   3.787   7.019 -1.2364 -0.3147  0.4959
  155MOL    C3449622   0.601   3.955   6.850  0.3689 -0.1155 -0.3632
  155MOL    C3549623   0.589   4.107   6.811 -1.2680 -0.2085 -0.4453
  155MOL    C3649624   0.573   4.121   6.654  0.4062 -0.1739  0.3423
  155MOL    C3749625   0.671   4.193   6.580  0.3035  0.4022 -0.1761
  155MOL    C3849626   0.670   4.176   6.442  0.1421  0.5601  0.9697
  155MOL    C3949627   0.563   4.119   6.368 -0.2082  0.5689 -1.1483
  155MOL    C4049628   0.457   4.063   6.442  0.3484 -0.5416 -0.2262
  155MOL    C4149629   0.464   4.051   6.583 -0.5592 -0.4742  0.2772
  155MOL    H4249630   0.619   3.947   6.957  1.3802  0.6578 -0.4719
  155MOL    H4349631   0.504   3.906   6.841  0.2669  0.3352 -1.8913
  155MOL    H4449632   0.686   4.156   6.824 -0.4754 -1.7151 -0.5117
  155MOL    H4549633   0.745   4.261   6.619  1.6556 -1.8986  1.3855
  155MOL    H4649634   0.748   4.230   6.389 -0.2388 -0.2405 -0.4198
  155MOL    H4749635   0.566   4.109   6.261  0.6015 -0.6127 -1.0267
  155MOL    H4849636   0.372   4.034   6.381  0.0230 -0.3599  0.1357
  155MOL    H4949637   0.387   4.011   6.647 -0.5190 -1.0368 -0.0216
  155MOL    C5049638   0.490   4.191   6.890  0.7085  0.0242 -0.2163
  155MOL    C5149639   0.467   4.342   6.836  1.0765 -0.4472 -0.2923
  155MOL    C5249640   0.329   4.369   6.764  0.2003 -0.2076  0.3686
  155MOL    C5349641   0.330   4.410   6.628 -0.2338  0.1537  0.3178
  155MOL    C5449642   0.210   4.424   6.553  0.5045 -0.6048 -0.4110
  155MOL    C5549643   0.085   4.416   6.618  0.0668  0.4731  0.3966
  155MOL    C5649644   0.083   4.383   6.757 -0.4125 -0.4881 -0.4779
  155MOL    C5749645   0.204   4.360   6.828  0.0711 -0.4328 -0.0772
  155MOL    H5849646   0.520   4.182   6.995 -2.3914 -1.1402  0.6406
  155MOL    H5949647   0.393   4.141   6.884  0.2719  0.8374  0.0302
  155MOL    H6049648   0.549   4.375   6.772 -1.4672 -0.1975 -3.5400
  155MOL    H6149649   0.427   4.416   6.582 -0.7825 -1.7447 -1.1365
  155MOL    H6249650   0.210   4.425   6.445  0.2782 -1.9964 -0.4361
  155MOL    H6349651   8.109   4.425   6.560 -0.5896 -1.6084  1.0485
  155MOL    H6449652   8.105   4.373   6.812 -0.9408  2.0001 -0.8907
  155MOL    H6549653   0.200   4.344   6.934 -0.8780 -1.0518 -0.2021
  155MOL    C6649654   0.473   4.457   6.945 -0.0708  0.2423 -0.4242
  155MOL    C6749655   0.589   4.440   7.054  0.9756 -0.0001 -0.4065
  155MOL    C6849656   0.728   4.448   6.988  0.0120  0.0091  0.6678
  155MOL    C6949657   0.819   4.347   7.014  0.2510  0.2578  0.1089
  155MOL    C7049658   0.951   4.354   6.969  0.2931  0.9033 -0.5565
  155MOL    C7149659   0.989   4.452   6.871 -0.5628 -0.9545  0.1217
  155MOL    C7249660   0.894   4.559   6.852  0.2738 -0.6226 -0.0171
  155MOL    C7349661   0.767   4.559   6.912  0.2091  0.3006  0.3593
  155MOL    H7449662   0.382   4.442   7.002  0.7847 -2.6407  0.3197
  155MOL    H7549663   0.459   4.547   6.886 -3.4912  0.8840  1.3124
  155MOL    H7649664   0.588   4.341   7.100  1.3544 -0.0587 -0.5207
  155MOL    H7749665   0.799   4.277   7.094 -1.1365 -0.7873 -1.1359
  155MOL    H7849666   1.019   4.284   7.014  0.0607  1.9069  1.4267
  155MOL    H7949667   1.092   4.456   6.840 -0.8347  0.6245 -0.6474
  155MOL    H8049668   0.930   4.645   6.796  0.3373  0.4674  1.6615
  155MOL    H8149669   0.694   4.639   6.907  1.0946  0.9490 -2.8663
  155MOL    C8249670   0.573   4.548   7.169 -0.1559 -0.1357  0.2297
  155MOL    C8349671   0.460   4.522   7.277  0.8273 -0.2294 -0.1829
  155MOL    C8449672   0.475   4.397   7.358 -0.0439  0.2228 -0.3057
  155MOL    C8549673   0.601   4.348   7.386 -0.4053  0.1938  0.5039
  155MOL    C8649674   0.607   4.229   7.457  0.5511  0.3182 -0.2425
  155MOL    C8749675   0.494   4.159   7.505 -0.5402 -0.5736  0.0542
  155MOL    C8849676   0.373   4.223   7.497 -0.9344 -0.0918  0.2402
  155MOL    C8949677   0.363   4.339   7.415 -0.4601 -0.7548  0.5597
  155MOL    H9049678   0.547   4.631   7.103  2.5923  0.4017 -0.2545
  155MOL    H9149679   0.665   4.574   7.220  1.2819 -2.8885 -0.8176
  155MOL    H9249680   0.370   4.501   7.220 -1.1504  0.4446  2.5943
  155MOL    H9349681   0.696   4.383   7.347 -1.8572  0.8933 -2.5536
  155MOL    H9449682   0.705   4.184   7.462  0.8942  1.1494  0.5511
  155MOL    H9549683   0.506   4.066   7.559 -0.9586 -1.4939 -1.3945
  155MOL    H9649684   0.289   4.181   7.551  0.1050 -0.7312  1.3764
  155MOL    H9749685   0.264   4.374   7.389 -0.7900 -1.1443  1.2777
  155MOL    C9849686   0.431   4.650   7.368  0.2521  0.6860  0.3459
  155MOL    C9949687   0.341   4.748   7.290 -0.2185 -0.2253  0.3166
  155MOL   C10049688   0.203   4.688   7.277  0.3908 -0.6898 -0.1753
  155MOL   C10149689   0.173   4.623   7.156 -0.5479 -0.6113 -0.0001
  155MOL   C10249690   0.053   4.554   7.145  0.6472  0.0229  0.5933
  155MOL   C10349691   8.063   4.553   7.245 -0.0776  0.2106  0.3391
  155MOL   C10449692   8.098   4.618   7.364  0.1810 -0.2884  0.4178
  155MOL   C10549693   0.103   4.691   7.376 -0.2506  0.2580  0.4498
  155MOL   H10649694   0.531   4.683   7.399  1.3942 -1.2035 -1.2322
  155MOL   H10749695   0.383   4.606   7.455  0.6268 -1.8398 -0.6886
  155MOL   H10849696   0.375   4.765   7.188 -0.1824  0.1243  0.3848
  155MOL   H10949697   0.230   4.634   7.065 -0.1762  1.0860  0.4300
  155MOL   H11049698   0.034   4.504   7.052 -2.1747  0.5629  0.8397
  155MOL   H11149699   7.972   4.495   7.240  0.7022 -0.9180 -1.3371
  155MOL   H11249700   8.021   4.626   7.440 -0.7524 -1.6143 -0.3843
  155MOL   H11349701   0.123   4.751   7.464  0.7456 -1.1997  1.2318
  155MOL   C11449702   0.347   4.877   7.364  0.0994  0.2109  0.3729
  155MOL   C11549703   0.468   4.967   7.326 -0.3742 -0.0711 -0.8093
  155MOL   C11649704   0.455   5.038   7.193  0.6426  0.4291 -0.2453
  155MOL   C11749705   0.348   5.126   7.164  0.5977 -0.1773  0.1936
  155MOL   C11849706   0.353   5.206   7.057 -0.2097  0.2339  0.7836
  155MOL   C11949707   0.454   5.198   6.964 -0.9710 -0.0212 -0.3877
  155MOL   C12049708   0.561   5.103   6.984  0.4001 -0.5639 -0.7200
  155MOL   C12149709   0.560   5.024   7.101  0.9469 -0.7294  0.5272
  155MOL   H12249710   0.333   4.865   7.471 -0.9319  2.1804  0.4727
  155MOL   H12349711   0.259   4.934   7.334 -1.1548 -1.7817  0.1905
  155MOL   H12449712   0.557   4.905   7.340 -1.4371 -1.1577  1.3187
  155MOL   H12549713   0.272   5.142   7.240  1.2219  0.2026  0.7360
  155MOL   H12649714   0.262   5.263   7.048 -0.5460 -0.4501 -0.2050
  155MOL   H12749715   0.460   5.271   6.885  1.5315 -0.7287 -0.8945
  155MOL   H12849716   0.643   5.089   6.916  0.3164 -0.7877 -0.7738
  155MOL   H12949717   0.634   4.946   7.113  3.3043  0.9580 -2.2343
  155MOL   C13049718   0.493   5.080   7.433 -0.7591 -0.1440 -0.0661
  155MOL   C13149719   0.624   5.166   7.424  0.4600  0.0596  0.0846
  155MOL   C13249720   0.593   5.306   7.466 -1.1217 -0.3295 -0.5751
  155MOL   C13349721   0.595   5.417   7.376  0.1699 -0.4974 -0.2913
  155MOL   C13449722   0.590   5.547   7.430 -0.5166  0.5526 -0.6040
  155MOL   C13549723   0.562   5.565   7.566  0.0794  0.1690 -0.6530
  155MOL   C13649724   0.551   5.457   7.652 -0.1358 -0.1568 -0.1140
  155MOL   C13749725   0.578   5.332   7.606  0.1824 -0.5723 -1.2456
  155MOL   H13849726   0.507   5.028   7.528  0.2035 -3.7381 -2.0842
  155MOL   H13949727   0.402   5.138   7.449  0.0905  0.8167  1.4372
  155MOL   H14049728   0.640   5.179   7.316  1.2924 -0.3893  0.1524
  155MOL   H14149729   0.617   5.408   7.270 -0.3116 -2.8033 -0.2125
  155MOL   H14249730   0.603   5.633   7.365  1.5889 -0.7650 -1.9987
  155MOL   H14349731   0.543   5.662   7.610 -1.7366  0.0392 -1.1163
  155MOL   H14449732   0.522   5.481   7.753 -2.1105  0.7643 -0.8824
  155MOL   H14549733   0.579   5.247   7.673  0.1181  0.1305 -0.3446
  155MOL   C14649734   0.747   5.107   7.495  0.2632 -0.7079 -0.2665
  155MOL   C14749735   0.822   5.000   7.418  0.2303  0.3773  0.2904
  155MOL   C14849736   0.871   5.028   7.273  0.3679 -0.4443  0.1754
  155MOL   C14949737   0.891   5.162   7.240  0.4300 -0.2145 -0.2976
  155MOL   C15049738   0.937   5.199   7.112 -0.2983 -0.3683 -1.3656
  155MOL   C15149739   0.954   5.104   7.011  0.3145 -0.0572  0.4458
  155MOL   C15249740   0.949   4.964   7.044  0.3767  0.2559  0.1586
  155MOL   C15349741   0.904   4.926   7.177 -0.1569  0.3154  0.6681
  155MOL   H15449742   0.714   5.072   7.593  1.2416  1.2825  0.8092
  155MOL   H15549743   0.820   5.184   7.520 -1.8241  1.2654 -0.1067
  155MOL   H15649744   0.757   4.912   7.417  0.3702  0.2780 -0.1947
  155MOL   H15749745   0.857   5.243   7.302 -1.2584 -1.1140 -0.0267
  155MOL   H15849746   0.928   5.304   7.085 -1.1676  0.4605  1.9370
  155MOL   H15949747   0.967   5.134   6.907  1.1196 -0.3333  0.4693
  155MOL   H16049748   0.967   4.893   6.965  0.4758  1.6126 -1.0616
  155MOL   H16149749   0.896   4.820   7.200 -0.8495 -0.2750 -2.1520
  155MOL   C16249750   0.953   4.969   7.495 -0.0265  0.1644 -0.0348
  155MOL   C16349751   0.946   4.902   7.633  0.0127 -0.8123  0.0141
  155MOL   C16449752   0.842   4.790   7.627 -0.2033 -0.1915 -0.3382
  155MOL   C16549753   0.713   4.797   7.691  0.0202  0.5042  0.0926
  155MOL   C16649754   0.625   4.689   7.702 -0.0613  0.2912 -0.2944
  155MOL   C16749755   0.658   4.570   7.631 -0.0322 -0.2911 -0.3813
  155MOL   C16849756   0.782   4.556   7.566  0.3495 -0.4942  0.4197
  155MOL   C16949757   0.872   4.662   7.561 -0.0432  0.2241 -0.0847
  155MOL   H17049758   1.009   5.063   7.499  2.0451 -1.0846  0.7895
  155MOL   H17149759   1.008   4.897   7.435 -1.7707 -0.7223 -0.5979
  155MOL   H17249760   0.904   4.983   7.693  1.4060 -0.1908  0.1710
  155MOL   H17349761   0.695   4.886   7.750  1.0985 -0.6374  2.1883
  155MOL   H17449762   0.537   4.699   7.764  0.8846  2.6588  0.7365
  155MOL   H17549763   0.593   4.484   7.646 -0.1236 -0.0741  0.4602
  155MOL   H17649764   0.804   4.467   7.508  0.8935 -0.0355 -0.0936
  155MOL   H17749765   0.971   4.645   7.521 -0.0727 -0.8367  0.2772
  155MOL   C17849766   1.081   4.850   7.681  0.7288  0.6096  0.0447
  155MOL   C17949767   1.201   4.946   7.700  0.1855  0.2779 -0.0411
  155MOL   C18049768   1.157   5.053   7.798  0.2165  0.0800  0.1551
  155MOL   C18149769   1.140   5.187   7.752  0.2196 -0.2224 -0.5264
  155MOL   C18249770   1.119   5.295   7.844 -0.1989  0.2480  0.6960
  155MOL   C18349771   1.098   5.264   7.978  0.1549 -0.0983  0.1262
  155MOL   C18449772   1.108   5.130   8.019  0.0089 -0.5306 -0.3191
  155MOL   C18549773   1.137   5.024   7.936 -0.2301 -0.7274 -0.5993
  155MOL   H18649774   1.114   4.764   7.621  0.6302 -0.0166  0.8748
  155MOL   H18749775   1.060   4.806   7.779  0.2613 -1.0618 -0.7754
  155MOL   H18849776   1.224   4.997   7.607 -1.2800 -0.0750 -0.6223
  155MOL   H18949777   1.170   5.212   7.651  3.6403  1.9744  0.9808
  155MOL   H19049778   1.117   5.393   7.797  0.6586  0.8631  1.9038
  155MOL   H19149779   1.068   5.349   8.038 -0.7786  0.8678 -1.6631
  155MOL   H19249780   1.084   5.107   0.007  2.3204  0.8674  0.5572
  155MOL   H19349781   1.164   4.928   7.977  1.6390 -0.4489 -1.1328
  155MOL   C19449782   1.334   4.874   7.741  0.0068  0.2170 -0.3594
  155MOL   C19549783   1.451   4.968   7.726 -0.3788  1.1129  0.2123
  155MOL   C19649784   1.493   5.009   7.859 -0.0127 -0.3530  0.5064
  155MOL   C19749785   1.582   4.928   7.931  0.0868  0.2569 -0.2813
  155MOL   C19849786   1.617   4.962   8.066 -0.2471 -0.0900  0.1992
  155MOL   C19949787   1.568   5.074   0.014 -0.2002  0.4379  0.4106
  155MOL   C20049788   1.486   5.164   8.054  0.2242  0.2528 -0.1325
  155MOL   C20149789   1.444   5.125   7.923  0.2788  0.5468  0.4071
  155MOL   H20249790   1.345   4.785   7.679  1.7367  0.3670 -0.2890
  155MOL   H20349791   1.329   4.834   7.843 -1.3975 -1.7451 -1.1659
  155MOL   H20449792   1.414   5.061   7.682 -4.0860  0.0510  0.9397
  155MOL   H20549793   1.624   4.833   7.903 -0.0819  0.2304 -0.4522
  155MOL   H20649794   1.695   4.903   8.111 -0.4651  0.0477  0.7557
  155MOL   H20749795   1.597   5.109   0.112  2.7679  4.2896 -1.6841
  155MOL   H20849796   1.447   5.256   8.093  0.9102  1.6551 -2.6873
  155MOL   H20949797   1.383   5.188   7.860  0.8475  1.4271  0.7306
  155MOL   C21049798   1.567   4.936   7.634 -0.8787 -0.3159  0.9206
  155MOL   C21149799   1.543   4.909   7.479  0.0974 -0.4604 -0.2821
  155MOL   C21249800   1.462   5.014   7.404  0.1980 -0.2332  0.0891
  155MOL   C21349801   1.337   4.982   7.347 -0.5780  0.4479  0.1243
  155MOL   C21449802   1.262   5.081   7.280  0.2851  0.1367 -0.0694
  155MOL   C21549803   1.314   5.213   7.275 -0.1298  0.0579 -0.1386
  155MOL   C21649804   1.436   5.248   7.338 -0.5478 -0.4657 -0.0204
  155MOL   C21749805   1.515   5.150   7.404  0.3165  0.3992 -0.1223
  155MOL   H21849806   1.627   4.854   7.675  1.4205  1.3825  1.0176
  155MOL   H21949807   1.628   5.025   7.642  0.8060 -1.4602  1.0043
  155MOL   H22049808   1.479   4.820   7.476  0.6049 -0.8975  1.4322
  155MOL   H22149809   1.287   4.886   7.356 -2.1944  1.2788  0.1444
  155MOL   H22249810   1.165   5.060   7.237  0.4585  1.5153 -1.1714
  155MOL   H22349811   1.258   5.287   7.220  1.1052  0.6398 -0.6265
  155MOL   H22449812   1.470   5.350   7.327 -0.2996 -0.4949  0.4474
  155MOL   H22549813   1.612   5.168   7.448  1.2362 -0.2964 -1.8068
  155MOL   C22649814   1.666   4.861   7.399  0.3993 -0.2776  0.0579
  155MOL   C22749815   1.789   4.961   7.381 -0.0975  0.4193 -0.4050
  155MOL   C22849816   1.854   5.012   7.510 -0.0812  0.2516 -0.2610
  155MOL   C22949817   1.862   5.147   7.527  0.0662 -0.3417 -0.1222
  155MOL   C23049818   1.905   5.197   7.646  0.1039 -0.3733  0.0976
  155MOL   C23149819   1.945   5.115   7.754  1.0797 -0.3155  0.4078
  155MOL   C23249820   1.936   4.973   7.730  0.1210 -1.1113  0.5025
  155MOL   C23349821   1.894   4.920   7.610  0.4162 -0.4590 -0.0672
  155MOL   H23449822   1.625   4.816   7.308  1.4579 -0.2533 -0.4388
  155MOL   H23549823   1.696   4.768   7.448  2.6078 -0.2034 -1.0506
  155MOL   H23649824   1.749   5.050   7.332 -1.6765 -1.0011 -1.7645
  155MOL   H23749825   1.844   5.223   7.452  1.8902  2.2031  1.9316
  155MOL   H23849826   1.896   5.303   7.669  2.1159  0.3559 -2.2881
  155MOL   H23949827   1.986   5.163   7.841  0.1371 -0.2970  0.8451
  155MOL   H24049828   1.959   4.902   7.808  2.3929 -1.7192 -0.6818
  155MOL   H24149829   1.887   4.813   7.593  1.2575 -0.4189 -0.6433
  155MOL   C24249830   1.900   4.911   7.291  0.1978  0.4093 -0.3914
  155MOL   C24349831   1.864   4.892   7.143 -0.0942  0.0229  0.0272
  155MOL   C24449832   1.821   5.033   7.087 -0.3002  0.3711  0.2547
  155MOL   C24549833   1.909   5.139   7.071 -0.2692  0.5261  0.4600
  155MOL   C24649834   1.871   5.273   7.032 -0.0058  0.4711  0.3654
  155MOL   C24749835   1.734   5.293   7.023 -0.8691  0.1698 -0.0199
  155MOL   C24849836   1.643   5.189   7.020  0.1260  0.6236 -0.3421
  155MOL   C24949837   1.684   5.058   7.050  0.4708 -0.0121 -0.2530
  155MOL   H25049838   1.939   4.817   7.330  2.5816  1.3025 -0.5769
  155MOL   H25149839   1.991   4.970   7.295  0.6373 -0.1494 -1.6991
  155MOL   H25249840   1.783   4.819   7.138 -0.1845  0.0063  1.4533
  155MOL   H25349841   2.014   5.124   7.093  0.1739 -0.8650 -2.2754
  155MOL   H25449842   1.943   5.353   7.028 -0.7376  1.0890 -0.9212
  155MOL   H25549843   1.690   5.388   6.995 -1.2444  0.1325  0.4553
  155MOL   H25649844   1.539   5.221   7.017 -0.3371 -0.7792  0.3002
  155MOL   H25749845   1.605   4.985   7.063 -1.5567  2.0781 -0.4048
  155MOL   C25849846   1.987   4.835   7.065 -0.9481 -0.4972 -0.0261
  155MOL   C25949847   1.953   4.816   6.910  0.1628  0.0009 -0.6325
  155MOL   C26049848   2.083   4.783   6.821 -0.5809 -0.6527  0.4782
  155MOL   C26149849   2.087   4.828   6.685  0.1653 -0.1109 -0.2240
  155MOL   C26249850   2.197   4.798   6.606 -0.9107 -0.0034  0.0555
  155MOL   C26349851   2.309   4.732   6.658 -0.2978  0.4980  0.3733
  155MOL   C26449852   2.304   4.691   6.795  0.4316 -0.5156 -0.8613
  155MOL   C26549853   2.188   4.712   6.873  0.0744  1.1150  0.0017
  155MOL   H26649854   2.030   4.743   7.104  2.7431  1.7355  1.5070
  155MOL   H26749855   2.074   4.901   7.069 -1.6797  0.4437  0.6041
  155MOL   H26849856   1.929   4.914   6.869 -2.2931 -0.1947  0.2927
  155MOL   H26949857   2.003   4.874   6.636 -1.3947 -1.9641  0.6383
  155MOL   H27049858   2.193   4.820   6.500 -1.7683  1.2776  0.3424
  155MOL   H27149859   2.399   4.713   6.601 -0.6009 -1.0622  0.3780
  155MOL   H27249860   2.399   4.651   6.829 -0.7596 -1.2932  1.6612
  155MOL   H27349861   2.191   4.689   6.979  0.8446 -0.8669 -0.4101
  155MOL   C27449862   1.837   4.725   6.866  0.4000 -0.9622  0.0276
  155MOL   C27549863   1.845   4.573   6.860 -0.5187 -0.1695 -0.1759
  155MOL   C27649864   1.859   4.524   7.001  0.2962 -0.5738 -0.1192
  155MOL   C27749865   1.980   4.472   7.046  0.9090 -0.0756 -0.4470
  155MOL   C27849866   1.995   4.436   7.183  0.0639 -0.1450  0.4068
  155MOL   C27949867   1.886   4.458   7.277 -0.6226  0.1628  0.7594
  155MOL   C28049868   1.769   4.512   7.226 -0.2771  0.0818  0.4266
  155MOL   C28149869   1.753   4.540   7.085 -0.1238 -0.4167  0.4919
  155MOL   H28249870   1.822   4.760   6.764 -2.6088  1.8821  1.3632
  155MOL   H28349871   1.741   4.755   6.909  0.4619  0.0057 -0.5031
  155MOL   H28449872   1.928   4.554   6.792 -0.8618  0.5530 -0.8130
  155MOL   H28549873   2.062   4.465   6.976 -2.3506  0.5606 -4.5489
  155MOL   H28649874   2.088   4.398   7.221  0.5792  0.8875  0.1956
  155MOL   H28749875   1.896   4.443   7.383 -0.1660 -0.0130  0.6918
  155MOL   H28849876   1.685   4.526   7.293  0.5908 -0.1542  1.5854
  155MOL   H28949877   1.658   4.581   7.054 -0.4791  0.4762  2.6775
  155MOL   C29049878   1.707   4.517   6.800 -0.0973 -0.3820  0.1218
  155MOL   C29149879   1.679   4.541   6.652 -0.0645  0.6613 -0.1389
  155MOL   C29249880   1.746   4.436   6.564  0.0058 -0.0298 -0.2674
  155MOL   C29349881   1.857   4.481   6.493 -0.1339  0.0437 -0.2944
  155MOL   C29449882   1.930   4.394   6.408  0.2997  0.2285  0.3027
  155MOL   C29549883   1.892   4.256   6.402  0.0056 -0.1294  0.1720
  155MOL   C29649884   1.778   4.213   6.471 -0.7607  0.1402  0.7784
  155MOL   C29749885   1.708   4.298   6.561 -0.7659 -0.8837 -0.9326
  155MOL   H29849886   1.630   4.565   6.860  0.5092  0.8820 -0.0841
  155MOL   H29949887   1.686   4.411   6.818 -3.2897 -0.3314 -2.9511
  155MOL   H30049888   1.722   4.634   6.615  0.2963  0.0940 -1.1647
  155MOL   H30149889   1.898   4.580   6.490 -2.3778  0.9715 -1.0923
  155MOL   H30249890   2.017   4.437   6.360  1.7171 -3.4074 -0.5787
  155MOL   H30349891   1.964   4.199   6.344 -0.6111  0.4509 -1.1837
  155MOL   H30449892   1.751   4.108   6.466 -1.0257  0.2134  0.6513
  155MOL   H30549893   1.626   4.259   6.619  0.6076 -0.4797  1.3616
  155MOL   C30649894   1.523   4.542   6.633  0.6708  0.0990  0.7424
  155MOL   C30749895   1.462   4.528   6.490  0.7222 -0.1436 -0.3585
  155MOL   C30849896   1.308   4.510   6.491 -0.0015  0.5235  1.0101
  155MOL   C30949897   1.211   4.588   6.419  0.1996  0.0403 -0.1536
  155MOL   C31049898   1.075   4.549   6.417 -0.3918 -0.1793 -0.0952
  155MOL   C31149899   1.032   4.429   6.490 -0.3213 -0.3448  0.3412
  155MOL   C31249900   1.129   4.360   6.559 -0.2845 -0.0174 -0.7064
  155MOL   C31349901   1.265   4.392   6.563  0.4538  0.0288  0.1826
  155MOL   H31449902   1.488   4.636   6.674 -1.4097 -0.3530  0.0644
  155MOL   H31549903   1.484   4.469   6.705 -0.3469  1.5982  1.7397
  155MOL   H31649904   1.502   4.438   6.444 -0.5440 -0.8604 -0.0788
  155MOL   H31749905   1.244   4.663   6.349 -0.9445 -0.3969 -1.1569
  155MOL   H31849906   1.006   4.605   6.356 -2.1871 -2.1549  0.0559
  155MOL   H31949907   0.930   4.397   6.506  0.7005 -2.8650  2.2598
  155MOL   H32049908   1.102   4.273   6.618 -2.8283  0.9586 -0.3602
  155MOL   H32149909   1.330   4.336   6.629  0.4744  1.5542  1.4777
  155MOL   H32249910   1.476   4.618   6.430 -1.9716  1.5910  1.4840
   8.11478   8.11478   8.11478
