;
; Gromacs include topology (itp) file.
; For Molecular Group XYZ
; Force field scheme: opls2005
; Produced from DL_FIELD v4.11
;


[ moleculetype ]
; name    nrexcl
XYZ    3

[ atoms ]
; nr   type   resnr   residu    atom    cgnr    charge    mass
    1        CT    1  MOL      C1     1  -0.1800000   12.0115
    2        CT    1  MOL      C2     2   0.0550000   12.0115
    3        CA    1  MOL      C3     3  -0.1150000   12.0115
    4        CA    1  MOL      C4     4  -0.1150000   12.0115
    5        CA    1  MOL      C5     5  -0.1150000   12.0115
    6        CA    1  MOL      C6     6  -0.1150000   12.0115
    7        CA    1  MOL      C7     7  -0.1150000   12.0115
    8        CA    1  MOL      C8     8  -0.1150000   12.0115
    9        HC    1  MOL      H9     9   0.0600000    1.0080
   10        HC    1  MOL     H10    10   0.0600000    1.0080
   11        HC    1  MOL     H11    11   0.0600000    1.0080
   12        HA    1  MOL     H12    12   0.1150000    1.0080
   13        HA    1  MOL     H13    13   0.1150000    1.0080
   14        HA    1  MOL     H14    14   0.1150000    1.0080
   15        HA    1  MOL     H15    15   0.1150000    1.0080
   16        HA    1  MOL     H16    16   0.1150000    1.0080
   17        HC    1  MOL     H17    17   0.0600000    1.0080
   18        CT    1  MOL     C18    18  -0.1200000   12.0115
   19        CT    1  MOL     C19    19   0.0550000   12.0115
   20        CA    1  MOL     C20    20  -0.1150000   12.0115
   21        CA    1  MOL     C21    21  -0.1150000   12.0115
   22        CA    1  MOL     C22    22  -0.1150000   12.0115
   23        CA    1  MOL     C23    23  -0.1150000   12.0115
   24        CA    1  MOL     C24    24  -0.1150000   12.0115
   25        CA    1  MOL     C25    25  -0.1150000   12.0115
   26        HC    1  MOL     H26    26   0.0600000    1.0080
   27        HC    1  MOL     H27    27   0.0600000    1.0080
   28        HC    1  MOL     H28    28   0.0600000    1.0080
   29        HA    1  MOL     H29    29   0.1150000    1.0080
   30        HA    1  MOL     H30    30   0.1150000    1.0080
   31        HA    1  MOL     H31    31   0.1150000    1.0080
   32        HA    1  MOL     H32    32   0.1150000    1.0080
   33        HA    1  MOL     H33    33   0.1150000    1.0080
   34        CT    1  MOL     C34    34  -0.1200000   12.0115
   35        CT    1  MOL     C35    35   0.0550000   12.0115
   36        CA    1  MOL     C36    36  -0.1150000   12.0115
   37        CA    1  MOL     C37    37  -0.1150000   12.0115
   38        CA    1  MOL     C38    38  -0.1150000   12.0115
   39        CA    1  MOL     C39    39  -0.1150000   12.0115
   40        CA    1  MOL     C40    40  -0.1150000   12.0115
   41        CA    1  MOL     C41    41  -0.1150000   12.0115
   42        HC    1  MOL     H42    42   0.0600000    1.0080
   43        HC    1  MOL     H43    43   0.0600000    1.0080
   44        HC    1  MOL     H44    44   0.0600000    1.0080
   45        HA    1  MOL     H45    45   0.1150000    1.0080
   46        HA    1  MOL     H46    46   0.1150000    1.0080
   47        HA    1  MOL     H47    47   0.1150000    1.0080
   48        HA    1  MOL     H48    48   0.1150000    1.0080
   49        HA    1  MOL     H49    49   0.1150000    1.0080
   50        CT    1  MOL     C50    50  -0.1200000   12.0115
   51        CT    1  MOL     C51    51   0.0550000   12.0115
   52        CA    1  MOL     C52    52  -0.1150000   12.0115
   53        CA    1  MOL     C53    53  -0.1150000   12.0115
   54        CA    1  MOL     C54    54  -0.1150000   12.0115
   55        CA    1  MOL     C55    55  -0.1150000   12.0115
   56        CA    1  MOL     C56    56  -0.1150000   12.0115
   57        CA    1  MOL     C57    57  -0.1150000   12.0115
   58        HC    1  MOL     H58    58   0.0600000    1.0080
   59        HC    1  MOL     H59    59   0.0600000    1.0080
   60        HC    1  MOL     H60    60   0.0600000    1.0080
   61        HA    1  MOL     H61    61   0.1150000    1.0080
   62        HA    1  MOL     H62    62   0.1150000    1.0080
   63        HA    1  MOL     H63    63   0.1150000    1.0080
   64        HA    1  MOL     H64    64   0.1150000    1.0080
   65        HA    1  MOL     H65    65   0.1150000    1.0080
   66        CT    1  MOL     C66    66  -0.1200000   12.0115
   67        CT    1  MOL     C67    67   0.0550000   12.0115
   68        CA    1  MOL     C68    68  -0.1150000   12.0115
   69        CA    1  MOL     C69    69  -0.1150000   12.0115
   70        CA    1  MOL     C70    70  -0.1150000   12.0115
   71        CA    1  MOL     C71    71  -0.1150000   12.0115
   72        CA    1  MOL     C72    72  -0.1150000   12.0115
   73        CA    1  MOL     C73    73  -0.1150000   12.0115
   74        HC    1  MOL     H74    74   0.0600000    1.0080
   75        HC    1  MOL     H75    75   0.0600000    1.0080
   76        HC    1  MOL     H76    76   0.0600000    1.0080
   77        HA    1  MOL     H77    77   0.1150000    1.0080
   78        HA    1  MOL     H78    78   0.1150000    1.0080
   79        HA    1  MOL     H79    79   0.1150000    1.0080
   80        HA    1  MOL     H80    80   0.1150000    1.0080
   81        HA    1  MOL     H81    81   0.1150000    1.0080
   82        CT    1  MOL     C82    82  -0.1200000   12.0115
   83        CT    1  MOL     C83    83   0.0550000   12.0115
   84        CA    1  MOL     C84    84  -0.1150000   12.0115
   85        CA    1  MOL     C85    85  -0.1150000   12.0115
   86        CA    1  MOL     C86    86  -0.1150000   12.0115
   87        CA    1  MOL     C87    87  -0.1150000   12.0115
   88        CA    1  MOL     C88    88  -0.1150000   12.0115
   89        CA    1  MOL     C89    89  -0.1150000   12.0115
   90        HC    1  MOL     H90    90   0.0600000    1.0080
   91        HC    1  MOL     H91    91   0.0600000    1.0080
   92        HC    1  MOL     H92    92   0.0600000    1.0080
   93        HA    1  MOL     H93    93   0.1150000    1.0080
   94        HA    1  MOL     H94    94   0.1150000    1.0080
   95        HA    1  MOL     H95    95   0.1150000    1.0080
   96        HA    1  MOL     H96    96   0.1150000    1.0080
   97        HA    1  MOL     H97    97   0.1150000    1.0080
   98        CT    1  MOL     C98    98  -0.1200000   12.0115
   99        CT    1  MOL     C99    99   0.0550000   12.0115
  100        CA    1  MOL    C100   100  -0.1150000   12.0115
  101        CA    1  MOL    C101   101  -0.1150000   12.0115
  102        CA    1  MOL    C102   102  -0.1150000   12.0115
  103        CA    1  MOL    C103   103  -0.1150000   12.0115
  104        CA    1  MOL    C104   104  -0.1150000   12.0115
  105        CA    1  MOL    C105   105  -0.1150000   12.0115
  106        HC    1  MOL    H106   106   0.0600000    1.0080
  107        HC    1  MOL    H107   107   0.0600000    1.0080
  108        HC    1  MOL    H108   108   0.0600000    1.0080
  109        HA    1  MOL    H109   109   0.1150000    1.0080
  110        HA    1  MOL    H110   110   0.1150000    1.0080
  111        HA    1  MOL    H111   111   0.1150000    1.0080
  112        HA    1  MOL    H112   112   0.1150000    1.0080
  113        HA    1  MOL    H113   113   0.1150000    1.0080
  114        CT    1  MOL    C114   114  -0.1200000   12.0115
  115        CT    1  MOL    C115   115   0.0550000   12.0115
  116        CA    1  MOL    C116   116  -0.1150000   12.0115
  117        CA    1  MOL    C117   117  -0.1150000   12.0115
  118        CA    1  MOL    C118   118  -0.1150000   12.0115
  119        CA    1  MOL    C119   119  -0.1150000   12.0115
  120        CA    1  MOL    C120   120  -0.1150000   12.0115
  121        CA    1  MOL    C121   121  -0.1150000   12.0115
  122        HC    1  MOL    H122   122   0.0600000    1.0080
  123        HC    1  MOL    H123   123   0.0600000    1.0080
  124        HC    1  MOL    H124   124   0.0600000    1.0080
  125        HA    1  MOL    H125   125   0.1150000    1.0080
  126        HA    1  MOL    H126   126   0.1150000    1.0080
  127        HA    1  MOL    H127   127   0.1150000    1.0080
  128        HA    1  MOL    H128   128   0.1150000    1.0080
  129        HA    1  MOL    H129   129   0.1150000    1.0080
  130        CT    1  MOL    C130   130  -0.1200000   12.0115
  131        CT    1  MOL    C131   131   0.0550000   12.0115
  132        CA    1  MOL    C132   132  -0.1150000   12.0115
  133        CA    1  MOL    C133   133  -0.1150000   12.0115
  134        CA    1  MOL    C134   134  -0.1150000   12.0115
  135        CA    1  MOL    C135   135  -0.1150000   12.0115
  136        CA    1  MOL    C136   136  -0.1150000   12.0115
  137        CA    1  MOL    C137   137  -0.1150000   12.0115
  138        HC    1  MOL    H138   138   0.0600000    1.0080
  139        HC    1  MOL    H139   139   0.0600000    1.0080
  140        HC    1  MOL    H140   140   0.0600000    1.0080
  141        HA    1  MOL    H141   141   0.1150000    1.0080
  142        HA    1  MOL    H142   142   0.1150000    1.0080
  143        HA    1  MOL    H143   143   0.1150000    1.0080
  144        HA    1  MOL    H144   144   0.1150000    1.0080
  145        HA    1  MOL    H145   145   0.1150000    1.0080
  146        CT    1  MOL    C146   146  -0.1200000   12.0115
  147        CT    1  MOL    C147   147   0.0550000   12.0115
  148        CA    1  MOL    C148   148  -0.1150000   12.0115
  149        CA    1  MOL    C149   149  -0.1150000   12.0115
  150        CA    1  MOL    C150   150  -0.1150000   12.0115
  151        CA    1  MOL    C151   151  -0.1150000   12.0115
  152        CA    1  MOL    C152   152  -0.1150000   12.0115
  153        CA    1  MOL    C153   153  -0.1150000   12.0115
  154        HC    1  MOL    H154   154   0.0600000    1.0080
  155        HC    1  MOL    H155   155   0.0600000    1.0080
  156        HC    1  MOL    H156   156   0.0600000    1.0080
  157        HA    1  MOL    H157   157   0.1150000    1.0080
  158        HA    1  MOL    H158   158   0.1150000    1.0080
  159        HA    1  MOL    H159   159   0.1150000    1.0080
  160        HA    1  MOL    H160   160   0.1150000    1.0080
  161        HA    1  MOL    H161   161   0.1150000    1.0080
  162        CT    1  MOL    C162   162  -0.1200000   12.0115
  163        CT    1  MOL    C163   163   0.0550000   12.0115
  164        CA    1  MOL    C164   164  -0.1150000   12.0115
  165        CA    1  MOL    C165   165  -0.1150000   12.0115
  166        CA    1  MOL    C166   166  -0.1150000   12.0115
  167        CA    1  MOL    C167   167  -0.1150000   12.0115
  168        CA    1  MOL    C168   168  -0.1150000   12.0115
  169        CA    1  MOL    C169   169  -0.1150000   12.0115
  170        HC    1  MOL    H170   170   0.0600000    1.0080
  171        HC    1  MOL    H171   171   0.0600000    1.0080
  172        HC    1  MOL    H172   172   0.0600000    1.0080
  173        HA    1  MOL    H173   173   0.1150000    1.0080
  174        HA    1  MOL    H174   174   0.1150000    1.0080
  175        HA    1  MOL    H175   175   0.1150000    1.0080
  176        HA    1  MOL    H176   176   0.1150000    1.0080
  177        HA    1  MOL    H177   177   0.1150000    1.0080
  178        CT    1  MOL    C178   178  -0.1200000   12.0115
  179        CT    1  MOL    C179   179   0.0550000   12.0115
  180        CA    1  MOL    C180   180  -0.1150000   12.0115
  181        CA    1  MOL    C181   181  -0.1150000   12.0115
  182        CA    1  MOL    C182   182  -0.1150000   12.0115
  183        CA    1  MOL    C183   183  -0.1150000   12.0115
  184        CA    1  MOL    C184   184  -0.1150000   12.0115
  185        CA    1  MOL    C185   185  -0.1150000   12.0115
  186        HC    1  MOL    H186   186   0.0600000    1.0080
  187        HC    1  MOL    H187   187   0.0600000    1.0080
  188        HC    1  MOL    H188   188   0.0600000    1.0080
  189        HA    1  MOL    H189   189   0.1150000    1.0080
  190        HA    1  MOL    H190   190   0.1150000    1.0080
  191        HA    1  MOL    H191   191   0.1150000    1.0080
  192        HA    1  MOL    H192   192   0.1150000    1.0080
  193        HA    1  MOL    H193   193   0.1150000    1.0080
  194        CT    1  MOL    C194   194  -0.1200000   12.0115
  195        CT    1  MOL    C195   195   0.0550000   12.0115
  196        CA    1  MOL    C196   196  -0.1150000   12.0115
  197        CA    1  MOL    C197   197  -0.1150000   12.0115
  198        CA    1  MOL    C198   198  -0.1150000   12.0115
  199        CA    1  MOL    C199   199  -0.1150000   12.0115
  200        CA    1  MOL    C200   200  -0.1150000   12.0115
  201        CA    1  MOL    C201   201  -0.1150000   12.0115
  202        HC    1  MOL    H202   202   0.0600000    1.0080
  203        HC    1  MOL    H203   203   0.0600000    1.0080
  204        HC    1  MOL    H204   204   0.0600000    1.0080
  205        HA    1  MOL    H205   205   0.1150000    1.0080
  206        HA    1  MOL    H206   206   0.1150000    1.0080
  207        HA    1  MOL    H207   207   0.1150000    1.0080
  208        HA    1  MOL    H208   208   0.1150000    1.0080
  209        HA    1  MOL    H209   209   0.1150000    1.0080
  210        CT    1  MOL    C210   210  -0.1200000   12.0115
  211        CT    1  MOL    C211   211   0.0550000   12.0115
  212        CA    1  MOL    C212   212  -0.1150000   12.0115
  213        CA    1  MOL    C213   213  -0.1150000   12.0115
  214        CA    1  MOL    C214   214  -0.1150000   12.0115
  215        CA    1  MOL    C215   215  -0.1150000   12.0115
  216        CA    1  MOL    C216   216  -0.1150000   12.0115
  217        CA    1  MOL    C217   217  -0.1150000   12.0115
  218        HC    1  MOL    H218   218   0.0600000    1.0080
  219        HC    1  MOL    H219   219   0.0600000    1.0080
  220        HC    1  MOL    H220   220   0.0600000    1.0080
  221        HA    1  MOL    H221   221   0.1150000    1.0080
  222        HA    1  MOL    H222   222   0.1150000    1.0080
  223        HA    1  MOL    H223   223   0.1150000    1.0080
  224        HA    1  MOL    H224   224   0.1150000    1.0080
  225        HA    1  MOL    H225   225   0.1150000    1.0080
  226        CT    1  MOL    C226   226  -0.1200000   12.0115
  227        CT    1  MOL    C227   227   0.0550000   12.0115
  228        CA    1  MOL    C228   228  -0.1150000   12.0115
  229        CA    1  MOL    C229   229  -0.1150000   12.0115
  230        CA    1  MOL    C230   230  -0.1150000   12.0115
  231        CA    1  MOL    C231   231  -0.1150000   12.0115
  232        CA    1  MOL    C232   232  -0.1150000   12.0115
  233        CA    1  MOL    C233   233  -0.1150000   12.0115
  234        HC    1  MOL    H234   234   0.0600000    1.0080
  235        HC    1  MOL    H235   235   0.0600000    1.0080
  236        HC    1  MOL    H236   236   0.0600000    1.0080
  237        HA    1  MOL    H237   237   0.1150000    1.0080
  238        HA    1  MOL    H238   238   0.1150000    1.0080
  239        HA    1  MOL    H239   239   0.1150000    1.0080
  240        HA    1  MOL    H240   240   0.1150000    1.0080
  241        HA    1  MOL    H241   241   0.1150000    1.0080
  242        CT    1  MOL    C242   242  -0.1200000   12.0115
  243        CT    1  MOL    C243   243   0.0550000   12.0115
  244        CA    1  MOL    C244   244  -0.1150000   12.0115
  245        CA    1  MOL    C245   245  -0.1150000   12.0115
  246        CA    1  MOL    C246   246  -0.1150000   12.0115
  247        CA    1  MOL    C247   247  -0.1150000   12.0115
  248        CA    1  MOL    C248   248  -0.1150000   12.0115
  249        CA    1  MOL    C249   249  -0.1150000   12.0115
  250        HC    1  MOL    H250   250   0.0600000    1.0080
  251        HC    1  MOL    H251   251   0.0600000    1.0080
  252        HC    1  MOL    H252   252   0.0600000    1.0080
  253        HA    1  MOL    H253   253   0.1150000    1.0080
  254        HA    1  MOL    H254   254   0.1150000    1.0080
  255        HA    1  MOL    H255   255   0.1150000    1.0080
  256        HA    1  MOL    H256   256   0.1150000    1.0080
  257        HA    1  MOL    H257   257   0.1150000    1.0080
  258        CT    1  MOL    C258   258  -0.1200000   12.0115
  259        CT    1  MOL    C259   259   0.0550000   12.0115
  260        CA    1  MOL    C260   260  -0.1150000   12.0115
  261        CA    1  MOL    C261   261  -0.1150000   12.0115
  262        CA    1  MOL    C262   262  -0.1150000   12.0115
  263        CA    1  MOL    C263   263  -0.1150000   12.0115
  264        CA    1  MOL    C264   264  -0.1150000   12.0115
  265        CA    1  MOL    C265   265  -0.1150000   12.0115
  266        HC    1  MOL    H266   266   0.0600000    1.0080
  267        HC    1  MOL    H267   267   0.0600000    1.0080
  268        HC    1  MOL    H268   268   0.0600000    1.0080
  269        HA    1  MOL    H269   269   0.1150000    1.0080
  270        HA    1  MOL    H270   270   0.1150000    1.0080
  271        HA    1  MOL    H271   271   0.1150000    1.0080
  272        HA    1  MOL    H272   272   0.1150000    1.0080
  273        HA    1  MOL    H273   273   0.1150000    1.0080
  274        CT    1  MOL    C274   274  -0.1200000   12.0115
  275        CT    1  MOL    C275   275   0.0550000   12.0115
  276        CA    1  MOL    C276   276  -0.1150000   12.0115
  277        CA    1  MOL    C277   277  -0.1150000   12.0115
  278        CA    1  MOL    C278   278  -0.1150000   12.0115
  279        CA    1  MOL    C279   279  -0.1150000   12.0115
  280        CA    1  MOL    C280   280  -0.1150000   12.0115
  281        CA    1  MOL    C281   281  -0.1150000   12.0115
  282        HC    1  MOL    H282   282   0.0600000    1.0080
  283        HC    1  MOL    H283   283   0.0600000    1.0080
  284        HC    1  MOL    H284   284   0.0600000    1.0080
  285        HA    1  MOL    H285   285   0.1150000    1.0080
  286        HA    1  MOL    H286   286   0.1150000    1.0080
  287        HA    1  MOL    H287   287   0.1150000    1.0080
  288        HA    1  MOL    H288   288   0.1150000    1.0080
  289        HA    1  MOL    H289   289   0.1150000    1.0080
  290        CT    1  MOL    C290   290  -0.1200000   12.0115
  291        CT    1  MOL    C291   291   0.0550000   12.0115
  292        CA    1  MOL    C292   292  -0.1150000   12.0115
  293        CA    1  MOL    C293   293  -0.1150000   12.0115
  294        CA    1  MOL    C294   294  -0.1150000   12.0115
  295        CA    1  MOL    C295   295  -0.1150000   12.0115
  296        CA    1  MOL    C296   296  -0.1150000   12.0115
  297        CA    1  MOL    C297   297  -0.1150000   12.0115
  298        HC    1  MOL    H298   298   0.0600000    1.0080
  299        HC    1  MOL    H299   299   0.0600000    1.0080
  300        HC    1  MOL    H300   300   0.0600000    1.0080
  301        HA    1  MOL    H301   301   0.1150000    1.0080
  302        HA    1  MOL    H302   302   0.1150000    1.0080
  303        HA    1  MOL    H303   303   0.1150000    1.0080
  304        HA    1  MOL    H304   304   0.1150000    1.0080
  305        HA    1  MOL    H305   305   0.1150000    1.0080
  306        CT    1  MOL    C306   306  -0.1200000   12.0115
  307        CT    1  MOL    C307   307  -0.0050000   12.0115
  308        CA    1  MOL    C308   308  -0.1150000   12.0115
  309        CA    1  MOL    C309   309  -0.1150000   12.0115
  310        CA    1  MOL    C310   310  -0.1150000   12.0115
  311        CA    1  MOL    C311   311  -0.1150000   12.0115
  312        CA    1  MOL    C312   312  -0.1150000   12.0115
  313        CA    1  MOL    C313   313  -0.1150000   12.0115
  314        HC    1  MOL    H314   314   0.0600000    1.0080
  315        HC    1  MOL    H315   315   0.0600000    1.0080
  316        HC    1  MOL    H316   316   0.0600000    1.0080
  317        HA    1  MOL    H317   317   0.1150000    1.0080
  318        HA    1  MOL    H318   318   0.1150000    1.0080
  319        HA    1  MOL    H319   319   0.1150000    1.0080
  320        HA    1  MOL    H320   320   0.1150000    1.0080
  321        HA    1  MOL    H321   321   0.1150000    1.0080
  322        HC    1  MOL    H322   322   0.0600000    1.0080

[ bonds ]
      1      2   1      0.1529 224262.4000
      1      9   1      0.1090 284512.0000
      1     10   1      0.1090 284512.0000
      1     17   1      0.1090 284512.0000
      2      3   1      0.1510 265265.6000
      2     11   1      0.1090 284512.0000
      2     18   1      0.1529 224262.4000
      3      4   1      0.1400 392459.2000
      3      8   1      0.1400 392459.2000
      4      5   1      0.1400 392459.2000
      4     12   1      0.1080 307105.6000
      5      6   1      0.1400 392459.2000
      5     13   1      0.1080 307105.6000
      6      7   1      0.1400 392459.2000
      6     14   1      0.1080 307105.6000
      7      8   1      0.1400 392459.2000
      7     15   1      0.1080 307105.6000
      8     16   1      0.1080 307105.6000
     18     19   1      0.1529 224262.4000
     18     26   1      0.1090 284512.0000
     18     27   1      0.1090 284512.0000
     19     20   1      0.1510 265265.6000
     19     28   1      0.1090 284512.0000
     19     34   1      0.1529 224262.4000
     20     21   1      0.1400 392459.2000
     20     25   1      0.1400 392459.2000
     21     22   1      0.1400 392459.2000
     21     29   1      0.1080 307105.6000
     22     23   1      0.1400 392459.2000
     22     30   1      0.1080 307105.6000
     23     24   1      0.1400 392459.2000
     23     31   1      0.1080 307105.6000
     24     25   1      0.1400 392459.2000
     24     32   1      0.1080 307105.6000
     25     33   1      0.1080 307105.6000
     34     35   1      0.1529 224262.4000
     34     42   1      0.1090 284512.0000
     34     43   1      0.1090 284512.0000
     35     36   1      0.1510 265265.6000
     35     44   1      0.1090 284512.0000
     35     50   1      0.1529 224262.4000
     36     37   1      0.1400 392459.2000
     36     41   1      0.1400 392459.2000
     37     38   1      0.1400 392459.2000
     37     45   1      0.1080 307105.6000
     38     39   1      0.1400 392459.2000
     38     46   1      0.1080 307105.6000
     39     40   1      0.1400 392459.2000
     39     47   1      0.1080 307105.6000
     40     41   1      0.1400 392459.2000
     40     48   1      0.1080 307105.6000
     41     49   1      0.1080 307105.6000
     50     51   1      0.1529 224262.4000
     50     58   1      0.1090 284512.0000
     50     59   1      0.1090 284512.0000
     51     52   1      0.1510 265265.6000
     51     60   1      0.1090 284512.0000
     51     66   1      0.1529 224262.4000
     52     53   1      0.1400 392459.2000
     52     57   1      0.1400 392459.2000
     53     54   1      0.1400 392459.2000
     53     61   1      0.1080 307105.6000
     54     55   1      0.1400 392459.2000
     54     62   1      0.1080 307105.6000
     55     56   1      0.1400 392459.2000
     55     63   1      0.1080 307105.6000
     56     57   1      0.1400 392459.2000
     56     64   1      0.1080 307105.6000
     57     65   1      0.1080 307105.6000
     66     67   1      0.1529 224262.4000
     66     74   1      0.1090 284512.0000
     66     75   1      0.1090 284512.0000
     67     68   1      0.1510 265265.6000
     67     76   1      0.1090 284512.0000
     67     82   1      0.1529 224262.4000
     68     69   1      0.1400 392459.2000
     68     73   1      0.1400 392459.2000
     69     70   1      0.1400 392459.2000
     69     77   1      0.1080 307105.6000
     70     71   1      0.1400 392459.2000
     70     78   1      0.1080 307105.6000
     71     72   1      0.1400 392459.2000
     71     79   1      0.1080 307105.6000
     72     73   1      0.1400 392459.2000
     72     80   1      0.1080 307105.6000
     73     81   1      0.1080 307105.6000
     82     83   1      0.1529 224262.4000
     82     90   1      0.1090 284512.0000
     82     91   1      0.1090 284512.0000
     83     84   1      0.1510 265265.6000
     83     92   1      0.1090 284512.0000
     83     98   1      0.1529 224262.4000
     84     85   1      0.1400 392459.2000
     84     89   1      0.1400 392459.2000
     85     86   1      0.1400 392459.2000
     85     93   1      0.1080 307105.6000
     86     87   1      0.1400 392459.2000
     86     94   1      0.1080 307105.6000
     87     88   1      0.1400 392459.2000
     87     95   1      0.1080 307105.6000
     88     89   1      0.1400 392459.2000
     88     96   1      0.1080 307105.6000
     89     97   1      0.1080 307105.6000
     98     99   1      0.1529 224262.4000
     98    106   1      0.1090 284512.0000
     98    107   1      0.1090 284512.0000
     99    100   1      0.1510 265265.6000
     99    108   1      0.1090 284512.0000
     99    114   1      0.1529 224262.4000
    100    101   1      0.1400 392459.2000
    100    105   1      0.1400 392459.2000
    101    102   1      0.1400 392459.2000
    101    109   1      0.1080 307105.6000
    102    103   1      0.1400 392459.2000
    102    110   1      0.1080 307105.6000
    103    104   1      0.1400 392459.2000
    103    111   1      0.1080 307105.6000
    104    105   1      0.1400 392459.2000
    104    112   1      0.1080 307105.6000
    105    113   1      0.1080 307105.6000
    114    115   1      0.1529 224262.4000
    114    122   1      0.1090 284512.0000
    114    123   1      0.1090 284512.0000
    115    116   1      0.1510 265265.6000
    115    124   1      0.1090 284512.0000
    115    130   1      0.1529 224262.4000
    116    117   1      0.1400 392459.2000
    116    121   1      0.1400 392459.2000
    117    118   1      0.1400 392459.2000
    117    125   1      0.1080 307105.6000
    118    119   1      0.1400 392459.2000
    118    126   1      0.1080 307105.6000
    119    120   1      0.1400 392459.2000
    119    127   1      0.1080 307105.6000
    120    121   1      0.1400 392459.2000
    120    128   1      0.1080 307105.6000
    121    129   1      0.1080 307105.6000
    130    131   1      0.1529 224262.4000
    130    138   1      0.1090 284512.0000
    130    139   1      0.1090 284512.0000
    131    132   1      0.1510 265265.6000
    131    140   1      0.1090 284512.0000
    131    146   1      0.1529 224262.4000
    132    133   1      0.1400 392459.2000
    132    137   1      0.1400 392459.2000
    133    134   1      0.1400 392459.2000
    133    141   1      0.1080 307105.6000
    134    135   1      0.1400 392459.2000
    134    142   1      0.1080 307105.6000
    135    136   1      0.1400 392459.2000
    135    143   1      0.1080 307105.6000
    136    137   1      0.1400 392459.2000
    136    144   1      0.1080 307105.6000
    137    145   1      0.1080 307105.6000
    146    147   1      0.1529 224262.4000
    146    154   1      0.1090 284512.0000
    146    155   1      0.1090 284512.0000
    147    148   1      0.1510 265265.6000
    147    156   1      0.1090 284512.0000
    147    162   1      0.1529 224262.4000
    148    149   1      0.1400 392459.2000
    148    153   1      0.1400 392459.2000
    149    150   1      0.1400 392459.2000
    149    157   1      0.1080 307105.6000
    150    151   1      0.1400 392459.2000
    150    158   1      0.1080 307105.6000
    151    152   1      0.1400 392459.2000
    151    159   1      0.1080 307105.6000
    152    153   1      0.1400 392459.2000
    152    160   1      0.1080 307105.6000
    153    161   1      0.1080 307105.6000
    162    163   1      0.1529 224262.4000
    162    170   1      0.1090 284512.0000
    162    171   1      0.1090 284512.0000
    163    164   1      0.1510 265265.6000
    163    172   1      0.1090 284512.0000
    163    178   1      0.1529 224262.4000
    164    165   1      0.1400 392459.2000
    164    169   1      0.1400 392459.2000
    165    166   1      0.1400 392459.2000
    165    173   1      0.1080 307105.6000
    166    167   1      0.1400 392459.2000
    166    174   1      0.1080 307105.6000
    167    168   1      0.1400 392459.2000
    167    175   1      0.1080 307105.6000
    168    169   1      0.1400 392459.2000
    168    176   1      0.1080 307105.6000
    169    177   1      0.1080 307105.6000
    178    179   1      0.1529 224262.4000
    178    186   1      0.1090 284512.0000
    178    187   1      0.1090 284512.0000
    179    180   1      0.1510 265265.6000
    179    188   1      0.1090 284512.0000
    179    194   1      0.1529 224262.4000
    180    181   1      0.1400 392459.2000
    180    185   1      0.1400 392459.2000
    181    182   1      0.1400 392459.2000
    181    189   1      0.1080 307105.6000
    182    183   1      0.1400 392459.2000
    182    190   1      0.1080 307105.6000
    183    184   1      0.1400 392459.2000
    183    191   1      0.1080 307105.6000
    184    185   1      0.1400 392459.2000
    184    192   1      0.1080 307105.6000
    185    193   1      0.1080 307105.6000
    194    195   1      0.1529 224262.4000
    194    202   1      0.1090 284512.0000
    194    203   1      0.1090 284512.0000
    195    196   1      0.1510 265265.6000
    195    204   1      0.1090 284512.0000
    195    210   1      0.1529 224262.4000
    196    197   1      0.1400 392459.2000
    196    201   1      0.1400 392459.2000
    197    198   1      0.1400 392459.2000
    197    205   1      0.1080 307105.6000
    198    199   1      0.1400 392459.2000
    198    206   1      0.1080 307105.6000
    199    200   1      0.1400 392459.2000
    199    207   1      0.1080 307105.6000
    200    201   1      0.1400 392459.2000
    200    208   1      0.1080 307105.6000
    201    209   1      0.1080 307105.6000
    210    211   1      0.1529 224262.4000
    210    218   1      0.1090 284512.0000
    210    219   1      0.1090 284512.0000
    211    212   1      0.1510 265265.6000
    211    220   1      0.1090 284512.0000
    211    226   1      0.1529 224262.4000
    212    213   1      0.1400 392459.2000
    212    217   1      0.1400 392459.2000
    213    214   1      0.1400 392459.2000
    213    221   1      0.1080 307105.6000
    214    215   1      0.1400 392459.2000
    214    222   1      0.1080 307105.6000
    215    216   1      0.1400 392459.2000
    215    223   1      0.1080 307105.6000
    216    217   1      0.1400 392459.2000
    216    224   1      0.1080 307105.6000
    217    225   1      0.1080 307105.6000
    226    227   1      0.1529 224262.4000
    226    234   1      0.1090 284512.0000
    226    235   1      0.1090 284512.0000
    227    228   1      0.1510 265265.6000
    227    236   1      0.1090 284512.0000
    227    242   1      0.1529 224262.4000
    228    229   1      0.1400 392459.2000
    228    233   1      0.1400 392459.2000
    229    230   1      0.1400 392459.2000
    229    237   1      0.1080 307105.6000
    230    231   1      0.1400 392459.2000
    230    238   1      0.1080 307105.6000
    231    232   1      0.1400 392459.2000
    231    239   1      0.1080 307105.6000
    232    233   1      0.1400 392459.2000
    232    240   1      0.1080 307105.6000
    233    241   1      0.1080 307105.6000
    242    243   1      0.1529 224262.4000
    242    250   1      0.1090 284512.0000
    242    251   1      0.1090 284512.0000
    243    244   1      0.1510 265265.6000
    243    252   1      0.1090 284512.0000
    243    258   1      0.1529 224262.4000
    244    245   1      0.1400 392459.2000
    244    249   1      0.1400 392459.2000
    245    246   1      0.1400 392459.2000
    245    253   1      0.1080 307105.6000
    246    247   1      0.1400 392459.2000
    246    254   1      0.1080 307105.6000
    247    248   1      0.1400 392459.2000
    247    255   1      0.1080 307105.6000
    248    249   1      0.1400 392459.2000
    248    256   1      0.1080 307105.6000
    249    257   1      0.1080 307105.6000
    258    259   1      0.1529 224262.4000
    258    266   1      0.1090 284512.0000
    258    267   1      0.1090 284512.0000
    259    260   1      0.1510 265265.6000
    259    268   1      0.1090 284512.0000
    259    274   1      0.1529 224262.4000
    260    261   1      0.1400 392459.2000
    260    265   1      0.1400 392459.2000
    261    262   1      0.1400 392459.2000
    261    269   1      0.1080 307105.6000
    262    263   1      0.1400 392459.2000
    262    270   1      0.1080 307105.6000
    263    264   1      0.1400 392459.2000
    263    271   1      0.1080 307105.6000
    264    265   1      0.1400 392459.2000
    264    272   1      0.1080 307105.6000
    265    273   1      0.1080 307105.6000
    274    275   1      0.1529 224262.4000
    274    282   1      0.1090 284512.0000
    274    283   1      0.1090 284512.0000
    275    276   1      0.1510 265265.6000
    275    284   1      0.1090 284512.0000
    275    290   1      0.1529 224262.4000
    276    277   1      0.1400 392459.2000
    276    281   1      0.1400 392459.2000
    277    278   1      0.1400 392459.2000
    277    285   1      0.1080 307105.6000
    278    279   1      0.1400 392459.2000
    278    286   1      0.1080 307105.6000
    279    280   1      0.1400 392459.2000
    279    287   1      0.1080 307105.6000
    280    281   1      0.1400 392459.2000
    280    288   1      0.1080 307105.6000
    281    289   1      0.1080 307105.6000
    290    291   1      0.1529 224262.4000
    290    298   1      0.1090 284512.0000
    290    299   1      0.1090 284512.0000
    291    292   1      0.1510 265265.6000
    291    300   1      0.1090 284512.0000
    291    306   1      0.1529 224262.4000
    292    293   1      0.1400 392459.2000
    292    297   1      0.1400 392459.2000
    293    294   1      0.1400 392459.2000
    293    301   1      0.1080 307105.6000
    294    295   1      0.1400 392459.2000
    294    302   1      0.1080 307105.6000
    295    296   1      0.1400 392459.2000
    295    303   1      0.1080 307105.6000
    296    297   1      0.1400 392459.2000
    296    304   1      0.1080 307105.6000
    297    305   1      0.1080 307105.6000
    306    307   1      0.1529 224262.4000
    306    314   1      0.1090 284512.0000
    306    315   1      0.1090 284512.0000
    307    308   1      0.1510 265265.6000
    307    316   1      0.1090 284512.0000
    307    322   1      0.1090 284512.0000
    308    309   1      0.1400 392459.2000
    308    313   1      0.1400 392459.2000
    309    310   1      0.1400 392459.2000
    309    317   1      0.1080 307105.6000
    310    311   1      0.1400 392459.2000
    310    318   1      0.1080 307105.6000
    311    312   1      0.1400 392459.2000
    311    319   1      0.1080 307105.6000
    312    313   1      0.1400 392459.2000
    312    320   1      0.1080 307105.6000
    313    321   1      0.1080 307105.6000

[ pairs ]
; ai   aj   funct   fudge_QQ  charge_i   charge_j   c6    c12
      9      3   2   0.50000     0.0600000   -0.1150000   2.680627e-04  1.873879e-07
      9     11   2   0.50000     0.0600000    0.0600000   6.128906e-05  1.496315e-08
      9     18   2   0.50000     0.0600000   -0.1200000   2.494471e-04  1.671101e-07
     10      3   2   0.50000     0.0600000   -0.1150000   2.680627e-04  1.873879e-07
     10     11   2   0.50000     0.0600000    0.0600000   6.128906e-05  1.496315e-08
     10     18   2   0.50000     0.0600000   -0.1200000   2.494471e-04  1.671101e-07
     17      3   2   0.50000     0.0600000   -0.1150000   2.680627e-04  1.873879e-07
     17     11   2   0.50000     0.0600000    0.0600000   6.128906e-05  1.496315e-08
     17     18   2   0.50000     0.0600000   -0.1200000   2.494471e-04  1.671101e-07
      1      4   2   0.50000    -0.1800000   -0.1150000   1.091018e-03  2.092768e-06
      1      8   2   0.50000    -0.1800000   -0.1150000   1.091018e-03  2.092768e-06
     11      4   2   0.50000     0.0600000   -0.1150000   2.680627e-04  1.873879e-07
     11      8   2   0.50000     0.0600000   -0.1150000   2.680627e-04  1.873879e-07
     18      4   2   0.50000    -0.1200000   -0.1150000   1.091018e-03  2.092768e-06
     18      8   2   0.50000    -0.1200000   -0.1150000   1.091018e-03  2.092768e-06
      1     19   2   0.50000    -0.1800000    0.0550000   1.015252e-03  1.866303e-06
      1     26   2   0.50000    -0.1800000    0.0600000   2.494471e-04  1.671101e-07
      1     27   2   0.50000    -0.1800000    0.0600000   2.494471e-04  1.671101e-07
      3     19   2   0.50000    -0.1150000    0.0550000   1.091018e-03  2.092768e-06
      3     26   2   0.50000    -0.1150000    0.0600000   2.680627e-04  1.873879e-07
      3     27   2   0.50000    -0.1150000    0.0600000   2.680627e-04  1.873879e-07
     11     19   2   0.50000     0.0600000    0.0550000   2.494471e-04  1.671101e-07
     11     26   2   0.50000     0.0600000    0.0600000   6.128906e-05  1.496315e-08
     11     27   2   0.50000     0.0600000    0.0600000   6.128906e-05  1.496315e-08
      2      5   2   0.50000     0.0550000   -0.1150000   1.091018e-03  2.092768e-06
      2     12   2   0.50000     0.0550000    0.1150000   2.262583e-04  1.374848e-07
      8      5   2   0.50000    -0.1150000   -0.1150000   1.172438e-03  2.346713e-06
      8     12   2   0.50000    -0.1150000    0.1150000   2.431434e-04  1.541678e-07
      2      7   2   0.50000     0.0550000   -0.1150000   1.091018e-03  2.092768e-06
      2     16   2   0.50000     0.0550000    0.1150000   2.262583e-04  1.374848e-07
      4      7   2   0.50000    -0.1150000   -0.1150000   1.172438e-03  2.346713e-06
      4     16   2   0.50000    -0.1150000    0.1150000   2.431434e-04  1.541678e-07
      3      6   2   0.50000    -0.1150000   -0.1150000   1.172438e-03  2.346713e-06
      3     13   2   0.50000    -0.1150000    0.1150000   2.431434e-04  1.541678e-07
     12      6   2   0.50000     0.1150000   -0.1150000   2.431434e-04  1.541678e-07
     12     13   2   0.50000     0.1150000    0.1150000   5.042375e-05  1.012808e-08
      4     14   2   0.50000    -0.1150000    0.1150000   2.431434e-04  1.541678e-07
     13      7   2   0.50000     0.1150000   -0.1150000   2.431434e-04  1.541678e-07
     13     14   2   0.50000     0.1150000    0.1150000   5.042375e-05  1.012808e-08
      5     15   2   0.50000    -0.1150000    0.1150000   2.431434e-04  1.541678e-07
     14      8   2   0.50000     0.1150000   -0.1150000   2.431434e-04  1.541678e-07
     14     15   2   0.50000     0.1150000    0.1150000   5.042375e-05  1.012808e-08
      6     16   2   0.50000    -0.1150000    0.1150000   2.431434e-04  1.541678e-07
     15      3   2   0.50000     0.1150000   -0.1150000   2.431434e-04  1.541678e-07
     15     16   2   0.50000     0.1150000    0.1150000   5.042375e-05  1.012808e-08
      2     20   2   0.50000     0.0550000   -0.1150000   1.091018e-03  2.092768e-06
      2     28   2   0.50000     0.0550000    0.0600000   2.494471e-04  1.671101e-07
      2     34   2   0.50000     0.0550000   -0.1200000   1.015252e-03  1.866303e-06
     26     20   2   0.50000     0.0600000   -0.1150000   2.680627e-04  1.873879e-07
     26     28   2   0.50000     0.0600000    0.0600000   6.128906e-05  1.496315e-08
     26     34   2   0.50000     0.0600000   -0.1200000   2.494471e-04  1.671101e-07
     27     20   2   0.50000     0.0600000   -0.1150000   2.680627e-04  1.873879e-07
     27     28   2   0.50000     0.0600000    0.0600000   6.128906e-05  1.496315e-08
     27     34   2   0.50000     0.0600000   -0.1200000   2.494471e-04  1.671101e-07
     18     21   2   0.50000    -0.1200000   -0.1150000   1.091018e-03  2.092768e-06
     18     25   2   0.50000    -0.1200000   -0.1150000   1.091018e-03  2.092768e-06
     28     21   2   0.50000     0.0600000   -0.1150000   2.680627e-04  1.873879e-07
     28     25   2   0.50000     0.0600000   -0.1150000   2.680627e-04  1.873879e-07
     34     21   2   0.50000    -0.1200000   -0.1150000   1.091018e-03  2.092768e-06
     34     25   2   0.50000    -0.1200000   -0.1150000   1.091018e-03  2.092768e-06
     18     35   2   0.50000    -0.1200000    0.0550000   1.015252e-03  1.866303e-06
     18     42   2   0.50000    -0.1200000    0.0600000   2.494471e-04  1.671101e-07
     18     43   2   0.50000    -0.1200000    0.0600000   2.494471e-04  1.671101e-07
     20     35   2   0.50000    -0.1150000    0.0550000   1.091018e-03  2.092768e-06
     20     42   2   0.50000    -0.1150000    0.0600000   2.680627e-04  1.873879e-07
     20     43   2   0.50000    -0.1150000    0.0600000   2.680627e-04  1.873879e-07
     28     35   2   0.50000     0.0600000    0.0550000   2.494471e-04  1.671101e-07
     28     42   2   0.50000     0.0600000    0.0600000   6.128906e-05  1.496315e-08
     28     43   2   0.50000     0.0600000    0.0600000   6.128906e-05  1.496315e-08
     19     22   2   0.50000     0.0550000   -0.1150000   1.091018e-03  2.092768e-06
     19     29   2   0.50000     0.0550000    0.1150000   2.262583e-04  1.374848e-07
     25     22   2   0.50000    -0.1150000   -0.1150000   1.172438e-03  2.346713e-06
     25     29   2   0.50000    -0.1150000    0.1150000   2.431434e-04  1.541678e-07
     19     24   2   0.50000     0.0550000   -0.1150000   1.091018e-03  2.092768e-06
     19     33   2   0.50000     0.0550000    0.1150000   2.262583e-04  1.374848e-07
     21     24   2   0.50000    -0.1150000   -0.1150000   1.172438e-03  2.346713e-06
     21     33   2   0.50000    -0.1150000    0.1150000   2.431434e-04  1.541678e-07
     20     23   2   0.50000    -0.1150000   -0.1150000   1.172438e-03  2.346713e-06
     20     30   2   0.50000    -0.1150000    0.1150000   2.431434e-04  1.541678e-07
     29     23   2   0.50000     0.1150000   -0.1150000   2.431434e-04  1.541678e-07
     29     30   2   0.50000     0.1150000    0.1150000   5.042375e-05  1.012808e-08
     21     31   2   0.50000    -0.1150000    0.1150000   2.431434e-04  1.541678e-07
     30     24   2   0.50000     0.1150000   -0.1150000   2.431434e-04  1.541678e-07
     30     31   2   0.50000     0.1150000    0.1150000   5.042375e-05  1.012808e-08
     22     32   2   0.50000    -0.1150000    0.1150000   2.431434e-04  1.541678e-07
     31     25   2   0.50000     0.1150000   -0.1150000   2.431434e-04  1.541678e-07
     31     32   2   0.50000     0.1150000    0.1150000   5.042375e-05  1.012808e-08
     23     33   2   0.50000    -0.1150000    0.1150000   2.431434e-04  1.541678e-07
     32     20   2   0.50000     0.1150000   -0.1150000   2.431434e-04  1.541678e-07
     32     33   2   0.50000     0.1150000    0.1150000   5.042375e-05  1.012808e-08
     19     36   2   0.50000     0.0550000   -0.1150000   1.091018e-03  2.092768e-06
     19     44   2   0.50000     0.0550000    0.0600000   2.494471e-04  1.671101e-07
     19     50   2   0.50000     0.0550000   -0.1200000   1.015252e-03  1.866303e-06
     42     36   2   0.50000     0.0600000   -0.1150000   2.680627e-04  1.873879e-07
     42     44   2   0.50000     0.0600000    0.0600000   6.128906e-05  1.496315e-08
     42     50   2   0.50000     0.0600000   -0.1200000   2.494471e-04  1.671101e-07
     43     36   2   0.50000     0.0600000   -0.1150000   2.680627e-04  1.873879e-07
     43     44   2   0.50000     0.0600000    0.0600000   6.128906e-05  1.496315e-08
     43     50   2   0.50000     0.0600000   -0.1200000   2.494471e-04  1.671101e-07
     34     37   2   0.50000    -0.1200000   -0.1150000   1.091018e-03  2.092768e-06
     34     41   2   0.50000    -0.1200000   -0.1150000   1.091018e-03  2.092768e-06
     44     37   2   0.50000     0.0600000   -0.1150000   2.680627e-04  1.873879e-07
     44     41   2   0.50000     0.0600000   -0.1150000   2.680627e-04  1.873879e-07
     50     37   2   0.50000    -0.1200000   -0.1150000   1.091018e-03  2.092768e-06
     50     41   2   0.50000    -0.1200000   -0.1150000   1.091018e-03  2.092768e-06
     34     51   2   0.50000    -0.1200000    0.0550000   1.015252e-03  1.866303e-06
     34     58   2   0.50000    -0.1200000    0.0600000   2.494471e-04  1.671101e-07
     34     59   2   0.50000    -0.1200000    0.0600000   2.494471e-04  1.671101e-07
     36     51   2   0.50000    -0.1150000    0.0550000   1.091018e-03  2.092768e-06
     36     58   2   0.50000    -0.1150000    0.0600000   2.680627e-04  1.873879e-07
     36     59   2   0.50000    -0.1150000    0.0600000   2.680627e-04  1.873879e-07
     44     51   2   0.50000     0.0600000    0.0550000   2.494471e-04  1.671101e-07
     44     58   2   0.50000     0.0600000    0.0600000   6.128906e-05  1.496315e-08
     44     59   2   0.50000     0.0600000    0.0600000   6.128906e-05  1.496315e-08
     35     38   2   0.50000     0.0550000   -0.1150000   1.091018e-03  2.092768e-06
     35     45   2   0.50000     0.0550000    0.1150000   2.262583e-04  1.374848e-07
     41     38   2   0.50000    -0.1150000   -0.1150000   1.172438e-03  2.346713e-06
     41     45   2   0.50000    -0.1150000    0.1150000   2.431434e-04  1.541678e-07
     35     40   2   0.50000     0.0550000   -0.1150000   1.091018e-03  2.092768e-06
     35     49   2   0.50000     0.0550000    0.1150000   2.262583e-04  1.374848e-07
     37     40   2   0.50000    -0.1150000   -0.1150000   1.172438e-03  2.346713e-06
     37     49   2   0.50000    -0.1150000    0.1150000   2.431434e-04  1.541678e-07
     36     39   2   0.50000    -0.1150000   -0.1150000   1.172438e-03  2.346713e-06
     36     46   2   0.50000    -0.1150000    0.1150000   2.431434e-04  1.541678e-07
     45     39   2   0.50000     0.1150000   -0.1150000   2.431434e-04  1.541678e-07
     45     46   2   0.50000     0.1150000    0.1150000   5.042375e-05  1.012808e-08
     37     47   2   0.50000    -0.1150000    0.1150000   2.431434e-04  1.541678e-07
     46     40   2   0.50000     0.1150000   -0.1150000   2.431434e-04  1.541678e-07
     46     47   2   0.50000     0.1150000    0.1150000   5.042375e-05  1.012808e-08
     38     48   2   0.50000    -0.1150000    0.1150000   2.431434e-04  1.541678e-07
     47     41   2   0.50000     0.1150000   -0.1150000   2.431434e-04  1.541678e-07
     47     48   2   0.50000     0.1150000    0.1150000   5.042375e-05  1.012808e-08
     39     49   2   0.50000    -0.1150000    0.1150000   2.431434e-04  1.541678e-07
     48     36   2   0.50000     0.1150000   -0.1150000   2.431434e-04  1.541678e-07
     48     49   2   0.50000     0.1150000    0.1150000   5.042375e-05  1.012808e-08
     35     52   2   0.50000     0.0550000   -0.1150000   1.091018e-03  2.092768e-06
     35     60   2   0.50000     0.0550000    0.0600000   2.494471e-04  1.671101e-07
     35     66   2   0.50000     0.0550000   -0.1200000   1.015252e-03  1.866303e-06
     58     52   2   0.50000     0.0600000   -0.1150000   2.680627e-04  1.873879e-07
     58     60   2   0.50000     0.0600000    0.0600000   6.128906e-05  1.496315e-08
     58     66   2   0.50000     0.0600000   -0.1200000   2.494471e-04  1.671101e-07
     59     52   2   0.50000     0.0600000   -0.1150000   2.680627e-04  1.873879e-07
     59     60   2   0.50000     0.0600000    0.0600000   6.128906e-05  1.496315e-08
     59     66   2   0.50000     0.0600000   -0.1200000   2.494471e-04  1.671101e-07
     50     53   2   0.50000    -0.1200000   -0.1150000   1.091018e-03  2.092768e-06
     50     57   2   0.50000    -0.1200000   -0.1150000   1.091018e-03  2.092768e-06
     60     53   2   0.50000     0.0600000   -0.1150000   2.680627e-04  1.873879e-07
     60     57   2   0.50000     0.0600000   -0.1150000   2.680627e-04  1.873879e-07
     66     53   2   0.50000    -0.1200000   -0.1150000   1.091018e-03  2.092768e-06
     66     57   2   0.50000    -0.1200000   -0.1150000   1.091018e-03  2.092768e-06
     50     67   2   0.50000    -0.1200000    0.0550000   1.015252e-03  1.866303e-06
     50     74   2   0.50000    -0.1200000    0.0600000   2.494471e-04  1.671101e-07
     50     75   2   0.50000    -0.1200000    0.0600000   2.494471e-04  1.671101e-07
     52     67   2   0.50000    -0.1150000    0.0550000   1.091018e-03  2.092768e-06
     52     74   2   0.50000    -0.1150000    0.0600000   2.680627e-04  1.873879e-07
     52     75   2   0.50000    -0.1150000    0.0600000   2.680627e-04  1.873879e-07
     60     67   2   0.50000     0.0600000    0.0550000   2.494471e-04  1.671101e-07
     60     74   2   0.50000     0.0600000    0.0600000   6.128906e-05  1.496315e-08
     60     75   2   0.50000     0.0600000    0.0600000   6.128906e-05  1.496315e-08
     51     54   2   0.50000     0.0550000   -0.1150000   1.091018e-03  2.092768e-06
     51     61   2   0.50000     0.0550000    0.1150000   2.262583e-04  1.374848e-07
     57     54   2   0.50000    -0.1150000   -0.1150000   1.172438e-03  2.346713e-06
     57     61   2   0.50000    -0.1150000    0.1150000   2.431434e-04  1.541678e-07
     51     56   2   0.50000     0.0550000   -0.1150000   1.091018e-03  2.092768e-06
     51     65   2   0.50000     0.0550000    0.1150000   2.262583e-04  1.374848e-07
     53     56   2   0.50000    -0.1150000   -0.1150000   1.172438e-03  2.346713e-06
     53     65   2   0.50000    -0.1150000    0.1150000   2.431434e-04  1.541678e-07
     52     55   2   0.50000    -0.1150000   -0.1150000   1.172438e-03  2.346713e-06
     52     62   2   0.50000    -0.1150000    0.1150000   2.431434e-04  1.541678e-07
     61     55   2   0.50000     0.1150000   -0.1150000   2.431434e-04  1.541678e-07
     61     62   2   0.50000     0.1150000    0.1150000   5.042375e-05  1.012808e-08
     53     63   2   0.50000    -0.1150000    0.1150000   2.431434e-04  1.541678e-07
     62     56   2   0.50000     0.1150000   -0.1150000   2.431434e-04  1.541678e-07
     62     63   2   0.50000     0.1150000    0.1150000   5.042375e-05  1.012808e-08
     54     64   2   0.50000    -0.1150000    0.1150000   2.431434e-04  1.541678e-07
     63     57   2   0.50000     0.1150000   -0.1150000   2.431434e-04  1.541678e-07
     63     64   2   0.50000     0.1150000    0.1150000   5.042375e-05  1.012808e-08
     55     65   2   0.50000    -0.1150000    0.1150000   2.431434e-04  1.541678e-07
     64     52   2   0.50000     0.1150000   -0.1150000   2.431434e-04  1.541678e-07
     64     65   2   0.50000     0.1150000    0.1150000   5.042375e-05  1.012808e-08
     51     68   2   0.50000     0.0550000   -0.1150000   1.091018e-03  2.092768e-06
     51     76   2   0.50000     0.0550000    0.0600000   2.494471e-04  1.671101e-07
     51     82   2   0.50000     0.0550000   -0.1200000   1.015252e-03  1.866303e-06
     74     68   2   0.50000     0.0600000   -0.1150000   2.680627e-04  1.873879e-07
     74     76   2   0.50000     0.0600000    0.0600000   6.128906e-05  1.496315e-08
     74     82   2   0.50000     0.0600000   -0.1200000   2.494471e-04  1.671101e-07
     75     68   2   0.50000     0.0600000   -0.1150000   2.680627e-04  1.873879e-07
     75     76   2   0.50000     0.0600000    0.0600000   6.128906e-05  1.496315e-08
     75     82   2   0.50000     0.0600000   -0.1200000   2.494471e-04  1.671101e-07
     66     69   2   0.50000    -0.1200000   -0.1150000   1.091018e-03  2.092768e-06
     66     73   2   0.50000    -0.1200000   -0.1150000   1.091018e-03  2.092768e-06
     76     69   2   0.50000     0.0600000   -0.1150000   2.680627e-04  1.873879e-07
     76     73   2   0.50000     0.0600000   -0.1150000   2.680627e-04  1.873879e-07
     82     69   2   0.50000    -0.1200000   -0.1150000   1.091018e-03  2.092768e-06
     82     73   2   0.50000    -0.1200000   -0.1150000   1.091018e-03  2.092768e-06
     66     83   2   0.50000    -0.1200000    0.0550000   1.015252e-03  1.866303e-06
     66     90   2   0.50000    -0.1200000    0.0600000   2.494471e-04  1.671101e-07
     66     91   2   0.50000    -0.1200000    0.0600000   2.494471e-04  1.671101e-07
     68     83   2   0.50000    -0.1150000    0.0550000   1.091018e-03  2.092768e-06
     68     90   2   0.50000    -0.1150000    0.0600000   2.680627e-04  1.873879e-07
     68     91   2   0.50000    -0.1150000    0.0600000   2.680627e-04  1.873879e-07
     76     83   2   0.50000     0.0600000    0.0550000   2.494471e-04  1.671101e-07
     76     90   2   0.50000     0.0600000    0.0600000   6.128906e-05  1.496315e-08
     76     91   2   0.50000     0.0600000    0.0600000   6.128906e-05  1.496315e-08
     67     70   2   0.50000     0.0550000   -0.1150000   1.091018e-03  2.092768e-06
     67     77   2   0.50000     0.0550000    0.1150000   2.262583e-04  1.374848e-07
     73     70   2   0.50000    -0.1150000   -0.1150000   1.172438e-03  2.346713e-06
     73     77   2   0.50000    -0.1150000    0.1150000   2.431434e-04  1.541678e-07
     67     72   2   0.50000     0.0550000   -0.1150000   1.091018e-03  2.092768e-06
     67     81   2   0.50000     0.0550000    0.1150000   2.262583e-04  1.374848e-07
     69     72   2   0.50000    -0.1150000   -0.1150000   1.172438e-03  2.346713e-06
     69     81   2   0.50000    -0.1150000    0.1150000   2.431434e-04  1.541678e-07
     68     71   2   0.50000    -0.1150000   -0.1150000   1.172438e-03  2.346713e-06
     68     78   2   0.50000    -0.1150000    0.1150000   2.431434e-04  1.541678e-07
     77     71   2   0.50000     0.1150000   -0.1150000   2.431434e-04  1.541678e-07
     77     78   2   0.50000     0.1150000    0.1150000   5.042375e-05  1.012808e-08
     69     79   2   0.50000    -0.1150000    0.1150000   2.431434e-04  1.541678e-07
     78     72   2   0.50000     0.1150000   -0.1150000   2.431434e-04  1.541678e-07
     78     79   2   0.50000     0.1150000    0.1150000   5.042375e-05  1.012808e-08
     70     80   2   0.50000    -0.1150000    0.1150000   2.431434e-04  1.541678e-07
     79     73   2   0.50000     0.1150000   -0.1150000   2.431434e-04  1.541678e-07
     79     80   2   0.50000     0.1150000    0.1150000   5.042375e-05  1.012808e-08
     71     81   2   0.50000    -0.1150000    0.1150000   2.431434e-04  1.541678e-07
     80     68   2   0.50000     0.1150000   -0.1150000   2.431434e-04  1.541678e-07
     80     81   2   0.50000     0.1150000    0.1150000   5.042375e-05  1.012808e-08
     67     84   2   0.50000     0.0550000   -0.1150000   1.091018e-03  2.092768e-06
     67     92   2   0.50000     0.0550000    0.0600000   2.494471e-04  1.671101e-07
     67     98   2   0.50000     0.0550000   -0.1200000   1.015252e-03  1.866303e-06
     90     84   2   0.50000     0.0600000   -0.1150000   2.680627e-04  1.873879e-07
     90     92   2   0.50000     0.0600000    0.0600000   6.128906e-05  1.496315e-08
     90     98   2   0.50000     0.0600000   -0.1200000   2.494471e-04  1.671101e-07
     91     84   2   0.50000     0.0600000   -0.1150000   2.680627e-04  1.873879e-07
     91     92   2   0.50000     0.0600000    0.0600000   6.128906e-05  1.496315e-08
     91     98   2   0.50000     0.0600000   -0.1200000   2.494471e-04  1.671101e-07
     82     85   2   0.50000    -0.1200000   -0.1150000   1.091018e-03  2.092768e-06
     82     89   2   0.50000    -0.1200000   -0.1150000   1.091018e-03  2.092768e-06
     92     85   2   0.50000     0.0600000   -0.1150000   2.680627e-04  1.873879e-07
     92     89   2   0.50000     0.0600000   -0.1150000   2.680627e-04  1.873879e-07
     98     85   2   0.50000    -0.1200000   -0.1150000   1.091018e-03  2.092768e-06
     98     89   2   0.50000    -0.1200000   -0.1150000   1.091018e-03  2.092768e-06
     82     99   2   0.50000    -0.1200000    0.0550000   1.015252e-03  1.866303e-06
     82    106   2   0.50000    -0.1200000    0.0600000   2.494471e-04  1.671101e-07
     82    107   2   0.50000    -0.1200000    0.0600000   2.494471e-04  1.671101e-07
     84     99   2   0.50000    -0.1150000    0.0550000   1.091018e-03  2.092768e-06
     84    106   2   0.50000    -0.1150000    0.0600000   2.680627e-04  1.873879e-07
     84    107   2   0.50000    -0.1150000    0.0600000   2.680627e-04  1.873879e-07
     92     99   2   0.50000     0.0600000    0.0550000   2.494471e-04  1.671101e-07
     92    106   2   0.50000     0.0600000    0.0600000   6.128906e-05  1.496315e-08
     92    107   2   0.50000     0.0600000    0.0600000   6.128906e-05  1.496315e-08
     83     86   2   0.50000     0.0550000   -0.1150000   1.091018e-03  2.092768e-06
     83     93   2   0.50000     0.0550000    0.1150000   2.262583e-04  1.374848e-07
     89     86   2   0.50000    -0.1150000   -0.1150000   1.172438e-03  2.346713e-06
     89     93   2   0.50000    -0.1150000    0.1150000   2.431434e-04  1.541678e-07
     83     88   2   0.50000     0.0550000   -0.1150000   1.091018e-03  2.092768e-06
     83     97   2   0.50000     0.0550000    0.1150000   2.262583e-04  1.374848e-07
     85     88   2   0.50000    -0.1150000   -0.1150000   1.172438e-03  2.346713e-06
     85     97   2   0.50000    -0.1150000    0.1150000   2.431434e-04  1.541678e-07
     84     87   2   0.50000    -0.1150000   -0.1150000   1.172438e-03  2.346713e-06
     84     94   2   0.50000    -0.1150000    0.1150000   2.431434e-04  1.541678e-07
     93     87   2   0.50000     0.1150000   -0.1150000   2.431434e-04  1.541678e-07
     93     94   2   0.50000     0.1150000    0.1150000   5.042375e-05  1.012808e-08
     85     95   2   0.50000    -0.1150000    0.1150000   2.431434e-04  1.541678e-07
     94     88   2   0.50000     0.1150000   -0.1150000   2.431434e-04  1.541678e-07
     94     95   2   0.50000     0.1150000    0.1150000   5.042375e-05  1.012808e-08
     86     96   2   0.50000    -0.1150000    0.1150000   2.431434e-04  1.541678e-07
     95     89   2   0.50000     0.1150000   -0.1150000   2.431434e-04  1.541678e-07
     95     96   2   0.50000     0.1150000    0.1150000   5.042375e-05  1.012808e-08
     87     97   2   0.50000    -0.1150000    0.1150000   2.431434e-04  1.541678e-07
     96     84   2   0.50000     0.1150000   -0.1150000   2.431434e-04  1.541678e-07
     96     97   2   0.50000     0.1150000    0.1150000   5.042375e-05  1.012808e-08
     83    100   2   0.50000     0.0550000   -0.1150000   1.091018e-03  2.092768e-06
     83    108   2   0.50000     0.0550000    0.0600000   2.494471e-04  1.671101e-07
     83    114   2   0.50000     0.0550000   -0.1200000   1.015252e-03  1.866303e-06
    106    100   2   0.50000     0.0600000   -0.1150000   2.680627e-04  1.873879e-07
    106    108   2   0.50000     0.0600000    0.0600000   6.128906e-05  1.496315e-08
    106    114   2   0.50000     0.0600000   -0.1200000   2.494471e-04  1.671101e-07
    107    100   2   0.50000     0.0600000   -0.1150000   2.680627e-04  1.873879e-07
    107    108   2   0.50000     0.0600000    0.0600000   6.128906e-05  1.496315e-08
    107    114   2   0.50000     0.0600000   -0.1200000   2.494471e-04  1.671101e-07
     98    101   2   0.50000    -0.1200000   -0.1150000   1.091018e-03  2.092768e-06
     98    105   2   0.50000    -0.1200000   -0.1150000   1.091018e-03  2.092768e-06
    108    101   2   0.50000     0.0600000   -0.1150000   2.680627e-04  1.873879e-07
    108    105   2   0.50000     0.0600000   -0.1150000   2.680627e-04  1.873879e-07
    114    101   2   0.50000    -0.1200000   -0.1150000   1.091018e-03  2.092768e-06
    114    105   2   0.50000    -0.1200000   -0.1150000   1.091018e-03  2.092768e-06
     98    115   2   0.50000    -0.1200000    0.0550000   1.015252e-03  1.866303e-06
     98    122   2   0.50000    -0.1200000    0.0600000   2.494471e-04  1.671101e-07
     98    123   2   0.50000    -0.1200000    0.0600000   2.494471e-04  1.671101e-07
    100    115   2   0.50000    -0.1150000    0.0550000   1.091018e-03  2.092768e-06
    100    122   2   0.50000    -0.1150000    0.0600000   2.680627e-04  1.873879e-07
    100    123   2   0.50000    -0.1150000    0.0600000   2.680627e-04  1.873879e-07
    108    115   2   0.50000     0.0600000    0.0550000   2.494471e-04  1.671101e-07
    108    122   2   0.50000     0.0600000    0.0600000   6.128906e-05  1.496315e-08
    108    123   2   0.50000     0.0600000    0.0600000   6.128906e-05  1.496315e-08
     99    102   2   0.50000     0.0550000   -0.1150000   1.091018e-03  2.092768e-06
     99    109   2   0.50000     0.0550000    0.1150000   2.262583e-04  1.374848e-07
    105    102   2   0.50000    -0.1150000   -0.1150000   1.172438e-03  2.346713e-06
    105    109   2   0.50000    -0.1150000    0.1150000   2.431434e-04  1.541678e-07
     99    104   2   0.50000     0.0550000   -0.1150000   1.091018e-03  2.092768e-06
     99    113   2   0.50000     0.0550000    0.1150000   2.262583e-04  1.374848e-07
    101    104   2   0.50000    -0.1150000   -0.1150000   1.172438e-03  2.346713e-06
    101    113   2   0.50000    -0.1150000    0.1150000   2.431434e-04  1.541678e-07
    100    103   2   0.50000    -0.1150000   -0.1150000   1.172438e-03  2.346713e-06
    100    110   2   0.50000    -0.1150000    0.1150000   2.431434e-04  1.541678e-07
    109    103   2   0.50000     0.1150000   -0.1150000   2.431434e-04  1.541678e-07
    109    110   2   0.50000     0.1150000    0.1150000   5.042375e-05  1.012808e-08
    101    111   2   0.50000    -0.1150000    0.1150000   2.431434e-04  1.541678e-07
    110    104   2   0.50000     0.1150000   -0.1150000   2.431434e-04  1.541678e-07
    110    111   2   0.50000     0.1150000    0.1150000   5.042375e-05  1.012808e-08
    102    112   2   0.50000    -0.1150000    0.1150000   2.431434e-04  1.541678e-07
    111    105   2   0.50000     0.1150000   -0.1150000   2.431434e-04  1.541678e-07
    111    112   2   0.50000     0.1150000    0.1150000   5.042375e-05  1.012808e-08
    103    113   2   0.50000    -0.1150000    0.1150000   2.431434e-04  1.541678e-07
    112    100   2   0.50000     0.1150000   -0.1150000   2.431434e-04  1.541678e-07
    112    113   2   0.50000     0.1150000    0.1150000   5.042375e-05  1.012808e-08
     99    116   2   0.50000     0.0550000   -0.1150000   1.091018e-03  2.092768e-06
     99    124   2   0.50000     0.0550000    0.0600000   2.494471e-04  1.671101e-07
     99    130   2   0.50000     0.0550000   -0.1200000   1.015252e-03  1.866303e-06
    122    116   2   0.50000     0.0600000   -0.1150000   2.680627e-04  1.873879e-07
    122    124   2   0.50000     0.0600000    0.0600000   6.128906e-05  1.496315e-08
    122    130   2   0.50000     0.0600000   -0.1200000   2.494471e-04  1.671101e-07
    123    116   2   0.50000     0.0600000   -0.1150000   2.680627e-04  1.873879e-07
    123    124   2   0.50000     0.0600000    0.0600000   6.128906e-05  1.496315e-08
    123    130   2   0.50000     0.0600000   -0.1200000   2.494471e-04  1.671101e-07
    114    117   2   0.50000    -0.1200000   -0.1150000   1.091018e-03  2.092768e-06
    114    121   2   0.50000    -0.1200000   -0.1150000   1.091018e-03  2.092768e-06
    124    117   2   0.50000     0.0600000   -0.1150000   2.680627e-04  1.873879e-07
    124    121   2   0.50000     0.0600000   -0.1150000   2.680627e-04  1.873879e-07
    130    117   2   0.50000    -0.1200000   -0.1150000   1.091018e-03  2.092768e-06
    130    121   2   0.50000    -0.1200000   -0.1150000   1.091018e-03  2.092768e-06
    114    131   2   0.50000    -0.1200000    0.0550000   1.015252e-03  1.866303e-06
    114    138   2   0.50000    -0.1200000    0.0600000   2.494471e-04  1.671101e-07
    114    139   2   0.50000    -0.1200000    0.0600000   2.494471e-04  1.671101e-07
    116    131   2   0.50000    -0.1150000    0.0550000   1.091018e-03  2.092768e-06
    116    138   2   0.50000    -0.1150000    0.0600000   2.680627e-04  1.873879e-07
    116    139   2   0.50000    -0.1150000    0.0600000   2.680627e-04  1.873879e-07
    124    131   2   0.50000     0.0600000    0.0550000   2.494471e-04  1.671101e-07
    124    138   2   0.50000     0.0600000    0.0600000   6.128906e-05  1.496315e-08
    124    139   2   0.50000     0.0600000    0.0600000   6.128906e-05  1.496315e-08
    115    118   2   0.50000     0.0550000   -0.1150000   1.091018e-03  2.092768e-06
    115    125   2   0.50000     0.0550000    0.1150000   2.262583e-04  1.374848e-07
    121    118   2   0.50000    -0.1150000   -0.1150000   1.172438e-03  2.346713e-06
    121    125   2   0.50000    -0.1150000    0.1150000   2.431434e-04  1.541678e-07
    115    120   2   0.50000     0.0550000   -0.1150000   1.091018e-03  2.092768e-06
    115    129   2   0.50000     0.0550000    0.1150000   2.262583e-04  1.374848e-07
    117    120   2   0.50000    -0.1150000   -0.1150000   1.172438e-03  2.346713e-06
    117    129   2   0.50000    -0.1150000    0.1150000   2.431434e-04  1.541678e-07
    116    119   2   0.50000    -0.1150000   -0.1150000   1.172438e-03  2.346713e-06
    116    126   2   0.50000    -0.1150000    0.1150000   2.431434e-04  1.541678e-07
    125    119   2   0.50000     0.1150000   -0.1150000   2.431434e-04  1.541678e-07
    125    126   2   0.50000     0.1150000    0.1150000   5.042375e-05  1.012808e-08
    117    127   2   0.50000    -0.1150000    0.1150000   2.431434e-04  1.541678e-07
    126    120   2   0.50000     0.1150000   -0.1150000   2.431434e-04  1.541678e-07
    126    127   2   0.50000     0.1150000    0.1150000   5.042375e-05  1.012808e-08
    118    128   2   0.50000    -0.1150000    0.1150000   2.431434e-04  1.541678e-07
    127    121   2   0.50000     0.1150000   -0.1150000   2.431434e-04  1.541678e-07
    127    128   2   0.50000     0.1150000    0.1150000   5.042375e-05  1.012808e-08
    119    129   2   0.50000    -0.1150000    0.1150000   2.431434e-04  1.541678e-07
    128    116   2   0.50000     0.1150000   -0.1150000   2.431434e-04  1.541678e-07
    128    129   2   0.50000     0.1150000    0.1150000   5.042375e-05  1.012808e-08
    115    132   2   0.50000     0.0550000   -0.1150000   1.091018e-03  2.092768e-06
    115    140   2   0.50000     0.0550000    0.0600000   2.494471e-04  1.671101e-07
    115    146   2   0.50000     0.0550000   -0.1200000   1.015252e-03  1.866303e-06
    138    132   2   0.50000     0.0600000   -0.1150000   2.680627e-04  1.873879e-07
    138    140   2   0.50000     0.0600000    0.0600000   6.128906e-05  1.496315e-08
    138    146   2   0.50000     0.0600000   -0.1200000   2.494471e-04  1.671101e-07
    139    132   2   0.50000     0.0600000   -0.1150000   2.680627e-04  1.873879e-07
    139    140   2   0.50000     0.0600000    0.0600000   6.128906e-05  1.496315e-08
    139    146   2   0.50000     0.0600000   -0.1200000   2.494471e-04  1.671101e-07
    130    133   2   0.50000    -0.1200000   -0.1150000   1.091018e-03  2.092768e-06
    130    137   2   0.50000    -0.1200000   -0.1150000   1.091018e-03  2.092768e-06
    140    133   2   0.50000     0.0600000   -0.1150000   2.680627e-04  1.873879e-07
    140    137   2   0.50000     0.0600000   -0.1150000   2.680627e-04  1.873879e-07
    146    133   2   0.50000    -0.1200000   -0.1150000   1.091018e-03  2.092768e-06
    146    137   2   0.50000    -0.1200000   -0.1150000   1.091018e-03  2.092768e-06
    130    147   2   0.50000    -0.1200000    0.0550000   1.015252e-03  1.866303e-06
    130    154   2   0.50000    -0.1200000    0.0600000   2.494471e-04  1.671101e-07
    130    155   2   0.50000    -0.1200000    0.0600000   2.494471e-04  1.671101e-07
    132    147   2   0.50000    -0.1150000    0.0550000   1.091018e-03  2.092768e-06
    132    154   2   0.50000    -0.1150000    0.0600000   2.680627e-04  1.873879e-07
    132    155   2   0.50000    -0.1150000    0.0600000   2.680627e-04  1.873879e-07
    140    147   2   0.50000     0.0600000    0.0550000   2.494471e-04  1.671101e-07
    140    154   2   0.50000     0.0600000    0.0600000   6.128906e-05  1.496315e-08
    140    155   2   0.50000     0.0600000    0.0600000   6.128906e-05  1.496315e-08
    131    134   2   0.50000     0.0550000   -0.1150000   1.091018e-03  2.092768e-06
    131    141   2   0.50000     0.0550000    0.1150000   2.262583e-04  1.374848e-07
    137    134   2   0.50000    -0.1150000   -0.1150000   1.172438e-03  2.346713e-06
    137    141   2   0.50000    -0.1150000    0.1150000   2.431434e-04  1.541678e-07
    131    136   2   0.50000     0.0550000   -0.1150000   1.091018e-03  2.092768e-06
    131    145   2   0.50000     0.0550000    0.1150000   2.262583e-04  1.374848e-07
    133    136   2   0.50000    -0.1150000   -0.1150000   1.172438e-03  2.346713e-06
    133    145   2   0.50000    -0.1150000    0.1150000   2.431434e-04  1.541678e-07
    132    135   2   0.50000    -0.1150000   -0.1150000   1.172438e-03  2.346713e-06
    132    142   2   0.50000    -0.1150000    0.1150000   2.431434e-04  1.541678e-07
    141    135   2   0.50000     0.1150000   -0.1150000   2.431434e-04  1.541678e-07
    141    142   2   0.50000     0.1150000    0.1150000   5.042375e-05  1.012808e-08
    133    143   2   0.50000    -0.1150000    0.1150000   2.431434e-04  1.541678e-07
    142    136   2   0.50000     0.1150000   -0.1150000   2.431434e-04  1.541678e-07
    142    143   2   0.50000     0.1150000    0.1150000   5.042375e-05  1.012808e-08
    134    144   2   0.50000    -0.1150000    0.1150000   2.431434e-04  1.541678e-07
    143    137   2   0.50000     0.1150000   -0.1150000   2.431434e-04  1.541678e-07
    143    144   2   0.50000     0.1150000    0.1150000   5.042375e-05  1.012808e-08
    135    145   2   0.50000    -0.1150000    0.1150000   2.431434e-04  1.541678e-07
    144    132   2   0.50000     0.1150000   -0.1150000   2.431434e-04  1.541678e-07
    144    145   2   0.50000     0.1150000    0.1150000   5.042375e-05  1.012808e-08
    131    148   2   0.50000     0.0550000   -0.1150000   1.091018e-03  2.092768e-06
    131    156   2   0.50000     0.0550000    0.0600000   2.494471e-04  1.671101e-07
    131    162   2   0.50000     0.0550000   -0.1200000   1.015252e-03  1.866303e-06
    154    148   2   0.50000     0.0600000   -0.1150000   2.680627e-04  1.873879e-07
    154    156   2   0.50000     0.0600000    0.0600000   6.128906e-05  1.496315e-08
    154    162   2   0.50000     0.0600000   -0.1200000   2.494471e-04  1.671101e-07
    155    148   2   0.50000     0.0600000   -0.1150000   2.680627e-04  1.873879e-07
    155    156   2   0.50000     0.0600000    0.0600000   6.128906e-05  1.496315e-08
    155    162   2   0.50000     0.0600000   -0.1200000   2.494471e-04  1.671101e-07
    146    149   2   0.50000    -0.1200000   -0.1150000   1.091018e-03  2.092768e-06
    146    153   2   0.50000    -0.1200000   -0.1150000   1.091018e-03  2.092768e-06
    156    149   2   0.50000     0.0600000   -0.1150000   2.680627e-04  1.873879e-07
    156    153   2   0.50000     0.0600000   -0.1150000   2.680627e-04  1.873879e-07
    162    149   2   0.50000    -0.1200000   -0.1150000   1.091018e-03  2.092768e-06
    162    153   2   0.50000    -0.1200000   -0.1150000   1.091018e-03  2.092768e-06
    146    163   2   0.50000    -0.1200000    0.0550000   1.015252e-03  1.866303e-06
    146    170   2   0.50000    -0.1200000    0.0600000   2.494471e-04  1.671101e-07
    146    171   2   0.50000    -0.1200000    0.0600000   2.494471e-04  1.671101e-07
    148    163   2   0.50000    -0.1150000    0.0550000   1.091018e-03  2.092768e-06
    148    170   2   0.50000    -0.1150000    0.0600000   2.680627e-04  1.873879e-07
    148    171   2   0.50000    -0.1150000    0.0600000   2.680627e-04  1.873879e-07
    156    163   2   0.50000     0.0600000    0.0550000   2.494471e-04  1.671101e-07
    156    170   2   0.50000     0.0600000    0.0600000   6.128906e-05  1.496315e-08
    156    171   2   0.50000     0.0600000    0.0600000   6.128906e-05  1.496315e-08
    147    150   2   0.50000     0.0550000   -0.1150000   1.091018e-03  2.092768e-06
    147    157   2   0.50000     0.0550000    0.1150000   2.262583e-04  1.374848e-07
    153    150   2   0.50000    -0.1150000   -0.1150000   1.172438e-03  2.346713e-06
    153    157   2   0.50000    -0.1150000    0.1150000   2.431434e-04  1.541678e-07
    147    152   2   0.50000     0.0550000   -0.1150000   1.091018e-03  2.092768e-06
    147    161   2   0.50000     0.0550000    0.1150000   2.262583e-04  1.374848e-07
    149    152   2   0.50000    -0.1150000   -0.1150000   1.172438e-03  2.346713e-06
    149    161   2   0.50000    -0.1150000    0.1150000   2.431434e-04  1.541678e-07
    148    151   2   0.50000    -0.1150000   -0.1150000   1.172438e-03  2.346713e-06
    148    158   2   0.50000    -0.1150000    0.1150000   2.431434e-04  1.541678e-07
    157    151   2   0.50000     0.1150000   -0.1150000   2.431434e-04  1.541678e-07
    157    158   2   0.50000     0.1150000    0.1150000   5.042375e-05  1.012808e-08
    149    159   2   0.50000    -0.1150000    0.1150000   2.431434e-04  1.541678e-07
    158    152   2   0.50000     0.1150000   -0.1150000   2.431434e-04  1.541678e-07
    158    159   2   0.50000     0.1150000    0.1150000   5.042375e-05  1.012808e-08
    150    160   2   0.50000    -0.1150000    0.1150000   2.431434e-04  1.541678e-07
    159    153   2   0.50000     0.1150000   -0.1150000   2.431434e-04  1.541678e-07
    159    160   2   0.50000     0.1150000    0.1150000   5.042375e-05  1.012808e-08
    151    161   2   0.50000    -0.1150000    0.1150000   2.431434e-04  1.541678e-07
    160    148   2   0.50000     0.1150000   -0.1150000   2.431434e-04  1.541678e-07
    160    161   2   0.50000     0.1150000    0.1150000   5.042375e-05  1.012808e-08
    147    164   2   0.50000     0.0550000   -0.1150000   1.091018e-03  2.092768e-06
    147    172   2   0.50000     0.0550000    0.0600000   2.494471e-04  1.671101e-07
    147    178   2   0.50000     0.0550000   -0.1200000   1.015252e-03  1.866303e-06
    170    164   2   0.50000     0.0600000   -0.1150000   2.680627e-04  1.873879e-07
    170    172   2   0.50000     0.0600000    0.0600000   6.128906e-05  1.496315e-08
    170    178   2   0.50000     0.0600000   -0.1200000   2.494471e-04  1.671101e-07
    171    164   2   0.50000     0.0600000   -0.1150000   2.680627e-04  1.873879e-07
    171    172   2   0.50000     0.0600000    0.0600000   6.128906e-05  1.496315e-08
    171    178   2   0.50000     0.0600000   -0.1200000   2.494471e-04  1.671101e-07
    162    165   2   0.50000    -0.1200000   -0.1150000   1.091018e-03  2.092768e-06
    162    169   2   0.50000    -0.1200000   -0.1150000   1.091018e-03  2.092768e-06
    172    165   2   0.50000     0.0600000   -0.1150000   2.680627e-04  1.873879e-07
    172    169   2   0.50000     0.0600000   -0.1150000   2.680627e-04  1.873879e-07
    178    165   2   0.50000    -0.1200000   -0.1150000   1.091018e-03  2.092768e-06
    178    169   2   0.50000    -0.1200000   -0.1150000   1.091018e-03  2.092768e-06
    162    179   2   0.50000    -0.1200000    0.0550000   1.015252e-03  1.866303e-06
    162    186   2   0.50000    -0.1200000    0.0600000   2.494471e-04  1.671101e-07
    162    187   2   0.50000    -0.1200000    0.0600000   2.494471e-04  1.671101e-07
    164    179   2   0.50000    -0.1150000    0.0550000   1.091018e-03  2.092768e-06
    164    186   2   0.50000    -0.1150000    0.0600000   2.680627e-04  1.873879e-07
    164    187   2   0.50000    -0.1150000    0.0600000   2.680627e-04  1.873879e-07
    172    179   2   0.50000     0.0600000    0.0550000   2.494471e-04  1.671101e-07
    172    186   2   0.50000     0.0600000    0.0600000   6.128906e-05  1.496315e-08
    172    187   2   0.50000     0.0600000    0.0600000   6.128906e-05  1.496315e-08
    163    166   2   0.50000     0.0550000   -0.1150000   1.091018e-03  2.092768e-06
    163    173   2   0.50000     0.0550000    0.1150000   2.262583e-04  1.374848e-07
    169    166   2   0.50000    -0.1150000   -0.1150000   1.172438e-03  2.346713e-06
    169    173   2   0.50000    -0.1150000    0.1150000   2.431434e-04  1.541678e-07
    163    168   2   0.50000     0.0550000   -0.1150000   1.091018e-03  2.092768e-06
    163    177   2   0.50000     0.0550000    0.1150000   2.262583e-04  1.374848e-07
    165    168   2   0.50000    -0.1150000   -0.1150000   1.172438e-03  2.346713e-06
    165    177   2   0.50000    -0.1150000    0.1150000   2.431434e-04  1.541678e-07
    164    167   2   0.50000    -0.1150000   -0.1150000   1.172438e-03  2.346713e-06
    164    174   2   0.50000    -0.1150000    0.1150000   2.431434e-04  1.541678e-07
    173    167   2   0.50000     0.1150000   -0.1150000   2.431434e-04  1.541678e-07
    173    174   2   0.50000     0.1150000    0.1150000   5.042375e-05  1.012808e-08
    165    175   2   0.50000    -0.1150000    0.1150000   2.431434e-04  1.541678e-07
    174    168   2   0.50000     0.1150000   -0.1150000   2.431434e-04  1.541678e-07
    174    175   2   0.50000     0.1150000    0.1150000   5.042375e-05  1.012808e-08
    166    176   2   0.50000    -0.1150000    0.1150000   2.431434e-04  1.541678e-07
    175    169   2   0.50000     0.1150000   -0.1150000   2.431434e-04  1.541678e-07
    175    176   2   0.50000     0.1150000    0.1150000   5.042375e-05  1.012808e-08
    167    177   2   0.50000    -0.1150000    0.1150000   2.431434e-04  1.541678e-07
    176    164   2   0.50000     0.1150000   -0.1150000   2.431434e-04  1.541678e-07
    176    177   2   0.50000     0.1150000    0.1150000   5.042375e-05  1.012808e-08
    163    180   2   0.50000     0.0550000   -0.1150000   1.091018e-03  2.092768e-06
    163    188   2   0.50000     0.0550000    0.0600000   2.494471e-04  1.671101e-07
    163    194   2   0.50000     0.0550000   -0.1200000   1.015252e-03  1.866303e-06
    186    180   2   0.50000     0.0600000   -0.1150000   2.680627e-04  1.873879e-07
    186    188   2   0.50000     0.0600000    0.0600000   6.128906e-05  1.496315e-08
    186    194   2   0.50000     0.0600000   -0.1200000   2.494471e-04  1.671101e-07
    187    180   2   0.50000     0.0600000   -0.1150000   2.680627e-04  1.873879e-07
    187    188   2   0.50000     0.0600000    0.0600000   6.128906e-05  1.496315e-08
    187    194   2   0.50000     0.0600000   -0.1200000   2.494471e-04  1.671101e-07
    178    181   2   0.50000    -0.1200000   -0.1150000   1.091018e-03  2.092768e-06
    178    185   2   0.50000    -0.1200000   -0.1150000   1.091018e-03  2.092768e-06
    188    181   2   0.50000     0.0600000   -0.1150000   2.680627e-04  1.873879e-07
    188    185   2   0.50000     0.0600000   -0.1150000   2.680627e-04  1.873879e-07
    194    181   2   0.50000    -0.1200000   -0.1150000   1.091018e-03  2.092768e-06
    194    185   2   0.50000    -0.1200000   -0.1150000   1.091018e-03  2.092768e-06
    178    195   2   0.50000    -0.1200000    0.0550000   1.015252e-03  1.866303e-06
    178    202   2   0.50000    -0.1200000    0.0600000   2.494471e-04  1.671101e-07
    178    203   2   0.50000    -0.1200000    0.0600000   2.494471e-04  1.671101e-07
    180    195   2   0.50000    -0.1150000    0.0550000   1.091018e-03  2.092768e-06
    180    202   2   0.50000    -0.1150000    0.0600000   2.680627e-04  1.873879e-07
    180    203   2   0.50000    -0.1150000    0.0600000   2.680627e-04  1.873879e-07
    188    195   2   0.50000     0.0600000    0.0550000   2.494471e-04  1.671101e-07
    188    202   2   0.50000     0.0600000    0.0600000   6.128906e-05  1.496315e-08
    188    203   2   0.50000     0.0600000    0.0600000   6.128906e-05  1.496315e-08
    179    182   2   0.50000     0.0550000   -0.1150000   1.091018e-03  2.092768e-06
    179    189   2   0.50000     0.0550000    0.1150000   2.262583e-04  1.374848e-07
    185    182   2   0.50000    -0.1150000   -0.1150000   1.172438e-03  2.346713e-06
    185    189   2   0.50000    -0.1150000    0.1150000   2.431434e-04  1.541678e-07
    179    184   2   0.50000     0.0550000   -0.1150000   1.091018e-03  2.092768e-06
    179    193   2   0.50000     0.0550000    0.1150000   2.262583e-04  1.374848e-07
    181    184   2   0.50000    -0.1150000   -0.1150000   1.172438e-03  2.346713e-06
    181    193   2   0.50000    -0.1150000    0.1150000   2.431434e-04  1.541678e-07
    180    183   2   0.50000    -0.1150000   -0.1150000   1.172438e-03  2.346713e-06
    180    190   2   0.50000    -0.1150000    0.1150000   2.431434e-04  1.541678e-07
    189    183   2   0.50000     0.1150000   -0.1150000   2.431434e-04  1.541678e-07
    189    190   2   0.50000     0.1150000    0.1150000   5.042375e-05  1.012808e-08
    181    191   2   0.50000    -0.1150000    0.1150000   2.431434e-04  1.541678e-07
    190    184   2   0.50000     0.1150000   -0.1150000   2.431434e-04  1.541678e-07
    190    191   2   0.50000     0.1150000    0.1150000   5.042375e-05  1.012808e-08
    182    192   2   0.50000    -0.1150000    0.1150000   2.431434e-04  1.541678e-07
    191    185   2   0.50000     0.1150000   -0.1150000   2.431434e-04  1.541678e-07
    191    192   2   0.50000     0.1150000    0.1150000   5.042375e-05  1.012808e-08
    183    193   2   0.50000    -0.1150000    0.1150000   2.431434e-04  1.541678e-07
    192    180   2   0.50000     0.1150000   -0.1150000   2.431434e-04  1.541678e-07
    192    193   2   0.50000     0.1150000    0.1150000   5.042375e-05  1.012808e-08
    179    196   2   0.50000     0.0550000   -0.1150000   1.091018e-03  2.092768e-06
    179    204   2   0.50000     0.0550000    0.0600000   2.494471e-04  1.671101e-07
    179    210   2   0.50000     0.0550000   -0.1200000   1.015252e-03  1.866303e-06
    202    196   2   0.50000     0.0600000   -0.1150000   2.680627e-04  1.873879e-07
    202    204   2   0.50000     0.0600000    0.0600000   6.128906e-05  1.496315e-08
    202    210   2   0.50000     0.0600000   -0.1200000   2.494471e-04  1.671101e-07
    203    196   2   0.50000     0.0600000   -0.1150000   2.680627e-04  1.873879e-07
    203    204   2   0.50000     0.0600000    0.0600000   6.128906e-05  1.496315e-08
    203    210   2   0.50000     0.0600000   -0.1200000   2.494471e-04  1.671101e-07
    194    197   2   0.50000    -0.1200000   -0.1150000   1.091018e-03  2.092768e-06
    194    201   2   0.50000    -0.1200000   -0.1150000   1.091018e-03  2.092768e-06
    204    197   2   0.50000     0.0600000   -0.1150000   2.680627e-04  1.873879e-07
    204    201   2   0.50000     0.0600000   -0.1150000   2.680627e-04  1.873879e-07
    210    197   2   0.50000    -0.1200000   -0.1150000   1.091018e-03  2.092768e-06
    210    201   2   0.50000    -0.1200000   -0.1150000   1.091018e-03  2.092768e-06
    194    211   2   0.50000    -0.1200000    0.0550000   1.015252e-03  1.866303e-06
    194    218   2   0.50000    -0.1200000    0.0600000   2.494471e-04  1.671101e-07
    194    219   2   0.50000    -0.1200000    0.0600000   2.494471e-04  1.671101e-07
    196    211   2   0.50000    -0.1150000    0.0550000   1.091018e-03  2.092768e-06
    196    218   2   0.50000    -0.1150000    0.0600000   2.680627e-04  1.873879e-07
    196    219   2   0.50000    -0.1150000    0.0600000   2.680627e-04  1.873879e-07
    204    211   2   0.50000     0.0600000    0.0550000   2.494471e-04  1.671101e-07
    204    218   2   0.50000     0.0600000    0.0600000   6.128906e-05  1.496315e-08
    204    219   2   0.50000     0.0600000    0.0600000   6.128906e-05  1.496315e-08
    195    198   2   0.50000     0.0550000   -0.1150000   1.091018e-03  2.092768e-06
    195    205   2   0.50000     0.0550000    0.1150000   2.262583e-04  1.374848e-07
    201    198   2   0.50000    -0.1150000   -0.1150000   1.172438e-03  2.346713e-06
    201    205   2   0.50000    -0.1150000    0.1150000   2.431434e-04  1.541678e-07
    195    200   2   0.50000     0.0550000   -0.1150000   1.091018e-03  2.092768e-06
    195    209   2   0.50000     0.0550000    0.1150000   2.262583e-04  1.374848e-07
    197    200   2   0.50000    -0.1150000   -0.1150000   1.172438e-03  2.346713e-06
    197    209   2   0.50000    -0.1150000    0.1150000   2.431434e-04  1.541678e-07
    196    199   2   0.50000    -0.1150000   -0.1150000   1.172438e-03  2.346713e-06
    196    206   2   0.50000    -0.1150000    0.1150000   2.431434e-04  1.541678e-07
    205    199   2   0.50000     0.1150000   -0.1150000   2.431434e-04  1.541678e-07
    205    206   2   0.50000     0.1150000    0.1150000   5.042375e-05  1.012808e-08
    197    207   2   0.50000    -0.1150000    0.1150000   2.431434e-04  1.541678e-07
    206    200   2   0.50000     0.1150000   -0.1150000   2.431434e-04  1.541678e-07
    206    207   2   0.50000     0.1150000    0.1150000   5.042375e-05  1.012808e-08
    198    208   2   0.50000    -0.1150000    0.1150000   2.431434e-04  1.541678e-07
    207    201   2   0.50000     0.1150000   -0.1150000   2.431434e-04  1.541678e-07
    207    208   2   0.50000     0.1150000    0.1150000   5.042375e-05  1.012808e-08
    199    209   2   0.50000    -0.1150000    0.1150000   2.431434e-04  1.541678e-07
    208    196   2   0.50000     0.1150000   -0.1150000   2.431434e-04  1.541678e-07
    208    209   2   0.50000     0.1150000    0.1150000   5.042375e-05  1.012808e-08
    195    212   2   0.50000     0.0550000   -0.1150000   1.091018e-03  2.092768e-06
    195    220   2   0.50000     0.0550000    0.0600000   2.494471e-04  1.671101e-07
    195    226   2   0.50000     0.0550000   -0.1200000   1.015252e-03  1.866303e-06
    218    212   2   0.50000     0.0600000   -0.1150000   2.680627e-04  1.873879e-07
    218    220   2   0.50000     0.0600000    0.0600000   6.128906e-05  1.496315e-08
    218    226   2   0.50000     0.0600000   -0.1200000   2.494471e-04  1.671101e-07
    219    212   2   0.50000     0.0600000   -0.1150000   2.680627e-04  1.873879e-07
    219    220   2   0.50000     0.0600000    0.0600000   6.128906e-05  1.496315e-08
    219    226   2   0.50000     0.0600000   -0.1200000   2.494471e-04  1.671101e-07
    210    213   2   0.50000    -0.1200000   -0.1150000   1.091018e-03  2.092768e-06
    210    217   2   0.50000    -0.1200000   -0.1150000   1.091018e-03  2.092768e-06
    220    213   2   0.50000     0.0600000   -0.1150000   2.680627e-04  1.873879e-07
    220    217   2   0.50000     0.0600000   -0.1150000   2.680627e-04  1.873879e-07
    226    213   2   0.50000    -0.1200000   -0.1150000   1.091018e-03  2.092768e-06
    226    217   2   0.50000    -0.1200000   -0.1150000   1.091018e-03  2.092768e-06
    210    227   2   0.50000    -0.1200000    0.0550000   1.015252e-03  1.866303e-06
    210    234   2   0.50000    -0.1200000    0.0600000   2.494471e-04  1.671101e-07
    210    235   2   0.50000    -0.1200000    0.0600000   2.494471e-04  1.671101e-07
    212    227   2   0.50000    -0.1150000    0.0550000   1.091018e-03  2.092768e-06
    212    234   2   0.50000    -0.1150000    0.0600000   2.680627e-04  1.873879e-07
    212    235   2   0.50000    -0.1150000    0.0600000   2.680627e-04  1.873879e-07
    220    227   2   0.50000     0.0600000    0.0550000   2.494471e-04  1.671101e-07
    220    234   2   0.50000     0.0600000    0.0600000   6.128906e-05  1.496315e-08
    220    235   2   0.50000     0.0600000    0.0600000   6.128906e-05  1.496315e-08
    211    214   2   0.50000     0.0550000   -0.1150000   1.091018e-03  2.092768e-06
    211    221   2   0.50000     0.0550000    0.1150000   2.262583e-04  1.374848e-07
    217    214   2   0.50000    -0.1150000   -0.1150000   1.172438e-03  2.346713e-06
    217    221   2   0.50000    -0.1150000    0.1150000   2.431434e-04  1.541678e-07
    211    216   2   0.50000     0.0550000   -0.1150000   1.091018e-03  2.092768e-06
    211    225   2   0.50000     0.0550000    0.1150000   2.262583e-04  1.374848e-07
    213    216   2   0.50000    -0.1150000   -0.1150000   1.172438e-03  2.346713e-06
    213    225   2   0.50000    -0.1150000    0.1150000   2.431434e-04  1.541678e-07
    212    215   2   0.50000    -0.1150000   -0.1150000   1.172438e-03  2.346713e-06
    212    222   2   0.50000    -0.1150000    0.1150000   2.431434e-04  1.541678e-07
    221    215   2   0.50000     0.1150000   -0.1150000   2.431434e-04  1.541678e-07
    221    222   2   0.50000     0.1150000    0.1150000   5.042375e-05  1.012808e-08
    213    223   2   0.50000    -0.1150000    0.1150000   2.431434e-04  1.541678e-07
    222    216   2   0.50000     0.1150000   -0.1150000   2.431434e-04  1.541678e-07
    222    223   2   0.50000     0.1150000    0.1150000   5.042375e-05  1.012808e-08
    214    224   2   0.50000    -0.1150000    0.1150000   2.431434e-04  1.541678e-07
    223    217   2   0.50000     0.1150000   -0.1150000   2.431434e-04  1.541678e-07
    223    224   2   0.50000     0.1150000    0.1150000   5.042375e-05  1.012808e-08
    215    225   2   0.50000    -0.1150000    0.1150000   2.431434e-04  1.541678e-07
    224    212   2   0.50000     0.1150000   -0.1150000   2.431434e-04  1.541678e-07
    224    225   2   0.50000     0.1150000    0.1150000   5.042375e-05  1.012808e-08
    211    228   2   0.50000     0.0550000   -0.1150000   1.091018e-03  2.092768e-06
    211    236   2   0.50000     0.0550000    0.0600000   2.494471e-04  1.671101e-07
    211    242   2   0.50000     0.0550000   -0.1200000   1.015252e-03  1.866303e-06
    234    228   2   0.50000     0.0600000   -0.1150000   2.680627e-04  1.873879e-07
    234    236   2   0.50000     0.0600000    0.0600000   6.128906e-05  1.496315e-08
    234    242   2   0.50000     0.0600000   -0.1200000   2.494471e-04  1.671101e-07
    235    228   2   0.50000     0.0600000   -0.1150000   2.680627e-04  1.873879e-07
    235    236   2   0.50000     0.0600000    0.0600000   6.128906e-05  1.496315e-08
    235    242   2   0.50000     0.0600000   -0.1200000   2.494471e-04  1.671101e-07
    226    229   2   0.50000    -0.1200000   -0.1150000   1.091018e-03  2.092768e-06
    226    233   2   0.50000    -0.1200000   -0.1150000   1.091018e-03  2.092768e-06
    236    229   2   0.50000     0.0600000   -0.1150000   2.680627e-04  1.873879e-07
    236    233   2   0.50000     0.0600000   -0.1150000   2.680627e-04  1.873879e-07
    242    229   2   0.50000    -0.1200000   -0.1150000   1.091018e-03  2.092768e-06
    242    233   2   0.50000    -0.1200000   -0.1150000   1.091018e-03  2.092768e-06
    226    243   2   0.50000    -0.1200000    0.0550000   1.015252e-03  1.866303e-06
    226    250   2   0.50000    -0.1200000    0.0600000   2.494471e-04  1.671101e-07
    226    251   2   0.50000    -0.1200000    0.0600000   2.494471e-04  1.671101e-07
    228    243   2   0.50000    -0.1150000    0.0550000   1.091018e-03  2.092768e-06
    228    250   2   0.50000    -0.1150000    0.0600000   2.680627e-04  1.873879e-07
    228    251   2   0.50000    -0.1150000    0.0600000   2.680627e-04  1.873879e-07
    236    243   2   0.50000     0.0600000    0.0550000   2.494471e-04  1.671101e-07
    236    250   2   0.50000     0.0600000    0.0600000   6.128906e-05  1.496315e-08
    236    251   2   0.50000     0.0600000    0.0600000   6.128906e-05  1.496315e-08
    227    230   2   0.50000     0.0550000   -0.1150000   1.091018e-03  2.092768e-06
    227    237   2   0.50000     0.0550000    0.1150000   2.262583e-04  1.374848e-07
    233    230   2   0.50000    -0.1150000   -0.1150000   1.172438e-03  2.346713e-06
    233    237   2   0.50000    -0.1150000    0.1150000   2.431434e-04  1.541678e-07
    227    232   2   0.50000     0.0550000   -0.1150000   1.091018e-03  2.092768e-06
    227    241   2   0.50000     0.0550000    0.1150000   2.262583e-04  1.374848e-07
    229    232   2   0.50000    -0.1150000   -0.1150000   1.172438e-03  2.346713e-06
    229    241   2   0.50000    -0.1150000    0.1150000   2.431434e-04  1.541678e-07
    228    231   2   0.50000    -0.1150000   -0.1150000   1.172438e-03  2.346713e-06
    228    238   2   0.50000    -0.1150000    0.1150000   2.431434e-04  1.541678e-07
    237    231   2   0.50000     0.1150000   -0.1150000   2.431434e-04  1.541678e-07
    237    238   2   0.50000     0.1150000    0.1150000   5.042375e-05  1.012808e-08
    229    239   2   0.50000    -0.1150000    0.1150000   2.431434e-04  1.541678e-07
    238    232   2   0.50000     0.1150000   -0.1150000   2.431434e-04  1.541678e-07
    238    239   2   0.50000     0.1150000    0.1150000   5.042375e-05  1.012808e-08
    230    240   2   0.50000    -0.1150000    0.1150000   2.431434e-04  1.541678e-07
    239    233   2   0.50000     0.1150000   -0.1150000   2.431434e-04  1.541678e-07
    239    240   2   0.50000     0.1150000    0.1150000   5.042375e-05  1.012808e-08
    231    241   2   0.50000    -0.1150000    0.1150000   2.431434e-04  1.541678e-07
    240    228   2   0.50000     0.1150000   -0.1150000   2.431434e-04  1.541678e-07
    240    241   2   0.50000     0.1150000    0.1150000   5.042375e-05  1.012808e-08
    227    244   2   0.50000     0.0550000   -0.1150000   1.091018e-03  2.092768e-06
    227    252   2   0.50000     0.0550000    0.0600000   2.494471e-04  1.671101e-07
    227    258   2   0.50000     0.0550000   -0.1200000   1.015252e-03  1.866303e-06
    250    244   2   0.50000     0.0600000   -0.1150000   2.680627e-04  1.873879e-07
    250    252   2   0.50000     0.0600000    0.0600000   6.128906e-05  1.496315e-08
    250    258   2   0.50000     0.0600000   -0.1200000   2.494471e-04  1.671101e-07
    251    244   2   0.50000     0.0600000   -0.1150000   2.680627e-04  1.873879e-07
    251    252   2   0.50000     0.0600000    0.0600000   6.128906e-05  1.496315e-08
    251    258   2   0.50000     0.0600000   -0.1200000   2.494471e-04  1.671101e-07
    242    245   2   0.50000    -0.1200000   -0.1150000   1.091018e-03  2.092768e-06
    242    249   2   0.50000    -0.1200000   -0.1150000   1.091018e-03  2.092768e-06
    252    245   2   0.50000     0.0600000   -0.1150000   2.680627e-04  1.873879e-07
    252    249   2   0.50000     0.0600000   -0.1150000   2.680627e-04  1.873879e-07
    258    245   2   0.50000    -0.1200000   -0.1150000   1.091018e-03  2.092768e-06
    258    249   2   0.50000    -0.1200000   -0.1150000   1.091018e-03  2.092768e-06
    242    259   2   0.50000    -0.1200000    0.0550000   1.015252e-03  1.866303e-06
    242    266   2   0.50000    -0.1200000    0.0600000   2.494471e-04  1.671101e-07
    242    267   2   0.50000    -0.1200000    0.0600000   2.494471e-04  1.671101e-07
    244    259   2   0.50000    -0.1150000    0.0550000   1.091018e-03  2.092768e-06
    244    266   2   0.50000    -0.1150000    0.0600000   2.680627e-04  1.873879e-07
    244    267   2   0.50000    -0.1150000    0.0600000   2.680627e-04  1.873879e-07
    252    259   2   0.50000     0.0600000    0.0550000   2.494471e-04  1.671101e-07
    252    266   2   0.50000     0.0600000    0.0600000   6.128906e-05  1.496315e-08
    252    267   2   0.50000     0.0600000    0.0600000   6.128906e-05  1.496315e-08
    243    246   2   0.50000     0.0550000   -0.1150000   1.091018e-03  2.092768e-06
    243    253   2   0.50000     0.0550000    0.1150000   2.262583e-04  1.374848e-07
    249    246   2   0.50000    -0.1150000   -0.1150000   1.172438e-03  2.346713e-06
    249    253   2   0.50000    -0.1150000    0.1150000   2.431434e-04  1.541678e-07
    243    248   2   0.50000     0.0550000   -0.1150000   1.091018e-03  2.092768e-06
    243    257   2   0.50000     0.0550000    0.1150000   2.262583e-04  1.374848e-07
    245    248   2   0.50000    -0.1150000   -0.1150000   1.172438e-03  2.346713e-06
    245    257   2   0.50000    -0.1150000    0.1150000   2.431434e-04  1.541678e-07
    244    247   2   0.50000    -0.1150000   -0.1150000   1.172438e-03  2.346713e-06
    244    254   2   0.50000    -0.1150000    0.1150000   2.431434e-04  1.541678e-07
    253    247   2   0.50000     0.1150000   -0.1150000   2.431434e-04  1.541678e-07
    253    254   2   0.50000     0.1150000    0.1150000   5.042375e-05  1.012808e-08
    245    255   2   0.50000    -0.1150000    0.1150000   2.431434e-04  1.541678e-07
    254    248   2   0.50000     0.1150000   -0.1150000   2.431434e-04  1.541678e-07
    254    255   2   0.50000     0.1150000    0.1150000   5.042375e-05  1.012808e-08
    246    256   2   0.50000    -0.1150000    0.1150000   2.431434e-04  1.541678e-07
    255    249   2   0.50000     0.1150000   -0.1150000   2.431434e-04  1.541678e-07
    255    256   2   0.50000     0.1150000    0.1150000   5.042375e-05  1.012808e-08
    247    257   2   0.50000    -0.1150000    0.1150000   2.431434e-04  1.541678e-07
    256    244   2   0.50000     0.1150000   -0.1150000   2.431434e-04  1.541678e-07
    256    257   2   0.50000     0.1150000    0.1150000   5.042375e-05  1.012808e-08
    243    260   2   0.50000     0.0550000   -0.1150000   1.091018e-03  2.092768e-06
    243    268   2   0.50000     0.0550000    0.0600000   2.494471e-04  1.671101e-07
    243    274   2   0.50000     0.0550000   -0.1200000   1.015252e-03  1.866303e-06
    266    260   2   0.50000     0.0600000   -0.1150000   2.680627e-04  1.873879e-07
    266    268   2   0.50000     0.0600000    0.0600000   6.128906e-05  1.496315e-08
    266    274   2   0.50000     0.0600000   -0.1200000   2.494471e-04  1.671101e-07
    267    260   2   0.50000     0.0600000   -0.1150000   2.680627e-04  1.873879e-07
    267    268   2   0.50000     0.0600000    0.0600000   6.128906e-05  1.496315e-08
    267    274   2   0.50000     0.0600000   -0.1200000   2.494471e-04  1.671101e-07
    258    261   2   0.50000    -0.1200000   -0.1150000   1.091018e-03  2.092768e-06
    258    265   2   0.50000    -0.1200000   -0.1150000   1.091018e-03  2.092768e-06
    268    261   2   0.50000     0.0600000   -0.1150000   2.680627e-04  1.873879e-07
    268    265   2   0.50000     0.0600000   -0.1150000   2.680627e-04  1.873879e-07
    274    261   2   0.50000    -0.1200000   -0.1150000   1.091018e-03  2.092768e-06
    274    265   2   0.50000    -0.1200000   -0.1150000   1.091018e-03  2.092768e-06
    258    275   2   0.50000    -0.1200000    0.0550000   1.015252e-03  1.866303e-06
    258    282   2   0.50000    -0.1200000    0.0600000   2.494471e-04  1.671101e-07
    258    283   2   0.50000    -0.1200000    0.0600000   2.494471e-04  1.671101e-07
    260    275   2   0.50000    -0.1150000    0.0550000   1.091018e-03  2.092768e-06
    260    282   2   0.50000    -0.1150000    0.0600000   2.680627e-04  1.873879e-07
    260    283   2   0.50000    -0.1150000    0.0600000   2.680627e-04  1.873879e-07
    268    275   2   0.50000     0.0600000    0.0550000   2.494471e-04  1.671101e-07
    268    282   2   0.50000     0.0600000    0.0600000   6.128906e-05  1.496315e-08
    268    283   2   0.50000     0.0600000    0.0600000   6.128906e-05  1.496315e-08
    259    262   2   0.50000     0.0550000   -0.1150000   1.091018e-03  2.092768e-06
    259    269   2   0.50000     0.0550000    0.1150000   2.262583e-04  1.374848e-07
    265    262   2   0.50000    -0.1150000   -0.1150000   1.172438e-03  2.346713e-06
    265    269   2   0.50000    -0.1150000    0.1150000   2.431434e-04  1.541678e-07
    259    264   2   0.50000     0.0550000   -0.1150000   1.091018e-03  2.092768e-06
    259    273   2   0.50000     0.0550000    0.1150000   2.262583e-04  1.374848e-07
    261    264   2   0.50000    -0.1150000   -0.1150000   1.172438e-03  2.346713e-06
    261    273   2   0.50000    -0.1150000    0.1150000   2.431434e-04  1.541678e-07
    260    263   2   0.50000    -0.1150000   -0.1150000   1.172438e-03  2.346713e-06
    260    270   2   0.50000    -0.1150000    0.1150000   2.431434e-04  1.541678e-07
    269    263   2   0.50000     0.1150000   -0.1150000   2.431434e-04  1.541678e-07
    269    270   2   0.50000     0.1150000    0.1150000   5.042375e-05  1.012808e-08
    261    271   2   0.50000    -0.1150000    0.1150000   2.431434e-04  1.541678e-07
    270    264   2   0.50000     0.1150000   -0.1150000   2.431434e-04  1.541678e-07
    270    271   2   0.50000     0.1150000    0.1150000   5.042375e-05  1.012808e-08
    262    272   2   0.50000    -0.1150000    0.1150000   2.431434e-04  1.541678e-07
    271    265   2   0.50000     0.1150000   -0.1150000   2.431434e-04  1.541678e-07
    271    272   2   0.50000     0.1150000    0.1150000   5.042375e-05  1.012808e-08
    263    273   2   0.50000    -0.1150000    0.1150000   2.431434e-04  1.541678e-07
    272    260   2   0.50000     0.1150000   -0.1150000   2.431434e-04  1.541678e-07
    272    273   2   0.50000     0.1150000    0.1150000   5.042375e-05  1.012808e-08
    259    276   2   0.50000     0.0550000   -0.1150000   1.091018e-03  2.092768e-06
    259    284   2   0.50000     0.0550000    0.0600000   2.494471e-04  1.671101e-07
    259    290   2   0.50000     0.0550000   -0.1200000   1.015252e-03  1.866303e-06
    282    276   2   0.50000     0.0600000   -0.1150000   2.680627e-04  1.873879e-07
    282    284   2   0.50000     0.0600000    0.0600000   6.128906e-05  1.496315e-08
    282    290   2   0.50000     0.0600000   -0.1200000   2.494471e-04  1.671101e-07
    283    276   2   0.50000     0.0600000   -0.1150000   2.680627e-04  1.873879e-07
    283    284   2   0.50000     0.0600000    0.0600000   6.128906e-05  1.496315e-08
    283    290   2   0.50000     0.0600000   -0.1200000   2.494471e-04  1.671101e-07
    274    277   2   0.50000    -0.1200000   -0.1150000   1.091018e-03  2.092768e-06
    274    281   2   0.50000    -0.1200000   -0.1150000   1.091018e-03  2.092768e-06
    284    277   2   0.50000     0.0600000   -0.1150000   2.680627e-04  1.873879e-07
    284    281   2   0.50000     0.0600000   -0.1150000   2.680627e-04  1.873879e-07
    290    277   2   0.50000    -0.1200000   -0.1150000   1.091018e-03  2.092768e-06
    290    281   2   0.50000    -0.1200000   -0.1150000   1.091018e-03  2.092768e-06
    274    291   2   0.50000    -0.1200000    0.0550000   1.015252e-03  1.866303e-06
    274    298   2   0.50000    -0.1200000    0.0600000   2.494471e-04  1.671101e-07
    274    299   2   0.50000    -0.1200000    0.0600000   2.494471e-04  1.671101e-07
    276    291   2   0.50000    -0.1150000    0.0550000   1.091018e-03  2.092768e-06
    276    298   2   0.50000    -0.1150000    0.0600000   2.680627e-04  1.873879e-07
    276    299   2   0.50000    -0.1150000    0.0600000   2.680627e-04  1.873879e-07
    284    291   2   0.50000     0.0600000    0.0550000   2.494471e-04  1.671101e-07
    284    298   2   0.50000     0.0600000    0.0600000   6.128906e-05  1.496315e-08
    284    299   2   0.50000     0.0600000    0.0600000   6.128906e-05  1.496315e-08
    275    278   2   0.50000     0.0550000   -0.1150000   1.091018e-03  2.092768e-06
    275    285   2   0.50000     0.0550000    0.1150000   2.262583e-04  1.374848e-07
    281    278   2   0.50000    -0.1150000   -0.1150000   1.172438e-03  2.346713e-06
    281    285   2   0.50000    -0.1150000    0.1150000   2.431434e-04  1.541678e-07
    275    280   2   0.50000     0.0550000   -0.1150000   1.091018e-03  2.092768e-06
    275    289   2   0.50000     0.0550000    0.1150000   2.262583e-04  1.374848e-07
    277    280   2   0.50000    -0.1150000   -0.1150000   1.172438e-03  2.346713e-06
    277    289   2   0.50000    -0.1150000    0.1150000   2.431434e-04  1.541678e-07
    276    279   2   0.50000    -0.1150000   -0.1150000   1.172438e-03  2.346713e-06
    276    286   2   0.50000    -0.1150000    0.1150000   2.431434e-04  1.541678e-07
    285    279   2   0.50000     0.1150000   -0.1150000   2.431434e-04  1.541678e-07
    285    286   2   0.50000     0.1150000    0.1150000   5.042375e-05  1.012808e-08
    277    287   2   0.50000    -0.1150000    0.1150000   2.431434e-04  1.541678e-07
    286    280   2   0.50000     0.1150000   -0.1150000   2.431434e-04  1.541678e-07
    286    287   2   0.50000     0.1150000    0.1150000   5.042375e-05  1.012808e-08
    278    288   2   0.50000    -0.1150000    0.1150000   2.431434e-04  1.541678e-07
    287    281   2   0.50000     0.1150000   -0.1150000   2.431434e-04  1.541678e-07
    287    288   2   0.50000     0.1150000    0.1150000   5.042375e-05  1.012808e-08
    279    289   2   0.50000    -0.1150000    0.1150000   2.431434e-04  1.541678e-07
    288    276   2   0.50000     0.1150000   -0.1150000   2.431434e-04  1.541678e-07
    288    289   2   0.50000     0.1150000    0.1150000   5.042375e-05  1.012808e-08
    275    292   2   0.50000     0.0550000   -0.1150000   1.091018e-03  2.092768e-06
    275    300   2   0.50000     0.0550000    0.0600000   2.494471e-04  1.671101e-07
    275    306   2   0.50000     0.0550000   -0.1200000   1.015252e-03  1.866303e-06
    298    292   2   0.50000     0.0600000   -0.1150000   2.680627e-04  1.873879e-07
    298    300   2   0.50000     0.0600000    0.0600000   6.128906e-05  1.496315e-08
    298    306   2   0.50000     0.0600000   -0.1200000   2.494471e-04  1.671101e-07
    299    292   2   0.50000     0.0600000   -0.1150000   2.680627e-04  1.873879e-07
    299    300   2   0.50000     0.0600000    0.0600000   6.128906e-05  1.496315e-08
    299    306   2   0.50000     0.0600000   -0.1200000   2.494471e-04  1.671101e-07
    290    293   2   0.50000    -0.1200000   -0.1150000   1.091018e-03  2.092768e-06
    290    297   2   0.50000    -0.1200000   -0.1150000   1.091018e-03  2.092768e-06
    300    293   2   0.50000     0.0600000   -0.1150000   2.680627e-04  1.873879e-07
    300    297   2   0.50000     0.0600000   -0.1150000   2.680627e-04  1.873879e-07
    306    293   2   0.50000    -0.1200000   -0.1150000   1.091018e-03  2.092768e-06
    306    297   2   0.50000    -0.1200000   -0.1150000   1.091018e-03  2.092768e-06
    290    307   2   0.50000    -0.1200000   -0.0050000   1.015252e-03  1.866303e-06
    290    314   2   0.50000    -0.1200000    0.0600000   2.494471e-04  1.671101e-07
    290    315   2   0.50000    -0.1200000    0.0600000   2.494471e-04  1.671101e-07
    292    307   2   0.50000    -0.1150000   -0.0050000   1.091018e-03  2.092768e-06
    292    314   2   0.50000    -0.1150000    0.0600000   2.680627e-04  1.873879e-07
    292    315   2   0.50000    -0.1150000    0.0600000   2.680627e-04  1.873879e-07
    300    307   2   0.50000     0.0600000   -0.0050000   2.494471e-04  1.671101e-07
    300    314   2   0.50000     0.0600000    0.0600000   6.128906e-05  1.496315e-08
    300    315   2   0.50000     0.0600000    0.0600000   6.128906e-05  1.496315e-08
    291    294   2   0.50000     0.0550000   -0.1150000   1.091018e-03  2.092768e-06
    291    301   2   0.50000     0.0550000    0.1150000   2.262583e-04  1.374848e-07
    297    294   2   0.50000    -0.1150000   -0.1150000   1.172438e-03  2.346713e-06
    297    301   2   0.50000    -0.1150000    0.1150000   2.431434e-04  1.541678e-07
    291    296   2   0.50000     0.0550000   -0.1150000   1.091018e-03  2.092768e-06
    291    305   2   0.50000     0.0550000    0.1150000   2.262583e-04  1.374848e-07
    293    296   2   0.50000    -0.1150000   -0.1150000   1.172438e-03  2.346713e-06
    293    305   2   0.50000    -0.1150000    0.1150000   2.431434e-04  1.541678e-07
    292    295   2   0.50000    -0.1150000   -0.1150000   1.172438e-03  2.346713e-06
    292    302   2   0.50000    -0.1150000    0.1150000   2.431434e-04  1.541678e-07
    301    295   2   0.50000     0.1150000   -0.1150000   2.431434e-04  1.541678e-07
    301    302   2   0.50000     0.1150000    0.1150000   5.042375e-05  1.012808e-08
    293    303   2   0.50000    -0.1150000    0.1150000   2.431434e-04  1.541678e-07
    302    296   2   0.50000     0.1150000   -0.1150000   2.431434e-04  1.541678e-07
    302    303   2   0.50000     0.1150000    0.1150000   5.042375e-05  1.012808e-08
    294    304   2   0.50000    -0.1150000    0.1150000   2.431434e-04  1.541678e-07
    303    297   2   0.50000     0.1150000   -0.1150000   2.431434e-04  1.541678e-07
    303    304   2   0.50000     0.1150000    0.1150000   5.042375e-05  1.012808e-08
    295    305   2   0.50000    -0.1150000    0.1150000   2.431434e-04  1.541678e-07
    304    292   2   0.50000     0.1150000   -0.1150000   2.431434e-04  1.541678e-07
    304    305   2   0.50000     0.1150000    0.1150000   5.042375e-05  1.012808e-08
    291    308   2   0.50000     0.0550000   -0.1150000   1.091018e-03  2.092768e-06
    291    316   2   0.50000     0.0550000    0.0600000   2.494471e-04  1.671101e-07
    291    322   2   0.50000     0.0550000    0.0600000   2.494471e-04  1.671101e-07
    314    308   2   0.50000     0.0600000   -0.1150000   2.680627e-04  1.873879e-07
    314    316   2   0.50000     0.0600000    0.0600000   6.128906e-05  1.496315e-08
    314    322   2   0.50000     0.0600000    0.0600000   6.128906e-05  1.496315e-08
    315    308   2   0.50000     0.0600000   -0.1150000   2.680627e-04  1.873879e-07
    315    316   2   0.50000     0.0600000    0.0600000   6.128906e-05  1.496315e-08
    315    322   2   0.50000     0.0600000    0.0600000   6.128906e-05  1.496315e-08
    306    309   2   0.50000    -0.1200000   -0.1150000   1.091018e-03  2.092768e-06
    306    313   2   0.50000    -0.1200000   -0.1150000   1.091018e-03  2.092768e-06
    316    309   2   0.50000     0.0600000   -0.1150000   2.680627e-04  1.873879e-07
    316    313   2   0.50000     0.0600000   -0.1150000   2.680627e-04  1.873879e-07
    322    309   2   0.50000     0.0600000   -0.1150000   2.680627e-04  1.873879e-07
    322    313   2   0.50000     0.0600000   -0.1150000   2.680627e-04  1.873879e-07
    307    310   2   0.50000    -0.0050000   -0.1150000   1.091018e-03  2.092768e-06
    307    317   2   0.50000    -0.0050000    0.1150000   2.262583e-04  1.374848e-07
    313    310   2   0.50000    -0.1150000   -0.1150000   1.172438e-03  2.346713e-06
    313    317   2   0.50000    -0.1150000    0.1150000   2.431434e-04  1.541678e-07
    307    312   2   0.50000    -0.0050000   -0.1150000   1.091018e-03  2.092768e-06
    307    321   2   0.50000    -0.0050000    0.1150000   2.262583e-04  1.374848e-07
    309    312   2   0.50000    -0.1150000   -0.1150000   1.172438e-03  2.346713e-06
    309    321   2   0.50000    -0.1150000    0.1150000   2.431434e-04  1.541678e-07
    308    311   2   0.50000    -0.1150000   -0.1150000   1.172438e-03  2.346713e-06
    308    318   2   0.50000    -0.1150000    0.1150000   2.431434e-04  1.541678e-07
    317    311   2   0.50000     0.1150000   -0.1150000   2.431434e-04  1.541678e-07
    317    318   2   0.50000     0.1150000    0.1150000   5.042375e-05  1.012808e-08
    309    319   2   0.50000    -0.1150000    0.1150000   2.431434e-04  1.541678e-07
    318    312   2   0.50000     0.1150000   -0.1150000   2.431434e-04  1.541678e-07
    318    319   2   0.50000     0.1150000    0.1150000   5.042375e-05  1.012808e-08
    310    320   2   0.50000    -0.1150000    0.1150000   2.431434e-04  1.541678e-07
    319    313   2   0.50000     0.1150000   -0.1150000   2.431434e-04  1.541678e-07
    319    320   2   0.50000     0.1150000    0.1150000   5.042375e-05  1.012808e-08
    311    321   2   0.50000    -0.1150000    0.1150000   2.431434e-04  1.541678e-07
    320    308   2   0.50000     0.1150000   -0.1150000   2.431434e-04  1.541678e-07
    320    321   2   0.50000     0.1150000    0.1150000   5.042375e-05  1.012808e-08

[ angles ]
; ai  aj  ak
      2      1      9   1    110.7000    313.8000
      2      1     10   1    110.7000    313.8000
      2      1     17   1    110.7000    313.8000
      9      1     10   1    107.8000    276.1440
      9      1     17   1    107.8000    276.1440
     10      1     17   1    107.8000    276.1440
      1      2      3   1    112.1750    585.7600
      1      2     11   1    110.7000    313.8000
      1      2     18   1    112.7000    488.2728
      3      2     11   1    109.5000    292.8800
      3      2     18   1    112.1750    585.7600
     11      2     18   1    110.7000    313.8000
      2      3      4   1    120.0000    585.7600
      2      3      8   1    120.0000    585.7600
      4      3      8   1    120.0000    527.1840
      3      4      5   1    120.0000    527.1840
      3      4     12   1    120.0000    292.8800
      5      4     12   1    120.0000    292.8800
      4      5      6   1    120.0000    527.1840
      4      5     13   1    120.0000    292.8800
      6      5     13   1    120.0000    292.8800
      5      6      7   1    120.0000    527.1840
      5      6     14   1    120.0000    292.8800
      7      6     14   1    120.0000    292.8800
      6      7      8   1    120.0000    527.1840
      6      7     15   1    120.0000    292.8800
      8      7     15   1    120.0000    292.8800
      3      8      7   1    120.0000    527.1840
      3      8     16   1    120.0000    292.8800
      7      8     16   1    120.0000    292.8800
      2     18     19   1    112.7000    488.2728
      2     18     26   1    110.7000    313.8000
      2     18     27   1    110.7000    313.8000
     19     18     26   1    110.7000    313.8000
     19     18     27   1    110.7000    313.8000
     26     18     27   1    107.8000    276.1440
     18     19     20   1    112.1750    585.7600
     18     19     28   1    110.7000    313.8000
     18     19     34   1    112.7000    488.2728
     20     19     28   1    109.5000    292.8800
     20     19     34   1    112.1750    585.7600
     28     19     34   1    110.7000    313.8000
     19     20     21   1    120.0000    585.7600
     19     20     25   1    120.0000    585.7600
     21     20     25   1    120.0000    527.1840
     20     21     22   1    120.0000    527.1840
     20     21     29   1    120.0000    292.8800
     22     21     29   1    120.0000    292.8800
     21     22     23   1    120.0000    527.1840
     21     22     30   1    120.0000    292.8800
     23     22     30   1    120.0000    292.8800
     22     23     24   1    120.0000    527.1840
     22     23     31   1    120.0000    292.8800
     24     23     31   1    120.0000    292.8800
     23     24     25   1    120.0000    527.1840
     23     24     32   1    120.0000    292.8800
     25     24     32   1    120.0000    292.8800
     20     25     24   1    120.0000    527.1840
     20     25     33   1    120.0000    292.8800
     24     25     33   1    120.0000    292.8800
     19     34     35   1    112.7000    488.2728
     19     34     42   1    110.7000    313.8000
     19     34     43   1    110.7000    313.8000
     35     34     42   1    110.7000    313.8000
     35     34     43   1    110.7000    313.8000
     42     34     43   1    107.8000    276.1440
     34     35     36   1    112.1750    585.7600
     34     35     44   1    110.7000    313.8000
     34     35     50   1    112.7000    488.2728
     36     35     44   1    109.5000    292.8800
     36     35     50   1    112.1750    585.7600
     44     35     50   1    110.7000    313.8000
     35     36     37   1    120.0000    585.7600
     35     36     41   1    120.0000    585.7600
     37     36     41   1    120.0000    527.1840
     36     37     38   1    120.0000    527.1840
     36     37     45   1    120.0000    292.8800
     38     37     45   1    120.0000    292.8800
     37     38     39   1    120.0000    527.1840
     37     38     46   1    120.0000    292.8800
     39     38     46   1    120.0000    292.8800
     38     39     40   1    120.0000    527.1840
     38     39     47   1    120.0000    292.8800
     40     39     47   1    120.0000    292.8800
     39     40     41   1    120.0000    527.1840
     39     40     48   1    120.0000    292.8800
     41     40     48   1    120.0000    292.8800
     36     41     40   1    120.0000    527.1840
     36     41     49   1    120.0000    292.8800
     40     41     49   1    120.0000    292.8800
     35     50     51   1    112.7000    488.2728
     35     50     58   1    110.7000    313.8000
     35     50     59   1    110.7000    313.8000
     51     50     58   1    110.7000    313.8000
     51     50     59   1    110.7000    313.8000
     58     50     59   1    107.8000    276.1440
     50     51     52   1    112.1750    585.7600
     50     51     60   1    110.7000    313.8000
     50     51     66   1    112.7000    488.2728
     52     51     60   1    109.5000    292.8800
     52     51     66   1    112.1750    585.7600
     60     51     66   1    110.7000    313.8000
     51     52     53   1    120.0000    585.7600
     51     52     57   1    120.0000    585.7600
     53     52     57   1    120.0000    527.1840
     52     53     54   1    120.0000    527.1840
     52     53     61   1    120.0000    292.8800
     54     53     61   1    120.0000    292.8800
     53     54     55   1    120.0000    527.1840
     53     54     62   1    120.0000    292.8800
     55     54     62   1    120.0000    292.8800
     54     55     56   1    120.0000    527.1840
     54     55     63   1    120.0000    292.8800
     56     55     63   1    120.0000    292.8800
     55     56     57   1    120.0000    527.1840
     55     56     64   1    120.0000    292.8800
     57     56     64   1    120.0000    292.8800
     52     57     56   1    120.0000    527.1840
     52     57     65   1    120.0000    292.8800
     56     57     65   1    120.0000    292.8800
     51     66     67   1    112.7000    488.2728
     51     66     74   1    110.7000    313.8000
     51     66     75   1    110.7000    313.8000
     67     66     74   1    110.7000    313.8000
     67     66     75   1    110.7000    313.8000
     74     66     75   1    107.8000    276.1440
     66     67     68   1    112.1750    585.7600
     66     67     76   1    110.7000    313.8000
     66     67     82   1    112.7000    488.2728
     68     67     76   1    109.5000    292.8800
     68     67     82   1    112.1750    585.7600
     76     67     82   1    110.7000    313.8000
     67     68     69   1    120.0000    585.7600
     67     68     73   1    120.0000    585.7600
     69     68     73   1    120.0000    527.1840
     68     69     70   1    120.0000    527.1840
     68     69     77   1    120.0000    292.8800
     70     69     77   1    120.0000    292.8800
     69     70     71   1    120.0000    527.1840
     69     70     78   1    120.0000    292.8800
     71     70     78   1    120.0000    292.8800
     70     71     72   1    120.0000    527.1840
     70     71     79   1    120.0000    292.8800
     72     71     79   1    120.0000    292.8800
     71     72     73   1    120.0000    527.1840
     71     72     80   1    120.0000    292.8800
     73     72     80   1    120.0000    292.8800
     68     73     72   1    120.0000    527.1840
     68     73     81   1    120.0000    292.8800
     72     73     81   1    120.0000    292.8800
     67     82     83   1    112.7000    488.2728
     67     82     90   1    110.7000    313.8000
     67     82     91   1    110.7000    313.8000
     83     82     90   1    110.7000    313.8000
     83     82     91   1    110.7000    313.8000
     90     82     91   1    107.8000    276.1440
     82     83     84   1    112.1750    585.7600
     82     83     92   1    110.7000    313.8000
     82     83     98   1    112.7000    488.2728
     84     83     92   1    109.5000    292.8800
     84     83     98   1    112.1750    585.7600
     92     83     98   1    110.7000    313.8000
     83     84     85   1    120.0000    585.7600
     83     84     89   1    120.0000    585.7600
     85     84     89   1    120.0000    527.1840
     84     85     86   1    120.0000    527.1840
     84     85     93   1    120.0000    292.8800
     86     85     93   1    120.0000    292.8800
     85     86     87   1    120.0000    527.1840
     85     86     94   1    120.0000    292.8800
     87     86     94   1    120.0000    292.8800
     86     87     88   1    120.0000    527.1840
     86     87     95   1    120.0000    292.8800
     88     87     95   1    120.0000    292.8800
     87     88     89   1    120.0000    527.1840
     87     88     96   1    120.0000    292.8800
     89     88     96   1    120.0000    292.8800
     84     89     88   1    120.0000    527.1840
     84     89     97   1    120.0000    292.8800
     88     89     97   1    120.0000    292.8800
     83     98     99   1    112.7000    488.2728
     83     98    106   1    110.7000    313.8000
     83     98    107   1    110.7000    313.8000
     99     98    106   1    110.7000    313.8000
     99     98    107   1    110.7000    313.8000
    106     98    107   1    107.8000    276.1440
     98     99    100   1    112.1750    585.7600
     98     99    108   1    110.7000    313.8000
     98     99    114   1    112.7000    488.2728
    100     99    108   1    109.5000    292.8800
    100     99    114   1    112.1750    585.7600
    108     99    114   1    110.7000    313.8000
     99    100    101   1    120.0000    585.7600
     99    100    105   1    120.0000    585.7600
    101    100    105   1    120.0000    527.1840
    100    101    102   1    120.0000    527.1840
    100    101    109   1    120.0000    292.8800
    102    101    109   1    120.0000    292.8800
    101    102    103   1    120.0000    527.1840
    101    102    110   1    120.0000    292.8800
    103    102    110   1    120.0000    292.8800
    102    103    104   1    120.0000    527.1840
    102    103    111   1    120.0000    292.8800
    104    103    111   1    120.0000    292.8800
    103    104    105   1    120.0000    527.1840
    103    104    112   1    120.0000    292.8800
    105    104    112   1    120.0000    292.8800
    100    105    104   1    120.0000    527.1840
    100    105    113   1    120.0000    292.8800
    104    105    113   1    120.0000    292.8800
     99    114    115   1    112.7000    488.2728
     99    114    122   1    110.7000    313.8000
     99    114    123   1    110.7000    313.8000
    115    114    122   1    110.7000    313.8000
    115    114    123   1    110.7000    313.8000
    122    114    123   1    107.8000    276.1440
    114    115    116   1    112.1750    585.7600
    114    115    124   1    110.7000    313.8000
    114    115    130   1    112.7000    488.2728
    116    115    124   1    109.5000    292.8800
    116    115    130   1    112.1750    585.7600
    124    115    130   1    110.7000    313.8000
    115    116    117   1    120.0000    585.7600
    115    116    121   1    120.0000    585.7600
    117    116    121   1    120.0000    527.1840
    116    117    118   1    120.0000    527.1840
    116    117    125   1    120.0000    292.8800
    118    117    125   1    120.0000    292.8800
    117    118    119   1    120.0000    527.1840
    117    118    126   1    120.0000    292.8800
    119    118    126   1    120.0000    292.8800
    118    119    120   1    120.0000    527.1840
    118    119    127   1    120.0000    292.8800
    120    119    127   1    120.0000    292.8800
    119    120    121   1    120.0000    527.1840
    119    120    128   1    120.0000    292.8800
    121    120    128   1    120.0000    292.8800
    116    121    120   1    120.0000    527.1840
    116    121    129   1    120.0000    292.8800
    120    121    129   1    120.0000    292.8800
    115    130    131   1    112.7000    488.2728
    115    130    138   1    110.7000    313.8000
    115    130    139   1    110.7000    313.8000
    131    130    138   1    110.7000    313.8000
    131    130    139   1    110.7000    313.8000
    138    130    139   1    107.8000    276.1440
    130    131    132   1    112.1750    585.7600
    130    131    140   1    110.7000    313.8000
    130    131    146   1    112.7000    488.2728
    132    131    140   1    109.5000    292.8800
    132    131    146   1    112.1750    585.7600
    140    131    146   1    110.7000    313.8000
    131    132    133   1    120.0000    585.7600
    131    132    137   1    120.0000    585.7600
    133    132    137   1    120.0000    527.1840
    132    133    134   1    120.0000    527.1840
    132    133    141   1    120.0000    292.8800
    134    133    141   1    120.0000    292.8800
    133    134    135   1    120.0000    527.1840
    133    134    142   1    120.0000    292.8800
    135    134    142   1    120.0000    292.8800
    134    135    136   1    120.0000    527.1840
    134    135    143   1    120.0000    292.8800
    136    135    143   1    120.0000    292.8800
    135    136    137   1    120.0000    527.1840
    135    136    144   1    120.0000    292.8800
    137    136    144   1    120.0000    292.8800
    132    137    136   1    120.0000    527.1840
    132    137    145   1    120.0000    292.8800
    136    137    145   1    120.0000    292.8800
    131    146    147   1    112.7000    488.2728
    131    146    154   1    110.7000    313.8000
    131    146    155   1    110.7000    313.8000
    147    146    154   1    110.7000    313.8000
    147    146    155   1    110.7000    313.8000
    154    146    155   1    107.8000    276.1440
    146    147    148   1    112.1750    585.7600
    146    147    156   1    110.7000    313.8000
    146    147    162   1    112.7000    488.2728
    148    147    156   1    109.5000    292.8800
    148    147    162   1    112.1750    585.7600
    156    147    162   1    110.7000    313.8000
    147    148    149   1    120.0000    585.7600
    147    148    153   1    120.0000    585.7600
    149    148    153   1    120.0000    527.1840
    148    149    150   1    120.0000    527.1840
    148    149    157   1    120.0000    292.8800
    150    149    157   1    120.0000    292.8800
    149    150    151   1    120.0000    527.1840
    149    150    158   1    120.0000    292.8800
    151    150    158   1    120.0000    292.8800
    150    151    152   1    120.0000    527.1840
    150    151    159   1    120.0000    292.8800
    152    151    159   1    120.0000    292.8800
    151    152    153   1    120.0000    527.1840
    151    152    160   1    120.0000    292.8800
    153    152    160   1    120.0000    292.8800
    148    153    152   1    120.0000    527.1840
    148    153    161   1    120.0000    292.8800
    152    153    161   1    120.0000    292.8800
    147    162    163   1    112.7000    488.2728
    147    162    170   1    110.7000    313.8000
    147    162    171   1    110.7000    313.8000
    163    162    170   1    110.7000    313.8000
    163    162    171   1    110.7000    313.8000
    170    162    171   1    107.8000    276.1440
    162    163    164   1    112.1750    585.7600
    162    163    172   1    110.7000    313.8000
    162    163    178   1    112.7000    488.2728
    164    163    172   1    109.5000    292.8800
    164    163    178   1    112.1750    585.7600
    172    163    178   1    110.7000    313.8000
    163    164    165   1    120.0000    585.7600
    163    164    169   1    120.0000    585.7600
    165    164    169   1    120.0000    527.1840
    164    165    166   1    120.0000    527.1840
    164    165    173   1    120.0000    292.8800
    166    165    173   1    120.0000    292.8800
    165    166    167   1    120.0000    527.1840
    165    166    174   1    120.0000    292.8800
    167    166    174   1    120.0000    292.8800
    166    167    168   1    120.0000    527.1840
    166    167    175   1    120.0000    292.8800
    168    167    175   1    120.0000    292.8800
    167    168    169   1    120.0000    527.1840
    167    168    176   1    120.0000    292.8800
    169    168    176   1    120.0000    292.8800
    164    169    168   1    120.0000    527.1840
    164    169    177   1    120.0000    292.8800
    168    169    177   1    120.0000    292.8800
    163    178    179   1    112.7000    488.2728
    163    178    186   1    110.7000    313.8000
    163    178    187   1    110.7000    313.8000
    179    178    186   1    110.7000    313.8000
    179    178    187   1    110.7000    313.8000
    186    178    187   1    107.8000    276.1440
    178    179    180   1    112.1750    585.7600
    178    179    188   1    110.7000    313.8000
    178    179    194   1    112.7000    488.2728
    180    179    188   1    109.5000    292.8800
    180    179    194   1    112.1750    585.7600
    188    179    194   1    110.7000    313.8000
    179    180    181   1    120.0000    585.7600
    179    180    185   1    120.0000    585.7600
    181    180    185   1    120.0000    527.1840
    180    181    182   1    120.0000    527.1840
    180    181    189   1    120.0000    292.8800
    182    181    189   1    120.0000    292.8800
    181    182    183   1    120.0000    527.1840
    181    182    190   1    120.0000    292.8800
    183    182    190   1    120.0000    292.8800
    182    183    184   1    120.0000    527.1840
    182    183    191   1    120.0000    292.8800
    184    183    191   1    120.0000    292.8800
    183    184    185   1    120.0000    527.1840
    183    184    192   1    120.0000    292.8800
    185    184    192   1    120.0000    292.8800
    180    185    184   1    120.0000    527.1840
    180    185    193   1    120.0000    292.8800
    184    185    193   1    120.0000    292.8800
    179    194    195   1    112.7000    488.2728
    179    194    202   1    110.7000    313.8000
    179    194    203   1    110.7000    313.8000
    195    194    202   1    110.7000    313.8000
    195    194    203   1    110.7000    313.8000
    202    194    203   1    107.8000    276.1440
    194    195    196   1    112.1750    585.7600
    194    195    204   1    110.7000    313.8000
    194    195    210   1    112.7000    488.2728
    196    195    204   1    109.5000    292.8800
    196    195    210   1    112.1750    585.7600
    204    195    210   1    110.7000    313.8000
    195    196    197   1    120.0000    585.7600
    195    196    201   1    120.0000    585.7600
    197    196    201   1    120.0000    527.1840
    196    197    198   1    120.0000    527.1840
    196    197    205   1    120.0000    292.8800
    198    197    205   1    120.0000    292.8800
    197    198    199   1    120.0000    527.1840
    197    198    206   1    120.0000    292.8800
    199    198    206   1    120.0000    292.8800
    198    199    200   1    120.0000    527.1840
    198    199    207   1    120.0000    292.8800
    200    199    207   1    120.0000    292.8800
    199    200    201   1    120.0000    527.1840
    199    200    208   1    120.0000    292.8800
    201    200    208   1    120.0000    292.8800
    196    201    200   1    120.0000    527.1840
    196    201    209   1    120.0000    292.8800
    200    201    209   1    120.0000    292.8800
    195    210    211   1    112.7000    488.2728
    195    210    218   1    110.7000    313.8000
    195    210    219   1    110.7000    313.8000
    211    210    218   1    110.7000    313.8000
    211    210    219   1    110.7000    313.8000
    218    210    219   1    107.8000    276.1440
    210    211    212   1    112.1750    585.7600
    210    211    220   1    110.7000    313.8000
    210    211    226   1    112.7000    488.2728
    212    211    220   1    109.5000    292.8800
    212    211    226   1    112.1750    585.7600
    220    211    226   1    110.7000    313.8000
    211    212    213   1    120.0000    585.7600
    211    212    217   1    120.0000    585.7600
    213    212    217   1    120.0000    527.1840
    212    213    214   1    120.0000    527.1840
    212    213    221   1    120.0000    292.8800
    214    213    221   1    120.0000    292.8800
    213    214    215   1    120.0000    527.1840
    213    214    222   1    120.0000    292.8800
    215    214    222   1    120.0000    292.8800
    214    215    216   1    120.0000    527.1840
    214    215    223   1    120.0000    292.8800
    216    215    223   1    120.0000    292.8800
    215    216    217   1    120.0000    527.1840
    215    216    224   1    120.0000    292.8800
    217    216    224   1    120.0000    292.8800
    212    217    216   1    120.0000    527.1840
    212    217    225   1    120.0000    292.8800
    216    217    225   1    120.0000    292.8800
    211    226    227   1    112.7000    488.2728
    211    226    234   1    110.7000    313.8000
    211    226    235   1    110.7000    313.8000
    227    226    234   1    110.7000    313.8000
    227    226    235   1    110.7000    313.8000
    234    226    235   1    107.8000    276.1440
    226    227    228   1    112.1750    585.7600
    226    227    236   1    110.7000    313.8000
    226    227    242   1    112.7000    488.2728
    228    227    236   1    109.5000    292.8800
    228    227    242   1    112.1750    585.7600
    236    227    242   1    110.7000    313.8000
    227    228    229   1    120.0000    585.7600
    227    228    233   1    120.0000    585.7600
    229    228    233   1    120.0000    527.1840
    228    229    230   1    120.0000    527.1840
    228    229    237   1    120.0000    292.8800
    230    229    237   1    120.0000    292.8800
    229    230    231   1    120.0000    527.1840
    229    230    238   1    120.0000    292.8800
    231    230    238   1    120.0000    292.8800
    230    231    232   1    120.0000    527.1840
    230    231    239   1    120.0000    292.8800
    232    231    239   1    120.0000    292.8800
    231    232    233   1    120.0000    527.1840
    231    232    240   1    120.0000    292.8800
    233    232    240   1    120.0000    292.8800
    228    233    232   1    120.0000    527.1840
    228    233    241   1    120.0000    292.8800
    232    233    241   1    120.0000    292.8800
    227    242    243   1    112.7000    488.2728
    227    242    250   1    110.7000    313.8000
    227    242    251   1    110.7000    313.8000
    243    242    250   1    110.7000    313.8000
    243    242    251   1    110.7000    313.8000
    250    242    251   1    107.8000    276.1440
    242    243    244   1    112.1750    585.7600
    242    243    252   1    110.7000    313.8000
    242    243    258   1    112.7000    488.2728
    244    243    252   1    109.5000    292.8800
    244    243    258   1    112.1750    585.7600
    252    243    258   1    110.7000    313.8000
    243    244    245   1    120.0000    585.7600
    243    244    249   1    120.0000    585.7600
    245    244    249   1    120.0000    527.1840
    244    245    246   1    120.0000    527.1840
    244    245    253   1    120.0000    292.8800
    246    245    253   1    120.0000    292.8800
    245    246    247   1    120.0000    527.1840
    245    246    254   1    120.0000    292.8800
    247    246    254   1    120.0000    292.8800
    246    247    248   1    120.0000    527.1840
    246    247    255   1    120.0000    292.8800
    248    247    255   1    120.0000    292.8800
    247    248    249   1    120.0000    527.1840
    247    248    256   1    120.0000    292.8800
    249    248    256   1    120.0000    292.8800
    244    249    248   1    120.0000    527.1840
    244    249    257   1    120.0000    292.8800
    248    249    257   1    120.0000    292.8800
    243    258    259   1    112.7000    488.2728
    243    258    266   1    110.7000    313.8000
    243    258    267   1    110.7000    313.8000
    259    258    266   1    110.7000    313.8000
    259    258    267   1    110.7000    313.8000
    266    258    267   1    107.8000    276.1440
    258    259    260   1    112.1750    585.7600
    258    259    268   1    110.7000    313.8000
    258    259    274   1    112.7000    488.2728
    260    259    268   1    109.5000    292.8800
    260    259    274   1    112.1750    585.7600
    268    259    274   1    110.7000    313.8000
    259    260    261   1    120.0000    585.7600
    259    260    265   1    120.0000    585.7600
    261    260    265   1    120.0000    527.1840
    260    261    262   1    120.0000    527.1840
    260    261    269   1    120.0000    292.8800
    262    261    269   1    120.0000    292.8800
    261    262    263   1    120.0000    527.1840
    261    262    270   1    120.0000    292.8800
    263    262    270   1    120.0000    292.8800
    262    263    264   1    120.0000    527.1840
    262    263    271   1    120.0000    292.8800
    264    263    271   1    120.0000    292.8800
    263    264    265   1    120.0000    527.1840
    263    264    272   1    120.0000    292.8800
    265    264    272   1    120.0000    292.8800
    260    265    264   1    120.0000    527.1840
    260    265    273   1    120.0000    292.8800
    264    265    273   1    120.0000    292.8800
    259    274    275   1    112.7000    488.2728
    259    274    282   1    110.7000    313.8000
    259    274    283   1    110.7000    313.8000
    275    274    282   1    110.7000    313.8000
    275    274    283   1    110.7000    313.8000
    282    274    283   1    107.8000    276.1440
    274    275    276   1    112.1750    585.7600
    274    275    284   1    110.7000    313.8000
    274    275    290   1    112.7000    488.2728
    276    275    284   1    109.5000    292.8800
    276    275    290   1    112.1750    585.7600
    284    275    290   1    110.7000    313.8000
    275    276    277   1    120.0000    585.7600
    275    276    281   1    120.0000    585.7600
    277    276    281   1    120.0000    527.1840
    276    277    278   1    120.0000    527.1840
    276    277    285   1    120.0000    292.8800
    278    277    285   1    120.0000    292.8800
    277    278    279   1    120.0000    527.1840
    277    278    286   1    120.0000    292.8800
    279    278    286   1    120.0000    292.8800
    278    279    280   1    120.0000    527.1840
    278    279    287   1    120.0000    292.8800
    280    279    287   1    120.0000    292.8800
    279    280    281   1    120.0000    527.1840
    279    280    288   1    120.0000    292.8800
    281    280    288   1    120.0000    292.8800
    276    281    280   1    120.0000    527.1840
    276    281    289   1    120.0000    292.8800
    280    281    289   1    120.0000    292.8800
    275    290    291   1    112.7000    488.2728
    275    290    298   1    110.7000    313.8000
    275    290    299   1    110.7000    313.8000
    291    290    298   1    110.7000    313.8000
    291    290    299   1    110.7000    313.8000
    298    290    299   1    107.8000    276.1440
    290    291    292   1    112.1750    585.7600
    290    291    300   1    110.7000    313.8000
    290    291    306   1    112.7000    488.2728
    292    291    300   1    109.5000    292.8800
    292    291    306   1    112.1750    585.7600
    300    291    306   1    110.7000    313.8000
    291    292    293   1    120.0000    585.7600
    291    292    297   1    120.0000    585.7600
    293    292    297   1    120.0000    527.1840
    292    293    294   1    120.0000    527.1840
    292    293    301   1    120.0000    292.8800
    294    293    301   1    120.0000    292.8800
    293    294    295   1    120.0000    527.1840
    293    294    302   1    120.0000    292.8800
    295    294    302   1    120.0000    292.8800
    294    295    296   1    120.0000    527.1840
    294    295    303   1    120.0000    292.8800
    296    295    303   1    120.0000    292.8800
    295    296    297   1    120.0000    527.1840
    295    296    304   1    120.0000    292.8800
    297    296    304   1    120.0000    292.8800
    292    297    296   1    120.0000    527.1840
    292    297    305   1    120.0000    292.8800
    296    297    305   1    120.0000    292.8800
    291    306    307   1    112.7000    488.2728
    291    306    314   1    110.7000    313.8000
    291    306    315   1    110.7000    313.8000
    307    306    314   1    110.7000    313.8000
    307    306    315   1    110.7000    313.8000
    314    306    315   1    107.8000    276.1440
    306    307    308   1    112.1750    585.7600
    306    307    316   1    110.7000    313.8000
    306    307    322   1    110.7000    313.8000
    308    307    316   1    109.5000    292.8800
    308    307    322   1    109.5000    292.8800
    316    307    322   1    107.8000    276.1440
    307    308    309   1    120.0000    585.7600
    307    308    313   1    120.0000    585.7600
    309    308    313   1    120.0000    527.1840
    308    309    310   1    120.0000    527.1840
    308    309    317   1    120.0000    292.8800
    310    309    317   1    120.0000    292.8800
    309    310    311   1    120.0000    527.1840
    309    310    318   1    120.0000    292.8800
    311    310    318   1    120.0000    292.8800
    310    311    312   1    120.0000    527.1840
    310    311    319   1    120.0000    292.8800
    312    311    319   1    120.0000    292.8800
    311    312    313   1    120.0000    527.1840
    311    312    320   1    120.0000    292.8800
    313    312    320   1    120.0000    292.8800
    308    313    312   1    120.0000    527.1840
    308    313    321   1    120.0000    292.8800
    312    313    321   1    120.0000    292.8800

[ dihedrals ]
; Proper dihedrals
      9      1      2      3   5     0.00000     0.00000     3.61498  0.0
      9      1      2     11   5     0.00000     0.00000     1.25520  0.0
      9      1      2     18   5     0.00000     0.00000     1.25520  0.0
     10      1      2      3   5     0.00000     0.00000     3.61498  0.0
     10      1      2     11   5     0.00000     0.00000     1.25520  0.0
     10      1      2     18   5     0.00000     0.00000     1.25520  0.0
     17      1      2      3   5     0.00000     0.00000     3.61498  0.0
     17      1      2     11   5     0.00000     0.00000     1.25520  0.0
     17      1      2     18   5     0.00000     0.00000     1.25520  0.0
      1      2      3      4   5     0.00000     0.34727     0.00000  0.0
      1      2      3      8   5     0.00000     0.34727     0.00000  0.0
     11      2      3      4   5     0.00000     0.00000     0.00000  0.0
     11      2      3      8   5     0.00000     0.00000     0.00000  0.0
     18      2      3      4   5     0.00000     0.34727     0.00000  0.0
     18      2      3      8   5     0.00000     0.34727     0.00000  0.0
      1      2     18     19   5     4.74884    -0.63178     1.67360  0.0
      1      2     18     26   5     0.00000     0.00000     1.25520  0.0
      1      2     18     27   5     0.00000     0.00000     1.25520  0.0
      3      2     18     19   5    -0.30962     3.11290    -3.95806  0.0
      3      2     18     26   5     0.00000     0.00000     3.61498  0.0
      3      2     18     27   5     0.00000     0.00000     3.61498  0.0
     11      2     18     19   5     0.00000     0.00000     1.25520  0.0
     11      2     18     26   5     0.00000     0.00000     1.25520  0.0
     11      2     18     27   5     0.00000     0.00000     1.25520  0.0
      2      3      4      5   5     0.00000    30.33400     0.00000  0.0
      2      3      4     12   5     0.00000    30.33400     0.00000  0.0
      8      3      4      5   5     0.00000    30.33400     0.00000  0.0
      8      3      4     12   5     0.00000    30.33400     0.00000  0.0
      2      3      8      7   5     0.00000    30.33400     0.00000  0.0
      2      3      8     16   5     0.00000    30.33400     0.00000  0.0
      4      3      8      7   5     0.00000    30.33400     0.00000  0.0
      4      3      8     16   5     0.00000    30.33400     0.00000  0.0
      3      4      5      6   5     0.00000    30.33400     0.00000  0.0
      3      4      5     13   5     0.00000    30.33400     0.00000  0.0
     12      4      5      6   5     0.00000    30.33400     0.00000  0.0
     12      4      5     13   5     0.00000    30.33400     0.00000  0.0
      4      5      6      7   5     0.00000    30.33400     0.00000  0.0
      4      5      6     14   5     0.00000    30.33400     0.00000  0.0
     13      5      6      7   5     0.00000    30.33400     0.00000  0.0
     13      5      6     14   5     0.00000    30.33400     0.00000  0.0
      5      6      7      8   5     0.00000    30.33400     0.00000  0.0
      5      6      7     15   5     0.00000    30.33400     0.00000  0.0
     14      6      7      8   5     0.00000    30.33400     0.00000  0.0
     14      6      7     15   5     0.00000    30.33400     0.00000  0.0
      6      7      8      3   5     0.00000    30.33400     0.00000  0.0
      6      7      8     16   5     0.00000    30.33400     0.00000  0.0
     15      7      8      3   5     0.00000    30.33400     0.00000  0.0
     15      7      8     16   5     0.00000    30.33400     0.00000  0.0
      2     18     19     20   5    -0.30962     3.11290    -3.95806  0.0
      2     18     19     28   5     0.00000     0.00000     1.25520  0.0
      2     18     19     34   5     4.74884    -0.63178     1.67360  0.0
     26     18     19     20   5     0.00000     0.00000     3.61498  0.0
     26     18     19     28   5     0.00000     0.00000     1.25520  0.0
     26     18     19     34   5     0.00000     0.00000     1.25520  0.0
     27     18     19     20   5     0.00000     0.00000     3.61498  0.0
     27     18     19     28   5     0.00000     0.00000     1.25520  0.0
     27     18     19     34   5     0.00000     0.00000     1.25520  0.0
     18     19     20     21   5     0.00000     0.34727     0.00000  0.0
     18     19     20     25   5     0.00000     0.34727     0.00000  0.0
     28     19     20     21   5     0.00000     0.00000     0.00000  0.0
     28     19     20     25   5     0.00000     0.00000     0.00000  0.0
     34     19     20     21   5     0.00000     0.34727     0.00000  0.0
     34     19     20     25   5     0.00000     0.34727     0.00000  0.0
     18     19     34     35   5     4.74884    -0.63178     1.67360  0.0
     18     19     34     42   5     0.00000     0.00000     1.25520  0.0
     18     19     34     43   5     0.00000     0.00000     1.25520  0.0
     20     19     34     35   5    -0.30962     3.11290    -3.95806  0.0
     20     19     34     42   5     0.00000     0.00000     3.61498  0.0
     20     19     34     43   5     0.00000     0.00000     3.61498  0.0
     28     19     34     35   5     0.00000     0.00000     1.25520  0.0
     28     19     34     42   5     0.00000     0.00000     1.25520  0.0
     28     19     34     43   5     0.00000     0.00000     1.25520  0.0
     19     20     21     22   5     0.00000    30.33400     0.00000  0.0
     19     20     21     29   5     0.00000    30.33400     0.00000  0.0
     25     20     21     22   5     0.00000    30.33400     0.00000  0.0
     25     20     21     29   5     0.00000    30.33400     0.00000  0.0
     19     20     25     24   5     0.00000    30.33400     0.00000  0.0
     19     20     25     33   5     0.00000    30.33400     0.00000  0.0
     21     20     25     24   5     0.00000    30.33400     0.00000  0.0
     21     20     25     33   5     0.00000    30.33400     0.00000  0.0
     20     21     22     23   5     0.00000    30.33400     0.00000  0.0
     20     21     22     30   5     0.00000    30.33400     0.00000  0.0
     29     21     22     23   5     0.00000    30.33400     0.00000  0.0
     29     21     22     30   5     0.00000    30.33400     0.00000  0.0
     21     22     23     24   5     0.00000    30.33400     0.00000  0.0
     21     22     23     31   5     0.00000    30.33400     0.00000  0.0
     30     22     23     24   5     0.00000    30.33400     0.00000  0.0
     30     22     23     31   5     0.00000    30.33400     0.00000  0.0
     22     23     24     25   5     0.00000    30.33400     0.00000  0.0
     22     23     24     32   5     0.00000    30.33400     0.00000  0.0
     31     23     24     25   5     0.00000    30.33400     0.00000  0.0
     31     23     24     32   5     0.00000    30.33400     0.00000  0.0
     23     24     25     20   5     0.00000    30.33400     0.00000  0.0
     23     24     25     33   5     0.00000    30.33400     0.00000  0.0
     32     24     25     20   5     0.00000    30.33400     0.00000  0.0
     32     24     25     33   5     0.00000    30.33400     0.00000  0.0
     19     34     35     36   5    -0.30962     3.11290    -3.95806  0.0
     19     34     35     44   5     0.00000     0.00000     1.25520  0.0
     19     34     35     50   5     4.74884    -0.63178     1.67360  0.0
     42     34     35     36   5     0.00000     0.00000     3.61498  0.0
     42     34     35     44   5     0.00000     0.00000     1.25520  0.0
     42     34     35     50   5     0.00000     0.00000     1.25520  0.0
     43     34     35     36   5     0.00000     0.00000     3.61498  0.0
     43     34     35     44   5     0.00000     0.00000     1.25520  0.0
     43     34     35     50   5     0.00000     0.00000     1.25520  0.0
     34     35     36     37   5     0.00000     0.34727     0.00000  0.0
     34     35     36     41   5     0.00000     0.34727     0.00000  0.0
     44     35     36     37   5     0.00000     0.00000     0.00000  0.0
     44     35     36     41   5     0.00000     0.00000     0.00000  0.0
     50     35     36     37   5     0.00000     0.34727     0.00000  0.0
     50     35     36     41   5     0.00000     0.34727     0.00000  0.0
     34     35     50     51   5     4.74884    -0.63178     1.67360  0.0
     34     35     50     58   5     0.00000     0.00000     1.25520  0.0
     34     35     50     59   5     0.00000     0.00000     1.25520  0.0
     36     35     50     51   5    -0.30962     3.11290    -3.95806  0.0
     36     35     50     58   5     0.00000     0.00000     3.61498  0.0
     36     35     50     59   5     0.00000     0.00000     3.61498  0.0
     44     35     50     51   5     0.00000     0.00000     1.25520  0.0
     44     35     50     58   5     0.00000     0.00000     1.25520  0.0
     44     35     50     59   5     0.00000     0.00000     1.25520  0.0
     35     36     37     38   5     0.00000    30.33400     0.00000  0.0
     35     36     37     45   5     0.00000    30.33400     0.00000  0.0
     41     36     37     38   5     0.00000    30.33400     0.00000  0.0
     41     36     37     45   5     0.00000    30.33400     0.00000  0.0
     35     36     41     40   5     0.00000    30.33400     0.00000  0.0
     35     36     41     49   5     0.00000    30.33400     0.00000  0.0
     37     36     41     40   5     0.00000    30.33400     0.00000  0.0
     37     36     41     49   5     0.00000    30.33400     0.00000  0.0
     36     37     38     39   5     0.00000    30.33400     0.00000  0.0
     36     37     38     46   5     0.00000    30.33400     0.00000  0.0
     45     37     38     39   5     0.00000    30.33400     0.00000  0.0
     45     37     38     46   5     0.00000    30.33400     0.00000  0.0
     37     38     39     40   5     0.00000    30.33400     0.00000  0.0
     37     38     39     47   5     0.00000    30.33400     0.00000  0.0
     46     38     39     40   5     0.00000    30.33400     0.00000  0.0
     46     38     39     47   5     0.00000    30.33400     0.00000  0.0
     38     39     40     41   5     0.00000    30.33400     0.00000  0.0
     38     39     40     48   5     0.00000    30.33400     0.00000  0.0
     47     39     40     41   5     0.00000    30.33400     0.00000  0.0
     47     39     40     48   5     0.00000    30.33400     0.00000  0.0
     39     40     41     36   5     0.00000    30.33400     0.00000  0.0
     39     40     41     49   5     0.00000    30.33400     0.00000  0.0
     48     40     41     36   5     0.00000    30.33400     0.00000  0.0
     48     40     41     49   5     0.00000    30.33400     0.00000  0.0
     35     50     51     52   5    -0.30962     3.11290    -3.95806  0.0
     35     50     51     60   5     0.00000     0.00000     1.25520  0.0
     35     50     51     66   5     4.74884    -0.63178     1.67360  0.0
     58     50     51     52   5     0.00000     0.00000     3.61498  0.0
     58     50     51     60   5     0.00000     0.00000     1.25520  0.0
     58     50     51     66   5     0.00000     0.00000     1.25520  0.0
     59     50     51     52   5     0.00000     0.00000     3.61498  0.0
     59     50     51     60   5     0.00000     0.00000     1.25520  0.0
     59     50     51     66   5     0.00000     0.00000     1.25520  0.0
     50     51     52     53   5     0.00000     0.34727     0.00000  0.0
     50     51     52     57   5     0.00000     0.34727     0.00000  0.0
     60     51     52     53   5     0.00000     0.00000     0.00000  0.0
     60     51     52     57   5     0.00000     0.00000     0.00000  0.0
     66     51     52     53   5     0.00000     0.34727     0.00000  0.0
     66     51     52     57   5     0.00000     0.34727     0.00000  0.0
     50     51     66     67   5     4.74884    -0.63178     1.67360  0.0
     50     51     66     74   5     0.00000     0.00000     1.25520  0.0
     50     51     66     75   5     0.00000     0.00000     1.25520  0.0
     52     51     66     67   5    -0.30962     3.11290    -3.95806  0.0
     52     51     66     74   5     0.00000     0.00000     3.61498  0.0
     52     51     66     75   5     0.00000     0.00000     3.61498  0.0
     60     51     66     67   5     0.00000     0.00000     1.25520  0.0
     60     51     66     74   5     0.00000     0.00000     1.25520  0.0
     60     51     66     75   5     0.00000     0.00000     1.25520  0.0
     51     52     53     54   5     0.00000    30.33400     0.00000  0.0
     51     52     53     61   5     0.00000    30.33400     0.00000  0.0
     57     52     53     54   5     0.00000    30.33400     0.00000  0.0
     57     52     53     61   5     0.00000    30.33400     0.00000  0.0
     51     52     57     56   5     0.00000    30.33400     0.00000  0.0
     51     52     57     65   5     0.00000    30.33400     0.00000  0.0
     53     52     57     56   5     0.00000    30.33400     0.00000  0.0
     53     52     57     65   5     0.00000    30.33400     0.00000  0.0
     52     53     54     55   5     0.00000    30.33400     0.00000  0.0
     52     53     54     62   5     0.00000    30.33400     0.00000  0.0
     61     53     54     55   5     0.00000    30.33400     0.00000  0.0
     61     53     54     62   5     0.00000    30.33400     0.00000  0.0
     53     54     55     56   5     0.00000    30.33400     0.00000  0.0
     53     54     55     63   5     0.00000    30.33400     0.00000  0.0
     62     54     55     56   5     0.00000    30.33400     0.00000  0.0
     62     54     55     63   5     0.00000    30.33400     0.00000  0.0
     54     55     56     57   5     0.00000    30.33400     0.00000  0.0
     54     55     56     64   5     0.00000    30.33400     0.00000  0.0
     63     55     56     57   5     0.00000    30.33400     0.00000  0.0
     63     55     56     64   5     0.00000    30.33400     0.00000  0.0
     55     56     57     52   5     0.00000    30.33400     0.00000  0.0
     55     56     57     65   5     0.00000    30.33400     0.00000  0.0
     64     56     57     52   5     0.00000    30.33400     0.00000  0.0
     64     56     57     65   5     0.00000    30.33400     0.00000  0.0
     51     66     67     68   5    -0.30962     3.11290    -3.95806  0.0
     51     66     67     76   5     0.00000     0.00000     1.25520  0.0
     51     66     67     82   5     4.74884    -0.63178     1.67360  0.0
     74     66     67     68   5     0.00000     0.00000     3.61498  0.0
     74     66     67     76   5     0.00000     0.00000     1.25520  0.0
     74     66     67     82   5     0.00000     0.00000     1.25520  0.0
     75     66     67     68   5     0.00000     0.00000     3.61498  0.0
     75     66     67     76   5     0.00000     0.00000     1.25520  0.0
     75     66     67     82   5     0.00000     0.00000     1.25520  0.0
     66     67     68     69   5     0.00000     0.34727     0.00000  0.0
     66     67     68     73   5     0.00000     0.34727     0.00000  0.0
     76     67     68     69   5     0.00000     0.00000     0.00000  0.0
     76     67     68     73   5     0.00000     0.00000     0.00000  0.0
     82     67     68     69   5     0.00000     0.34727     0.00000  0.0
     82     67     68     73   5     0.00000     0.34727     0.00000  0.0
     66     67     82     83   5     4.74884    -0.63178     1.67360  0.0
     66     67     82     90   5     0.00000     0.00000     1.25520  0.0
     66     67     82     91   5     0.00000     0.00000     1.25520  0.0
     68     67     82     83   5    -0.30962     3.11290    -3.95806  0.0
     68     67     82     90   5     0.00000     0.00000     3.61498  0.0
     68     67     82     91   5     0.00000     0.00000     3.61498  0.0
     76     67     82     83   5     0.00000     0.00000     1.25520  0.0
     76     67     82     90   5     0.00000     0.00000     1.25520  0.0
     76     67     82     91   5     0.00000     0.00000     1.25520  0.0
     67     68     69     70   5     0.00000    30.33400     0.00000  0.0
     67     68     69     77   5     0.00000    30.33400     0.00000  0.0
     73     68     69     70   5     0.00000    30.33400     0.00000  0.0
     73     68     69     77   5     0.00000    30.33400     0.00000  0.0
     67     68     73     72   5     0.00000    30.33400     0.00000  0.0
     67     68     73     81   5     0.00000    30.33400     0.00000  0.0
     69     68     73     72   5     0.00000    30.33400     0.00000  0.0
     69     68     73     81   5     0.00000    30.33400     0.00000  0.0
     68     69     70     71   5     0.00000    30.33400     0.00000  0.0
     68     69     70     78   5     0.00000    30.33400     0.00000  0.0
     77     69     70     71   5     0.00000    30.33400     0.00000  0.0
     77     69     70     78   5     0.00000    30.33400     0.00000  0.0
     69     70     71     72   5     0.00000    30.33400     0.00000  0.0
     69     70     71     79   5     0.00000    30.33400     0.00000  0.0
     78     70     71     72   5     0.00000    30.33400     0.00000  0.0
     78     70     71     79   5     0.00000    30.33400     0.00000  0.0
     70     71     72     73   5     0.00000    30.33400     0.00000  0.0
     70     71     72     80   5     0.00000    30.33400     0.00000  0.0
     79     71     72     73   5     0.00000    30.33400     0.00000  0.0
     79     71     72     80   5     0.00000    30.33400     0.00000  0.0
     71     72     73     68   5     0.00000    30.33400     0.00000  0.0
     71     72     73     81   5     0.00000    30.33400     0.00000  0.0
     80     72     73     68   5     0.00000    30.33400     0.00000  0.0
     80     72     73     81   5     0.00000    30.33400     0.00000  0.0
     67     82     83     84   5    -0.30962     3.11290    -3.95806  0.0
     67     82     83     92   5     0.00000     0.00000     1.25520  0.0
     67     82     83     98   5     4.74884    -0.63178     1.67360  0.0
     90     82     83     84   5     0.00000     0.00000     3.61498  0.0
     90     82     83     92   5     0.00000     0.00000     1.25520  0.0
     90     82     83     98   5     0.00000     0.00000     1.25520  0.0
     91     82     83     84   5     0.00000     0.00000     3.61498  0.0
     91     82     83     92   5     0.00000     0.00000     1.25520  0.0
     91     82     83     98   5     0.00000     0.00000     1.25520  0.0
     82     83     84     85   5     0.00000     0.34727     0.00000  0.0
     82     83     84     89   5     0.00000     0.34727     0.00000  0.0
     92     83     84     85   5     0.00000     0.00000     0.00000  0.0
     92     83     84     89   5     0.00000     0.00000     0.00000  0.0
     98     83     84     85   5     0.00000     0.34727     0.00000  0.0
     98     83     84     89   5     0.00000     0.34727     0.00000  0.0
     82     83     98     99   5     4.74884    -0.63178     1.67360  0.0
     82     83     98    106   5     0.00000     0.00000     1.25520  0.0
     82     83     98    107   5     0.00000     0.00000     1.25520  0.0
     84     83     98     99   5    -0.30962     3.11290    -3.95806  0.0
     84     83     98    106   5     0.00000     0.00000     3.61498  0.0
     84     83     98    107   5     0.00000     0.00000     3.61498  0.0
     92     83     98     99   5     0.00000     0.00000     1.25520  0.0
     92     83     98    106   5     0.00000     0.00000     1.25520  0.0
     92     83     98    107   5     0.00000     0.00000     1.25520  0.0
     83     84     85     86   5     0.00000    30.33400     0.00000  0.0
     83     84     85     93   5     0.00000    30.33400     0.00000  0.0
     89     84     85     86   5     0.00000    30.33400     0.00000  0.0
     89     84     85     93   5     0.00000    30.33400     0.00000  0.0
     83     84     89     88   5     0.00000    30.33400     0.00000  0.0
     83     84     89     97   5     0.00000    30.33400     0.00000  0.0
     85     84     89     88   5     0.00000    30.33400     0.00000  0.0
     85     84     89     97   5     0.00000    30.33400     0.00000  0.0
     84     85     86     87   5     0.00000    30.33400     0.00000  0.0
     84     85     86     94   5     0.00000    30.33400     0.00000  0.0
     93     85     86     87   5     0.00000    30.33400     0.00000  0.0
     93     85     86     94   5     0.00000    30.33400     0.00000  0.0
     85     86     87     88   5     0.00000    30.33400     0.00000  0.0
     85     86     87     95   5     0.00000    30.33400     0.00000  0.0
     94     86     87     88   5     0.00000    30.33400     0.00000  0.0
     94     86     87     95   5     0.00000    30.33400     0.00000  0.0
     86     87     88     89   5     0.00000    30.33400     0.00000  0.0
     86     87     88     96   5     0.00000    30.33400     0.00000  0.0
     95     87     88     89   5     0.00000    30.33400     0.00000  0.0
     95     87     88     96   5     0.00000    30.33400     0.00000  0.0
     87     88     89     84   5     0.00000    30.33400     0.00000  0.0
     87     88     89     97   5     0.00000    30.33400     0.00000  0.0
     96     88     89     84   5     0.00000    30.33400     0.00000  0.0
     96     88     89     97   5     0.00000    30.33400     0.00000  0.0
     83     98     99    100   5    -0.30962     3.11290    -3.95806  0.0
     83     98     99    108   5     0.00000     0.00000     1.25520  0.0
     83     98     99    114   5     4.74884    -0.63178     1.67360  0.0
    106     98     99    100   5     0.00000     0.00000     3.61498  0.0
    106     98     99    108   5     0.00000     0.00000     1.25520  0.0
    106     98     99    114   5     0.00000     0.00000     1.25520  0.0
    107     98     99    100   5     0.00000     0.00000     3.61498  0.0
    107     98     99    108   5     0.00000     0.00000     1.25520  0.0
    107     98     99    114   5     0.00000     0.00000     1.25520  0.0
     98     99    100    101   5     0.00000     0.34727     0.00000  0.0
     98     99    100    105   5     0.00000     0.34727     0.00000  0.0
    108     99    100    101   5     0.00000     0.00000     0.00000  0.0
    108     99    100    105   5     0.00000     0.00000     0.00000  0.0
    114     99    100    101   5     0.00000     0.34727     0.00000  0.0
    114     99    100    105   5     0.00000     0.34727     0.00000  0.0
     98     99    114    115   5     4.74884    -0.63178     1.67360  0.0
     98     99    114    122   5     0.00000     0.00000     1.25520  0.0
     98     99    114    123   5     0.00000     0.00000     1.25520  0.0
    100     99    114    115   5    -0.30962     3.11290    -3.95806  0.0
    100     99    114    122   5     0.00000     0.00000     3.61498  0.0
    100     99    114    123   5     0.00000     0.00000     3.61498  0.0
    108     99    114    115   5     0.00000     0.00000     1.25520  0.0
    108     99    114    122   5     0.00000     0.00000     1.25520  0.0
    108     99    114    123   5     0.00000     0.00000     1.25520  0.0
     99    100    101    102   5     0.00000    30.33400     0.00000  0.0
     99    100    101    109   5     0.00000    30.33400     0.00000  0.0
    105    100    101    102   5     0.00000    30.33400     0.00000  0.0
    105    100    101    109   5     0.00000    30.33400     0.00000  0.0
     99    100    105    104   5     0.00000    30.33400     0.00000  0.0
     99    100    105    113   5     0.00000    30.33400     0.00000  0.0
    101    100    105    104   5     0.00000    30.33400     0.00000  0.0
    101    100    105    113   5     0.00000    30.33400     0.00000  0.0
    100    101    102    103   5     0.00000    30.33400     0.00000  0.0
    100    101    102    110   5     0.00000    30.33400     0.00000  0.0
    109    101    102    103   5     0.00000    30.33400     0.00000  0.0
    109    101    102    110   5     0.00000    30.33400     0.00000  0.0
    101    102    103    104   5     0.00000    30.33400     0.00000  0.0
    101    102    103    111   5     0.00000    30.33400     0.00000  0.0
    110    102    103    104   5     0.00000    30.33400     0.00000  0.0
    110    102    103    111   5     0.00000    30.33400     0.00000  0.0
    102    103    104    105   5     0.00000    30.33400     0.00000  0.0
    102    103    104    112   5     0.00000    30.33400     0.00000  0.0
    111    103    104    105   5     0.00000    30.33400     0.00000  0.0
    111    103    104    112   5     0.00000    30.33400     0.00000  0.0
    103    104    105    100   5     0.00000    30.33400     0.00000  0.0
    103    104    105    113   5     0.00000    30.33400     0.00000  0.0
    112    104    105    100   5     0.00000    30.33400     0.00000  0.0
    112    104    105    113   5     0.00000    30.33400     0.00000  0.0
     99    114    115    116   5    -0.30962     3.11290    -3.95806  0.0
     99    114    115    124   5     0.00000     0.00000     1.25520  0.0
     99    114    115    130   5     4.74884    -0.63178     1.67360  0.0
    122    114    115    116   5     0.00000     0.00000     3.61498  0.0
    122    114    115    124   5     0.00000     0.00000     1.25520  0.0
    122    114    115    130   5     0.00000     0.00000     1.25520  0.0
    123    114    115    116   5     0.00000     0.00000     3.61498  0.0
    123    114    115    124   5     0.00000     0.00000     1.25520  0.0
    123    114    115    130   5     0.00000     0.00000     1.25520  0.0
    114    115    116    117   5     0.00000     0.34727     0.00000  0.0
    114    115    116    121   5     0.00000     0.34727     0.00000  0.0
    124    115    116    117   5     0.00000     0.00000     0.00000  0.0
    124    115    116    121   5     0.00000     0.00000     0.00000  0.0
    130    115    116    117   5     0.00000     0.34727     0.00000  0.0
    130    115    116    121   5     0.00000     0.34727     0.00000  0.0
    114    115    130    131   5     4.74884    -0.63178     1.67360  0.0
    114    115    130    138   5     0.00000     0.00000     1.25520  0.0
    114    115    130    139   5     0.00000     0.00000     1.25520  0.0
    116    115    130    131   5    -0.30962     3.11290    -3.95806  0.0
    116    115    130    138   5     0.00000     0.00000     3.61498  0.0
    116    115    130    139   5     0.00000     0.00000     3.61498  0.0
    124    115    130    131   5     0.00000     0.00000     1.25520  0.0
    124    115    130    138   5     0.00000     0.00000     1.25520  0.0
    124    115    130    139   5     0.00000     0.00000     1.25520  0.0
    115    116    117    118   5     0.00000    30.33400     0.00000  0.0
    115    116    117    125   5     0.00000    30.33400     0.00000  0.0
    121    116    117    118   5     0.00000    30.33400     0.00000  0.0
    121    116    117    125   5     0.00000    30.33400     0.00000  0.0
    115    116    121    120   5     0.00000    30.33400     0.00000  0.0
    115    116    121    129   5     0.00000    30.33400     0.00000  0.0
    117    116    121    120   5     0.00000    30.33400     0.00000  0.0
    117    116    121    129   5     0.00000    30.33400     0.00000  0.0
    116    117    118    119   5     0.00000    30.33400     0.00000  0.0
    116    117    118    126   5     0.00000    30.33400     0.00000  0.0
    125    117    118    119   5     0.00000    30.33400     0.00000  0.0
    125    117    118    126   5     0.00000    30.33400     0.00000  0.0
    117    118    119    120   5     0.00000    30.33400     0.00000  0.0
    117    118    119    127   5     0.00000    30.33400     0.00000  0.0
    126    118    119    120   5     0.00000    30.33400     0.00000  0.0
    126    118    119    127   5     0.00000    30.33400     0.00000  0.0
    118    119    120    121   5     0.00000    30.33400     0.00000  0.0
    118    119    120    128   5     0.00000    30.33400     0.00000  0.0
    127    119    120    121   5     0.00000    30.33400     0.00000  0.0
    127    119    120    128   5     0.00000    30.33400     0.00000  0.0
    119    120    121    116   5     0.00000    30.33400     0.00000  0.0
    119    120    121    129   5     0.00000    30.33400     0.00000  0.0
    128    120    121    116   5     0.00000    30.33400     0.00000  0.0
    128    120    121    129   5     0.00000    30.33400     0.00000  0.0
    115    130    131    132   5    -0.30962     3.11290    -3.95806  0.0
    115    130    131    140   5     0.00000     0.00000     1.25520  0.0
    115    130    131    146   5     4.74884    -0.63178     1.67360  0.0
    138    130    131    132   5     0.00000     0.00000     3.61498  0.0
    138    130    131    140   5     0.00000     0.00000     1.25520  0.0
    138    130    131    146   5     0.00000     0.00000     1.25520  0.0
    139    130    131    132   5     0.00000     0.00000     3.61498  0.0
    139    130    131    140   5     0.00000     0.00000     1.25520  0.0
    139    130    131    146   5     0.00000     0.00000     1.25520  0.0
    130    131    132    133   5     0.00000     0.34727     0.00000  0.0
    130    131    132    137   5     0.00000     0.34727     0.00000  0.0
    140    131    132    133   5     0.00000     0.00000     0.00000  0.0
    140    131    132    137   5     0.00000     0.00000     0.00000  0.0
    146    131    132    133   5     0.00000     0.34727     0.00000  0.0
    146    131    132    137   5     0.00000     0.34727     0.00000  0.0
    130    131    146    147   5     4.74884    -0.63178     1.67360  0.0
    130    131    146    154   5     0.00000     0.00000     1.25520  0.0
    130    131    146    155   5     0.00000     0.00000     1.25520  0.0
    132    131    146    147   5    -0.30962     3.11290    -3.95806  0.0
    132    131    146    154   5     0.00000     0.00000     3.61498  0.0
    132    131    146    155   5     0.00000     0.00000     3.61498  0.0
    140    131    146    147   5     0.00000     0.00000     1.25520  0.0
    140    131    146    154   5     0.00000     0.00000     1.25520  0.0
    140    131    146    155   5     0.00000     0.00000     1.25520  0.0
    131    132    133    134   5     0.00000    30.33400     0.00000  0.0
    131    132    133    141   5     0.00000    30.33400     0.00000  0.0
    137    132    133    134   5     0.00000    30.33400     0.00000  0.0
    137    132    133    141   5     0.00000    30.33400     0.00000  0.0
    131    132    137    136   5     0.00000    30.33400     0.00000  0.0
    131    132    137    145   5     0.00000    30.33400     0.00000  0.0
    133    132    137    136   5     0.00000    30.33400     0.00000  0.0
    133    132    137    145   5     0.00000    30.33400     0.00000  0.0
    132    133    134    135   5     0.00000    30.33400     0.00000  0.0
    132    133    134    142   5     0.00000    30.33400     0.00000  0.0
    141    133    134    135   5     0.00000    30.33400     0.00000  0.0
    141    133    134    142   5     0.00000    30.33400     0.00000  0.0
    133    134    135    136   5     0.00000    30.33400     0.00000  0.0
    133    134    135    143   5     0.00000    30.33400     0.00000  0.0
    142    134    135    136   5     0.00000    30.33400     0.00000  0.0
    142    134    135    143   5     0.00000    30.33400     0.00000  0.0
    134    135    136    137   5     0.00000    30.33400     0.00000  0.0
    134    135    136    144   5     0.00000    30.33400     0.00000  0.0
    143    135    136    137   5     0.00000    30.33400     0.00000  0.0
    143    135    136    144   5     0.00000    30.33400     0.00000  0.0
    135    136    137    132   5     0.00000    30.33400     0.00000  0.0
    135    136    137    145   5     0.00000    30.33400     0.00000  0.0
    144    136    137    132   5     0.00000    30.33400     0.00000  0.0
    144    136    137    145   5     0.00000    30.33400     0.00000  0.0
    131    146    147    148   5    -0.30962     3.11290    -3.95806  0.0
    131    146    147    156   5     0.00000     0.00000     1.25520  0.0
    131    146    147    162   5     4.74884    -0.63178     1.67360  0.0
    154    146    147    148   5     0.00000     0.00000     3.61498  0.0
    154    146    147    156   5     0.00000     0.00000     1.25520  0.0
    154    146    147    162   5     0.00000     0.00000     1.25520  0.0
    155    146    147    148   5     0.00000     0.00000     3.61498  0.0
    155    146    147    156   5     0.00000     0.00000     1.25520  0.0
    155    146    147    162   5     0.00000     0.00000     1.25520  0.0
    146    147    148    149   5     0.00000     0.34727     0.00000  0.0
    146    147    148    153   5     0.00000     0.34727     0.00000  0.0
    156    147    148    149   5     0.00000     0.00000     0.00000  0.0
    156    147    148    153   5     0.00000     0.00000     0.00000  0.0
    162    147    148    149   5     0.00000     0.34727     0.00000  0.0
    162    147    148    153   5     0.00000     0.34727     0.00000  0.0
    146    147    162    163   5     4.74884    -0.63178     1.67360  0.0
    146    147    162    170   5     0.00000     0.00000     1.25520  0.0
    146    147    162    171   5     0.00000     0.00000     1.25520  0.0
    148    147    162    163   5    -0.30962     3.11290    -3.95806  0.0
    148    147    162    170   5     0.00000     0.00000     3.61498  0.0
    148    147    162    171   5     0.00000     0.00000     3.61498  0.0
    156    147    162    163   5     0.00000     0.00000     1.25520  0.0
    156    147    162    170   5     0.00000     0.00000     1.25520  0.0
    156    147    162    171   5     0.00000     0.00000     1.25520  0.0
    147    148    149    150   5     0.00000    30.33400     0.00000  0.0
    147    148    149    157   5     0.00000    30.33400     0.00000  0.0
    153    148    149    150   5     0.00000    30.33400     0.00000  0.0
    153    148    149    157   5     0.00000    30.33400     0.00000  0.0
    147    148    153    152   5     0.00000    30.33400     0.00000  0.0
    147    148    153    161   5     0.00000    30.33400     0.00000  0.0
    149    148    153    152   5     0.00000    30.33400     0.00000  0.0
    149    148    153    161   5     0.00000    30.33400     0.00000  0.0
    148    149    150    151   5     0.00000    30.33400     0.00000  0.0
    148    149    150    158   5     0.00000    30.33400     0.00000  0.0
    157    149    150    151   5     0.00000    30.33400     0.00000  0.0
    157    149    150    158   5     0.00000    30.33400     0.00000  0.0
    149    150    151    152   5     0.00000    30.33400     0.00000  0.0
    149    150    151    159   5     0.00000    30.33400     0.00000  0.0
    158    150    151    152   5     0.00000    30.33400     0.00000  0.0
    158    150    151    159   5     0.00000    30.33400     0.00000  0.0
    150    151    152    153   5     0.00000    30.33400     0.00000  0.0
    150    151    152    160   5     0.00000    30.33400     0.00000  0.0
    159    151    152    153   5     0.00000    30.33400     0.00000  0.0
    159    151    152    160   5     0.00000    30.33400     0.00000  0.0
    151    152    153    148   5     0.00000    30.33400     0.00000  0.0
    151    152    153    161   5     0.00000    30.33400     0.00000  0.0
    160    152    153    148   5     0.00000    30.33400     0.00000  0.0
    160    152    153    161   5     0.00000    30.33400     0.00000  0.0
    147    162    163    164   5    -0.30962     3.11290    -3.95806  0.0
    147    162    163    172   5     0.00000     0.00000     1.25520  0.0
    147    162    163    178   5     4.74884    -0.63178     1.67360  0.0
    170    162    163    164   5     0.00000     0.00000     3.61498  0.0
    170    162    163    172   5     0.00000     0.00000     1.25520  0.0
    170    162    163    178   5     0.00000     0.00000     1.25520  0.0
    171    162    163    164   5     0.00000     0.00000     3.61498  0.0
    171    162    163    172   5     0.00000     0.00000     1.25520  0.0
    171    162    163    178   5     0.00000     0.00000     1.25520  0.0
    162    163    164    165   5     0.00000     0.34727     0.00000  0.0
    162    163    164    169   5     0.00000     0.34727     0.00000  0.0
    172    163    164    165   5     0.00000     0.00000     0.00000  0.0
    172    163    164    169   5     0.00000     0.00000     0.00000  0.0
    178    163    164    165   5     0.00000     0.34727     0.00000  0.0
    178    163    164    169   5     0.00000     0.34727     0.00000  0.0
    162    163    178    179   5     4.74884    -0.63178     1.67360  0.0
    162    163    178    186   5     0.00000     0.00000     1.25520  0.0
    162    163    178    187   5     0.00000     0.00000     1.25520  0.0
    164    163    178    179   5    -0.30962     3.11290    -3.95806  0.0
    164    163    178    186   5     0.00000     0.00000     3.61498  0.0
    164    163    178    187   5     0.00000     0.00000     3.61498  0.0
    172    163    178    179   5     0.00000     0.00000     1.25520  0.0
    172    163    178    186   5     0.00000     0.00000     1.25520  0.0
    172    163    178    187   5     0.00000     0.00000     1.25520  0.0
    163    164    165    166   5     0.00000    30.33400     0.00000  0.0
    163    164    165    173   5     0.00000    30.33400     0.00000  0.0
    169    164    165    166   5     0.00000    30.33400     0.00000  0.0
    169    164    165    173   5     0.00000    30.33400     0.00000  0.0
    163    164    169    168   5     0.00000    30.33400     0.00000  0.0
    163    164    169    177   5     0.00000    30.33400     0.00000  0.0
    165    164    169    168   5     0.00000    30.33400     0.00000  0.0
    165    164    169    177   5     0.00000    30.33400     0.00000  0.0
    164    165    166    167   5     0.00000    30.33400     0.00000  0.0
    164    165    166    174   5     0.00000    30.33400     0.00000  0.0
    173    165    166    167   5     0.00000    30.33400     0.00000  0.0
    173    165    166    174   5     0.00000    30.33400     0.00000  0.0
    165    166    167    168   5     0.00000    30.33400     0.00000  0.0
    165    166    167    175   5     0.00000    30.33400     0.00000  0.0
    174    166    167    168   5     0.00000    30.33400     0.00000  0.0
    174    166    167    175   5     0.00000    30.33400     0.00000  0.0
    166    167    168    169   5     0.00000    30.33400     0.00000  0.0
    166    167    168    176   5     0.00000    30.33400     0.00000  0.0
    175    167    168    169   5     0.00000    30.33400     0.00000  0.0
    175    167    168    176   5     0.00000    30.33400     0.00000  0.0
    167    168    169    164   5     0.00000    30.33400     0.00000  0.0
    167    168    169    177   5     0.00000    30.33400     0.00000  0.0
    176    168    169    164   5     0.00000    30.33400     0.00000  0.0
    176    168    169    177   5     0.00000    30.33400     0.00000  0.0
    163    178    179    180   5    -0.30962     3.11290    -3.95806  0.0
    163    178    179    188   5     0.00000     0.00000     1.25520  0.0
    163    178    179    194   5     4.74884    -0.63178     1.67360  0.0
    186    178    179    180   5     0.00000     0.00000     3.61498  0.0
    186    178    179    188   5     0.00000     0.00000     1.25520  0.0
    186    178    179    194   5     0.00000     0.00000     1.25520  0.0
    187    178    179    180   5     0.00000     0.00000     3.61498  0.0
    187    178    179    188   5     0.00000     0.00000     1.25520  0.0
    187    178    179    194   5     0.00000     0.00000     1.25520  0.0
    178    179    180    181   5     0.00000     0.34727     0.00000  0.0
    178    179    180    185   5     0.00000     0.34727     0.00000  0.0
    188    179    180    181   5     0.00000     0.00000     0.00000  0.0
    188    179    180    185   5     0.00000     0.00000     0.00000  0.0
    194    179    180    181   5     0.00000     0.34727     0.00000  0.0
    194    179    180    185   5     0.00000     0.34727     0.00000  0.0
    178    179    194    195   5     4.74884    -0.63178     1.67360  0.0
    178    179    194    202   5     0.00000     0.00000     1.25520  0.0
    178    179    194    203   5     0.00000     0.00000     1.25520  0.0
    180    179    194    195   5    -0.30962     3.11290    -3.95806  0.0
    180    179    194    202   5     0.00000     0.00000     3.61498  0.0
    180    179    194    203   5     0.00000     0.00000     3.61498  0.0
    188    179    194    195   5     0.00000     0.00000     1.25520  0.0
    188    179    194    202   5     0.00000     0.00000     1.25520  0.0
    188    179    194    203   5     0.00000     0.00000     1.25520  0.0
    179    180    181    182   5     0.00000    30.33400     0.00000  0.0
    179    180    181    189   5     0.00000    30.33400     0.00000  0.0
    185    180    181    182   5     0.00000    30.33400     0.00000  0.0
    185    180    181    189   5     0.00000    30.33400     0.00000  0.0
    179    180    185    184   5     0.00000    30.33400     0.00000  0.0
    179    180    185    193   5     0.00000    30.33400     0.00000  0.0
    181    180    185    184   5     0.00000    30.33400     0.00000  0.0
    181    180    185    193   5     0.00000    30.33400     0.00000  0.0
    180    181    182    183   5     0.00000    30.33400     0.00000  0.0
    180    181    182    190   5     0.00000    30.33400     0.00000  0.0
    189    181    182    183   5     0.00000    30.33400     0.00000  0.0
    189    181    182    190   5     0.00000    30.33400     0.00000  0.0
    181    182    183    184   5     0.00000    30.33400     0.00000  0.0
    181    182    183    191   5     0.00000    30.33400     0.00000  0.0
    190    182    183    184   5     0.00000    30.33400     0.00000  0.0
    190    182    183    191   5     0.00000    30.33400     0.00000  0.0
    182    183    184    185   5     0.00000    30.33400     0.00000  0.0
    182    183    184    192   5     0.00000    30.33400     0.00000  0.0
    191    183    184    185   5     0.00000    30.33400     0.00000  0.0
    191    183    184    192   5     0.00000    30.33400     0.00000  0.0
    183    184    185    180   5     0.00000    30.33400     0.00000  0.0
    183    184    185    193   5     0.00000    30.33400     0.00000  0.0
    192    184    185    180   5     0.00000    30.33400     0.00000  0.0
    192    184    185    193   5     0.00000    30.33400     0.00000  0.0
    179    194    195    196   5    -0.30962     3.11290    -3.95806  0.0
    179    194    195    204   5     0.00000     0.00000     1.25520  0.0
    179    194    195    210   5     4.74884    -0.63178     1.67360  0.0
    202    194    195    196   5     0.00000     0.00000     3.61498  0.0
    202    194    195    204   5     0.00000     0.00000     1.25520  0.0
    202    194    195    210   5     0.00000     0.00000     1.25520  0.0
    203    194    195    196   5     0.00000     0.00000     3.61498  0.0
    203    194    195    204   5     0.00000     0.00000     1.25520  0.0
    203    194    195    210   5     0.00000     0.00000     1.25520  0.0
    194    195    196    197   5     0.00000     0.34727     0.00000  0.0
    194    195    196    201   5     0.00000     0.34727     0.00000  0.0
    204    195    196    197   5     0.00000     0.00000     0.00000  0.0
    204    195    196    201   5     0.00000     0.00000     0.00000  0.0
    210    195    196    197   5     0.00000     0.34727     0.00000  0.0
    210    195    196    201   5     0.00000     0.34727     0.00000  0.0
    194    195    210    211   5     4.74884    -0.63178     1.67360  0.0
    194    195    210    218   5     0.00000     0.00000     1.25520  0.0
    194    195    210    219   5     0.00000     0.00000     1.25520  0.0
    196    195    210    211   5    -0.30962     3.11290    -3.95806  0.0
    196    195    210    218   5     0.00000     0.00000     3.61498  0.0
    196    195    210    219   5     0.00000     0.00000     3.61498  0.0
    204    195    210    211   5     0.00000     0.00000     1.25520  0.0
    204    195    210    218   5     0.00000     0.00000     1.25520  0.0
    204    195    210    219   5     0.00000     0.00000     1.25520  0.0
    195    196    197    198   5     0.00000    30.33400     0.00000  0.0
    195    196    197    205   5     0.00000    30.33400     0.00000  0.0
    201    196    197    198   5     0.00000    30.33400     0.00000  0.0
    201    196    197    205   5     0.00000    30.33400     0.00000  0.0
    195    196    201    200   5     0.00000    30.33400     0.00000  0.0
    195    196    201    209   5     0.00000    30.33400     0.00000  0.0
    197    196    201    200   5     0.00000    30.33400     0.00000  0.0
    197    196    201    209   5     0.00000    30.33400     0.00000  0.0
    196    197    198    199   5     0.00000    30.33400     0.00000  0.0
    196    197    198    206   5     0.00000    30.33400     0.00000  0.0
    205    197    198    199   5     0.00000    30.33400     0.00000  0.0
    205    197    198    206   5     0.00000    30.33400     0.00000  0.0
    197    198    199    200   5     0.00000    30.33400     0.00000  0.0
    197    198    199    207   5     0.00000    30.33400     0.00000  0.0
    206    198    199    200   5     0.00000    30.33400     0.00000  0.0
    206    198    199    207   5     0.00000    30.33400     0.00000  0.0
    198    199    200    201   5     0.00000    30.33400     0.00000  0.0
    198    199    200    208   5     0.00000    30.33400     0.00000  0.0
    207    199    200    201   5     0.00000    30.33400     0.00000  0.0
    207    199    200    208   5     0.00000    30.33400     0.00000  0.0
    199    200    201    196   5     0.00000    30.33400     0.00000  0.0
    199    200    201    209   5     0.00000    30.33400     0.00000  0.0
    208    200    201    196   5     0.00000    30.33400     0.00000  0.0
    208    200    201    209   5     0.00000    30.33400     0.00000  0.0
    195    210    211    212   5    -0.30962     3.11290    -3.95806  0.0
    195    210    211    220   5     0.00000     0.00000     1.25520  0.0
    195    210    211    226   5     4.74884    -0.63178     1.67360  0.0
    218    210    211    212   5     0.00000     0.00000     3.61498  0.0
    218    210    211    220   5     0.00000     0.00000     1.25520  0.0
    218    210    211    226   5     0.00000     0.00000     1.25520  0.0
    219    210    211    212   5     0.00000     0.00000     3.61498  0.0
    219    210    211    220   5     0.00000     0.00000     1.25520  0.0
    219    210    211    226   5     0.00000     0.00000     1.25520  0.0
    210    211    212    213   5     0.00000     0.34727     0.00000  0.0
    210    211    212    217   5     0.00000     0.34727     0.00000  0.0
    220    211    212    213   5     0.00000     0.00000     0.00000  0.0
    220    211    212    217   5     0.00000     0.00000     0.00000  0.0
    226    211    212    213   5     0.00000     0.34727     0.00000  0.0
    226    211    212    217   5     0.00000     0.34727     0.00000  0.0
    210    211    226    227   5     4.74884    -0.63178     1.67360  0.0
    210    211    226    234   5     0.00000     0.00000     1.25520  0.0
    210    211    226    235   5     0.00000     0.00000     1.25520  0.0
    212    211    226    227   5    -0.30962     3.11290    -3.95806  0.0
    212    211    226    234   5     0.00000     0.00000     3.61498  0.0
    212    211    226    235   5     0.00000     0.00000     3.61498  0.0
    220    211    226    227   5     0.00000     0.00000     1.25520  0.0
    220    211    226    234   5     0.00000     0.00000     1.25520  0.0
    220    211    226    235   5     0.00000     0.00000     1.25520  0.0
    211    212    213    214   5     0.00000    30.33400     0.00000  0.0
    211    212    213    221   5     0.00000    30.33400     0.00000  0.0
    217    212    213    214   5     0.00000    30.33400     0.00000  0.0
    217    212    213    221   5     0.00000    30.33400     0.00000  0.0
    211    212    217    216   5     0.00000    30.33400     0.00000  0.0
    211    212    217    225   5     0.00000    30.33400     0.00000  0.0
    213    212    217    216   5     0.00000    30.33400     0.00000  0.0
    213    212    217    225   5     0.00000    30.33400     0.00000  0.0
    212    213    214    215   5     0.00000    30.33400     0.00000  0.0
    212    213    214    222   5     0.00000    30.33400     0.00000  0.0
    221    213    214    215   5     0.00000    30.33400     0.00000  0.0
    221    213    214    222   5     0.00000    30.33400     0.00000  0.0
    213    214    215    216   5     0.00000    30.33400     0.00000  0.0
    213    214    215    223   5     0.00000    30.33400     0.00000  0.0
    222    214    215    216   5     0.00000    30.33400     0.00000  0.0
    222    214    215    223   5     0.00000    30.33400     0.00000  0.0
    214    215    216    217   5     0.00000    30.33400     0.00000  0.0
    214    215    216    224   5     0.00000    30.33400     0.00000  0.0
    223    215    216    217   5     0.00000    30.33400     0.00000  0.0
    223    215    216    224   5     0.00000    30.33400     0.00000  0.0
    215    216    217    212   5     0.00000    30.33400     0.00000  0.0
    215    216    217    225   5     0.00000    30.33400     0.00000  0.0
    224    216    217    212   5     0.00000    30.33400     0.00000  0.0
    224    216    217    225   5     0.00000    30.33400     0.00000  0.0
    211    226    227    228   5    -0.30962     3.11290    -3.95806  0.0
    211    226    227    236   5     0.00000     0.00000     1.25520  0.0
    211    226    227    242   5     4.74884    -0.63178     1.67360  0.0
    234    226    227    228   5     0.00000     0.00000     3.61498  0.0
    234    226    227    236   5     0.00000     0.00000     1.25520  0.0
    234    226    227    242   5     0.00000     0.00000     1.25520  0.0
    235    226    227    228   5     0.00000     0.00000     3.61498  0.0
    235    226    227    236   5     0.00000     0.00000     1.25520  0.0
    235    226    227    242   5     0.00000     0.00000     1.25520  0.0
    226    227    228    229   5     0.00000     0.34727     0.00000  0.0
    226    227    228    233   5     0.00000     0.34727     0.00000  0.0
    236    227    228    229   5     0.00000     0.00000     0.00000  0.0
    236    227    228    233   5     0.00000     0.00000     0.00000  0.0
    242    227    228    229   5     0.00000     0.34727     0.00000  0.0
    242    227    228    233   5     0.00000     0.34727     0.00000  0.0
    226    227    242    243   5     4.74884    -0.63178     1.67360  0.0
    226    227    242    250   5     0.00000     0.00000     1.25520  0.0
    226    227    242    251   5     0.00000     0.00000     1.25520  0.0
    228    227    242    243   5    -0.30962     3.11290    -3.95806  0.0
    228    227    242    250   5     0.00000     0.00000     3.61498  0.0
    228    227    242    251   5     0.00000     0.00000     3.61498  0.0
    236    227    242    243   5     0.00000     0.00000     1.25520  0.0
    236    227    242    250   5     0.00000     0.00000     1.25520  0.0
    236    227    242    251   5     0.00000     0.00000     1.25520  0.0
    227    228    229    230   5     0.00000    30.33400     0.00000  0.0
    227    228    229    237   5     0.00000    30.33400     0.00000  0.0
    233    228    229    230   5     0.00000    30.33400     0.00000  0.0
    233    228    229    237   5     0.00000    30.33400     0.00000  0.0
    227    228    233    232   5     0.00000    30.33400     0.00000  0.0
    227    228    233    241   5     0.00000    30.33400     0.00000  0.0
    229    228    233    232   5     0.00000    30.33400     0.00000  0.0
    229    228    233    241   5     0.00000    30.33400     0.00000  0.0
    228    229    230    231   5     0.00000    30.33400     0.00000  0.0
    228    229    230    238   5     0.00000    30.33400     0.00000  0.0
    237    229    230    231   5     0.00000    30.33400     0.00000  0.0
    237    229    230    238   5     0.00000    30.33400     0.00000  0.0
    229    230    231    232   5     0.00000    30.33400     0.00000  0.0
    229    230    231    239   5     0.00000    30.33400     0.00000  0.0
    238    230    231    232   5     0.00000    30.33400     0.00000  0.0
    238    230    231    239   5     0.00000    30.33400     0.00000  0.0
    230    231    232    233   5     0.00000    30.33400     0.00000  0.0
    230    231    232    240   5     0.00000    30.33400     0.00000  0.0
    239    231    232    233   5     0.00000    30.33400     0.00000  0.0
    239    231    232    240   5     0.00000    30.33400     0.00000  0.0
    231    232    233    228   5     0.00000    30.33400     0.00000  0.0
    231    232    233    241   5     0.00000    30.33400     0.00000  0.0
    240    232    233    228   5     0.00000    30.33400     0.00000  0.0
    240    232    233    241   5     0.00000    30.33400     0.00000  0.0
    227    242    243    244   5    -0.30962     3.11290    -3.95806  0.0
    227    242    243    252   5     0.00000     0.00000     1.25520  0.0
    227    242    243    258   5     4.74884    -0.63178     1.67360  0.0
    250    242    243    244   5     0.00000     0.00000     3.61498  0.0
    250    242    243    252   5     0.00000     0.00000     1.25520  0.0
    250    242    243    258   5     0.00000     0.00000     1.25520  0.0
    251    242    243    244   5     0.00000     0.00000     3.61498  0.0
    251    242    243    252   5     0.00000     0.00000     1.25520  0.0
    251    242    243    258   5     0.00000     0.00000     1.25520  0.0
    242    243    244    245   5     0.00000     0.34727     0.00000  0.0
    242    243    244    249   5     0.00000     0.34727     0.00000  0.0
    252    243    244    245   5     0.00000     0.00000     0.00000  0.0
    252    243    244    249   5     0.00000     0.00000     0.00000  0.0
    258    243    244    245   5     0.00000     0.34727     0.00000  0.0
    258    243    244    249   5     0.00000     0.34727     0.00000  0.0
    242    243    258    259   5     4.74884    -0.63178     1.67360  0.0
    242    243    258    266   5     0.00000     0.00000     1.25520  0.0
    242    243    258    267   5     0.00000     0.00000     1.25520  0.0
    244    243    258    259   5    -0.30962     3.11290    -3.95806  0.0
    244    243    258    266   5     0.00000     0.00000     3.61498  0.0
    244    243    258    267   5     0.00000     0.00000     3.61498  0.0
    252    243    258    259   5     0.00000     0.00000     1.25520  0.0
    252    243    258    266   5     0.00000     0.00000     1.25520  0.0
    252    243    258    267   5     0.00000     0.00000     1.25520  0.0
    243    244    245    246   5     0.00000    30.33400     0.00000  0.0
    243    244    245    253   5     0.00000    30.33400     0.00000  0.0
    249    244    245    246   5     0.00000    30.33400     0.00000  0.0
    249    244    245    253   5     0.00000    30.33400     0.00000  0.0
    243    244    249    248   5     0.00000    30.33400     0.00000  0.0
    243    244    249    257   5     0.00000    30.33400     0.00000  0.0
    245    244    249    248   5     0.00000    30.33400     0.00000  0.0
    245    244    249    257   5     0.00000    30.33400     0.00000  0.0
    244    245    246    247   5     0.00000    30.33400     0.00000  0.0
    244    245    246    254   5     0.00000    30.33400     0.00000  0.0
    253    245    246    247   5     0.00000    30.33400     0.00000  0.0
    253    245    246    254   5     0.00000    30.33400     0.00000  0.0
    245    246    247    248   5     0.00000    30.33400     0.00000  0.0
    245    246    247    255   5     0.00000    30.33400     0.00000  0.0
    254    246    247    248   5     0.00000    30.33400     0.00000  0.0
    254    246    247    255   5     0.00000    30.33400     0.00000  0.0
    246    247    248    249   5     0.00000    30.33400     0.00000  0.0
    246    247    248    256   5     0.00000    30.33400     0.00000  0.0
    255    247    248    249   5     0.00000    30.33400     0.00000  0.0
    255    247    248    256   5     0.00000    30.33400     0.00000  0.0
    247    248    249    244   5     0.00000    30.33400     0.00000  0.0
    247    248    249    257   5     0.00000    30.33400     0.00000  0.0
    256    248    249    244   5     0.00000    30.33400     0.00000  0.0
    256    248    249    257   5     0.00000    30.33400     0.00000  0.0
    243    258    259    260   5    -0.30962     3.11290    -3.95806  0.0
    243    258    259    268   5     0.00000     0.00000     1.25520  0.0
    243    258    259    274   5     4.74884    -0.63178     1.67360  0.0
    266    258    259    260   5     0.00000     0.00000     3.61498  0.0
    266    258    259    268   5     0.00000     0.00000     1.25520  0.0
    266    258    259    274   5     0.00000     0.00000     1.25520  0.0
    267    258    259    260   5     0.00000     0.00000     3.61498  0.0
    267    258    259    268   5     0.00000     0.00000     1.25520  0.0
    267    258    259    274   5     0.00000     0.00000     1.25520  0.0
    258    259    260    261   5     0.00000     0.34727     0.00000  0.0
    258    259    260    265   5     0.00000     0.34727     0.00000  0.0
    268    259    260    261   5     0.00000     0.00000     0.00000  0.0
    268    259    260    265   5     0.00000     0.00000     0.00000  0.0
    274    259    260    261   5     0.00000     0.34727     0.00000  0.0
    274    259    260    265   5     0.00000     0.34727     0.00000  0.0
    258    259    274    275   5     4.74884    -0.63178     1.67360  0.0
    258    259    274    282   5     0.00000     0.00000     1.25520  0.0
    258    259    274    283   5     0.00000     0.00000     1.25520  0.0
    260    259    274    275   5    -0.30962     3.11290    -3.95806  0.0
    260    259    274    282   5     0.00000     0.00000     3.61498  0.0
    260    259    274    283   5     0.00000     0.00000     3.61498  0.0
    268    259    274    275   5     0.00000     0.00000     1.25520  0.0
    268    259    274    282   5     0.00000     0.00000     1.25520  0.0
    268    259    274    283   5     0.00000     0.00000     1.25520  0.0
    259    260    261    262   5     0.00000    30.33400     0.00000  0.0
    259    260    261    269   5     0.00000    30.33400     0.00000  0.0
    265    260    261    262   5     0.00000    30.33400     0.00000  0.0
    265    260    261    269   5     0.00000    30.33400     0.00000  0.0
    259    260    265    264   5     0.00000    30.33400     0.00000  0.0
    259    260    265    273   5     0.00000    30.33400     0.00000  0.0
    261    260    265    264   5     0.00000    30.33400     0.00000  0.0
    261    260    265    273   5     0.00000    30.33400     0.00000  0.0
    260    261    262    263   5     0.00000    30.33400     0.00000  0.0
    260    261    262    270   5     0.00000    30.33400     0.00000  0.0
    269    261    262    263   5     0.00000    30.33400     0.00000  0.0
    269    261    262    270   5     0.00000    30.33400     0.00000  0.0
    261    262    263    264   5     0.00000    30.33400     0.00000  0.0
    261    262    263    271   5     0.00000    30.33400     0.00000  0.0
    270    262    263    264   5     0.00000    30.33400     0.00000  0.0
    270    262    263    271   5     0.00000    30.33400     0.00000  0.0
    262    263    264    265   5     0.00000    30.33400     0.00000  0.0
    262    263    264    272   5     0.00000    30.33400     0.00000  0.0
    271    263    264    265   5     0.00000    30.33400     0.00000  0.0
    271    263    264    272   5     0.00000    30.33400     0.00000  0.0
    263    264    265    260   5     0.00000    30.33400     0.00000  0.0
    263    264    265    273   5     0.00000    30.33400     0.00000  0.0
    272    264    265    260   5     0.00000    30.33400     0.00000  0.0
    272    264    265    273   5     0.00000    30.33400     0.00000  0.0
    259    274    275    276   5    -0.30962     3.11290    -3.95806  0.0
    259    274    275    284   5     0.00000     0.00000     1.25520  0.0
    259    274    275    290   5     4.74884    -0.63178     1.67360  0.0
    282    274    275    276   5     0.00000     0.00000     3.61498  0.0
    282    274    275    284   5     0.00000     0.00000     1.25520  0.0
    282    274    275    290   5     0.00000     0.00000     1.25520  0.0
    283    274    275    276   5     0.00000     0.00000     3.61498  0.0
    283    274    275    284   5     0.00000     0.00000     1.25520  0.0
    283    274    275    290   5     0.00000     0.00000     1.25520  0.0
    274    275    276    277   5     0.00000     0.34727     0.00000  0.0
    274    275    276    281   5     0.00000     0.34727     0.00000  0.0
    284    275    276    277   5     0.00000     0.00000     0.00000  0.0
    284    275    276    281   5     0.00000     0.00000     0.00000  0.0
    290    275    276    277   5     0.00000     0.34727     0.00000  0.0
    290    275    276    281   5     0.00000     0.34727     0.00000  0.0
    274    275    290    291   5     4.74884    -0.63178     1.67360  0.0
    274    275    290    298   5     0.00000     0.00000     1.25520  0.0
    274    275    290    299   5     0.00000     0.00000     1.25520  0.0
    276    275    290    291   5    -0.30962     3.11290    -3.95806  0.0
    276    275    290    298   5     0.00000     0.00000     3.61498  0.0
    276    275    290    299   5     0.00000     0.00000     3.61498  0.0
    284    275    290    291   5     0.00000     0.00000     1.25520  0.0
    284    275    290    298   5     0.00000     0.00000     1.25520  0.0
    284    275    290    299   5     0.00000     0.00000     1.25520  0.0
    275    276    277    278   5     0.00000    30.33400     0.00000  0.0
    275    276    277    285   5     0.00000    30.33400     0.00000  0.0
    281    276    277    278   5     0.00000    30.33400     0.00000  0.0
    281    276    277    285   5     0.00000    30.33400     0.00000  0.0
    275    276    281    280   5     0.00000    30.33400     0.00000  0.0
    275    276    281    289   5     0.00000    30.33400     0.00000  0.0
    277    276    281    280   5     0.00000    30.33400     0.00000  0.0
    277    276    281    289   5     0.00000    30.33400     0.00000  0.0
    276    277    278    279   5     0.00000    30.33400     0.00000  0.0
    276    277    278    286   5     0.00000    30.33400     0.00000  0.0
    285    277    278    279   5     0.00000    30.33400     0.00000  0.0
    285    277    278    286   5     0.00000    30.33400     0.00000  0.0
    277    278    279    280   5     0.00000    30.33400     0.00000  0.0
    277    278    279    287   5     0.00000    30.33400     0.00000  0.0
    286    278    279    280   5     0.00000    30.33400     0.00000  0.0
    286    278    279    287   5     0.00000    30.33400     0.00000  0.0
    278    279    280    281   5     0.00000    30.33400     0.00000  0.0
    278    279    280    288   5     0.00000    30.33400     0.00000  0.0
    287    279    280    281   5     0.00000    30.33400     0.00000  0.0
    287    279    280    288   5     0.00000    30.33400     0.00000  0.0
    279    280    281    276   5     0.00000    30.33400     0.00000  0.0
    279    280    281    289   5     0.00000    30.33400     0.00000  0.0
    288    280    281    276   5     0.00000    30.33400     0.00000  0.0
    288    280    281    289   5     0.00000    30.33400     0.00000  0.0
    275    290    291    292   5    -0.30962     3.11290    -3.95806  0.0
    275    290    291    300   5     0.00000     0.00000     1.25520  0.0
    275    290    291    306   5     4.74884    -0.63178     1.67360  0.0
    298    290    291    292   5     0.00000     0.00000     3.61498  0.0
    298    290    291    300   5     0.00000     0.00000     1.25520  0.0
    298    290    291    306   5     0.00000     0.00000     1.25520  0.0
    299    290    291    292   5     0.00000     0.00000     3.61498  0.0
    299    290    291    300   5     0.00000     0.00000     1.25520  0.0
    299    290    291    306   5     0.00000     0.00000     1.25520  0.0
    290    291    292    293   5     0.00000     0.34727     0.00000  0.0
    290    291    292    297   5     0.00000     0.34727     0.00000  0.0
    300    291    292    293   5     0.00000     0.00000     0.00000  0.0
    300    291    292    297   5     0.00000     0.00000     0.00000  0.0
    306    291    292    293   5     0.00000     0.34727     0.00000  0.0
    306    291    292    297   5     0.00000     0.34727     0.00000  0.0
    290    291    306    307   5     4.74884    -0.63178     1.67360  0.0
    290    291    306    314   5     0.00000     0.00000     1.25520  0.0
    290    291    306    315   5     0.00000     0.00000     1.25520  0.0
    292    291    306    307   5    -0.30962     3.11290    -3.95806  0.0
    292    291    306    314   5     0.00000     0.00000     3.61498  0.0
    292    291    306    315   5     0.00000     0.00000     3.61498  0.0
    300    291    306    307   5     0.00000     0.00000     1.25520  0.0
    300    291    306    314   5     0.00000     0.00000     1.25520  0.0
    300    291    306    315   5     0.00000     0.00000     1.25520  0.0
    291    292    293    294   5     0.00000    30.33400     0.00000  0.0
    291    292    293    301   5     0.00000    30.33400     0.00000  0.0
    297    292    293    294   5     0.00000    30.33400     0.00000  0.0
    297    292    293    301   5     0.00000    30.33400     0.00000  0.0
    291    292    297    296   5     0.00000    30.33400     0.00000  0.0
    291    292    297    305   5     0.00000    30.33400     0.00000  0.0
    293    292    297    296   5     0.00000    30.33400     0.00000  0.0
    293    292    297    305   5     0.00000    30.33400     0.00000  0.0
    292    293    294    295   5     0.00000    30.33400     0.00000  0.0
    292    293    294    302   5     0.00000    30.33400     0.00000  0.0
    301    293    294    295   5     0.00000    30.33400     0.00000  0.0
    301    293    294    302   5     0.00000    30.33400     0.00000  0.0
    293    294    295    296   5     0.00000    30.33400     0.00000  0.0
    293    294    295    303   5     0.00000    30.33400     0.00000  0.0
    302    294    295    296   5     0.00000    30.33400     0.00000  0.0
    302    294    295    303   5     0.00000    30.33400     0.00000  0.0
    294    295    296    297   5     0.00000    30.33400     0.00000  0.0
    294    295    296    304   5     0.00000    30.33400     0.00000  0.0
    303    295    296    297   5     0.00000    30.33400     0.00000  0.0
    303    295    296    304   5     0.00000    30.33400     0.00000  0.0
    295    296    297    292   5     0.00000    30.33400     0.00000  0.0
    295    296    297    305   5     0.00000    30.33400     0.00000  0.0
    304    296    297    292   5     0.00000    30.33400     0.00000  0.0
    304    296    297    305   5     0.00000    30.33400     0.00000  0.0
    291    306    307    308   5    -0.30962     3.11290    -3.95806  0.0
    291    306    307    316   5     0.00000     0.00000     1.25520  0.0
    291    306    307    322   5     0.00000     0.00000     1.25520  0.0
    314    306    307    308   5     0.00000     0.00000     3.61498  0.0
    314    306    307    316   5     0.00000     0.00000     1.25520  0.0
    314    306    307    322   5     0.00000     0.00000     1.25520  0.0
    315    306    307    308   5     0.00000     0.00000     3.61498  0.0
    315    306    307    316   5     0.00000     0.00000     1.25520  0.0
    315    306    307    322   5     0.00000     0.00000     1.25520  0.0
    306    307    308    309   5     0.00000     0.34727     0.00000  0.0
    306    307    308    313   5     0.00000     0.34727     0.00000  0.0
    316    307    308    309   5     0.00000     0.00000     0.00000  0.0
    316    307    308    313   5     0.00000     0.00000     0.00000  0.0
    322    307    308    309   5     0.00000     0.00000     0.00000  0.0
    322    307    308    313   5     0.00000     0.00000     0.00000  0.0
    307    308    309    310   5     0.00000    30.33400     0.00000  0.0
    307    308    309    317   5     0.00000    30.33400     0.00000  0.0
    313    308    309    310   5     0.00000    30.33400     0.00000  0.0
    313    308    309    317   5     0.00000    30.33400     0.00000  0.0
    307    308    313    312   5     0.00000    30.33400     0.00000  0.0
    307    308    313    321   5     0.00000    30.33400     0.00000  0.0
    309    308    313    312   5     0.00000    30.33400     0.00000  0.0
    309    308    313    321   5     0.00000    30.33400     0.00000  0.0
    308    309    310    311   5     0.00000    30.33400     0.00000  0.0
    308    309    310    318   5     0.00000    30.33400     0.00000  0.0
    317    309    310    311   5     0.00000    30.33400     0.00000  0.0
    317    309    310    318   5     0.00000    30.33400     0.00000  0.0
    309    310    311    312   5     0.00000    30.33400     0.00000  0.0
    309    310    311    319   5     0.00000    30.33400     0.00000  0.0
    318    310    311    312   5     0.00000    30.33400     0.00000  0.0
    318    310    311    319   5     0.00000    30.33400     0.00000  0.0
    310    311    312    313   5     0.00000    30.33400     0.00000  0.0
    310    311    312    320   5     0.00000    30.33400     0.00000  0.0
    319    311    312    313   5     0.00000    30.33400     0.00000  0.0
    319    311    312    320   5     0.00000    30.33400     0.00000  0.0
    311    312    313    308   5     0.00000    30.33400     0.00000  0.0
    311    312    313    321   5     0.00000    30.33400     0.00000  0.0
    320    312    313    308   5     0.00000    30.33400     0.00000  0.0
    320    312    313    321   5     0.00000    30.33400     0.00000  0.0

[ dihedrals ]
; Improper dihedrals
; h   i   j   k   funct
      2      4      3      8   5     0.00000    33.47200     0.00000  0.0
      3      5      4     12   5     0.00000     9.20480     0.00000  0.0
      4      6      5     13   5     0.00000     9.20480     0.00000  0.0
      5      7      6     14   5     0.00000     9.20480     0.00000  0.0
      6      8      7     15   5     0.00000     9.20480     0.00000  0.0
      3      7      8     16   5     0.00000     9.20480     0.00000  0.0
     19     21     20     25   5     0.00000    33.47200     0.00000  0.0
     20     22     21     29   5     0.00000     9.20480     0.00000  0.0
     21     23     22     30   5     0.00000     9.20480     0.00000  0.0
     22     24     23     31   5     0.00000     9.20480     0.00000  0.0
     23     25     24     32   5     0.00000     9.20480     0.00000  0.0
     20     24     25     33   5     0.00000     9.20480     0.00000  0.0
     35     37     36     41   5     0.00000    33.47200     0.00000  0.0
     36     38     37     45   5     0.00000     9.20480     0.00000  0.0
     37     39     38     46   5     0.00000     9.20480     0.00000  0.0
     38     40     39     47   5     0.00000     9.20480     0.00000  0.0
     39     41     40     48   5     0.00000     9.20480     0.00000  0.0
     36     40     41     49   5     0.00000     9.20480     0.00000  0.0
     51     53     52     57   5     0.00000    33.47200     0.00000  0.0
     52     54     53     61   5     0.00000     9.20480     0.00000  0.0
     53     55     54     62   5     0.00000     9.20480     0.00000  0.0
     54     56     55     63   5     0.00000     9.20480     0.00000  0.0
     55     57     56     64   5     0.00000     9.20480     0.00000  0.0
     52     56     57     65   5     0.00000     9.20480     0.00000  0.0
     67     69     68     73   5     0.00000    33.47200     0.00000  0.0
     68     70     69     77   5     0.00000     9.20480     0.00000  0.0
     69     71     70     78   5     0.00000     9.20480     0.00000  0.0
     70     72     71     79   5     0.00000     9.20480     0.00000  0.0
     71     73     72     80   5     0.00000     9.20480     0.00000  0.0
     68     72     73     81   5     0.00000     9.20480     0.00000  0.0
     83     85     84     89   5     0.00000    33.47200     0.00000  0.0
     84     86     85     93   5     0.00000     9.20480     0.00000  0.0
     85     87     86     94   5     0.00000     9.20480     0.00000  0.0
     86     88     87     95   5     0.00000     9.20480     0.00000  0.0
     87     89     88     96   5     0.00000     9.20480     0.00000  0.0
     84     88     89     97   5     0.00000     9.20480     0.00000  0.0
     99    101    100    105   5     0.00000    33.47200     0.00000  0.0
    100    102    101    109   5     0.00000     9.20480     0.00000  0.0
    101    103    102    110   5     0.00000     9.20480     0.00000  0.0
    102    104    103    111   5     0.00000     9.20480     0.00000  0.0
    103    105    104    112   5     0.00000     9.20480     0.00000  0.0
    100    104    105    113   5     0.00000     9.20480     0.00000  0.0
    115    117    116    121   5     0.00000    33.47200     0.00000  0.0
    116    118    117    125   5     0.00000     9.20480     0.00000  0.0
    117    119    118    126   5     0.00000     9.20480     0.00000  0.0
    118    120    119    127   5     0.00000     9.20480     0.00000  0.0
    119    121    120    128   5     0.00000     9.20480     0.00000  0.0
    116    120    121    129   5     0.00000     9.20480     0.00000  0.0
    131    133    132    137   5     0.00000    33.47200     0.00000  0.0
    132    134    133    141   5     0.00000     9.20480     0.00000  0.0
    133    135    134    142   5     0.00000     9.20480     0.00000  0.0
    134    136    135    143   5     0.00000     9.20480     0.00000  0.0
    135    137    136    144   5     0.00000     9.20480     0.00000  0.0
    132    136    137    145   5     0.00000     9.20480     0.00000  0.0
    147    149    148    153   5     0.00000    33.47200     0.00000  0.0
    148    150    149    157   5     0.00000     9.20480     0.00000  0.0
    149    151    150    158   5     0.00000     9.20480     0.00000  0.0
    150    152    151    159   5     0.00000     9.20480     0.00000  0.0
    151    153    152    160   5     0.00000     9.20480     0.00000  0.0
    148    152    153    161   5     0.00000     9.20480     0.00000  0.0
    163    165    164    169   5     0.00000    33.47200     0.00000  0.0
    164    166    165    173   5     0.00000     9.20480     0.00000  0.0
    165    167    166    174   5     0.00000     9.20480     0.00000  0.0
    166    168    167    175   5     0.00000     9.20480     0.00000  0.0
    167    169    168    176   5     0.00000     9.20480     0.00000  0.0
    164    168    169    177   5     0.00000     9.20480     0.00000  0.0
    179    181    180    185   5     0.00000    33.47200     0.00000  0.0
    180    182    181    189   5     0.00000     9.20480     0.00000  0.0
    181    183    182    190   5     0.00000     9.20480     0.00000  0.0
    182    184    183    191   5     0.00000     9.20480     0.00000  0.0
    183    185    184    192   5     0.00000     9.20480     0.00000  0.0
    180    184    185    193   5     0.00000     9.20480     0.00000  0.0
    195    197    196    201   5     0.00000    33.47200     0.00000  0.0
    196    198    197    205   5     0.00000     9.20480     0.00000  0.0
    197    199    198    206   5     0.00000     9.20480     0.00000  0.0
    198    200    199    207   5     0.00000     9.20480     0.00000  0.0
    199    201    200    208   5     0.00000     9.20480     0.00000  0.0
    196    200    201    209   5     0.00000     9.20480     0.00000  0.0
    211    213    212    217   5     0.00000    33.47200     0.00000  0.0
    212    214    213    221   5     0.00000     9.20480     0.00000  0.0
    213    215    214    222   5     0.00000     9.20480     0.00000  0.0
    214    216    215    223   5     0.00000     9.20480     0.00000  0.0
    215    217    216    224   5     0.00000     9.20480     0.00000  0.0
    212    216    217    225   5     0.00000     9.20480     0.00000  0.0
    227    229    228    233   5     0.00000    33.47200     0.00000  0.0
    228    230    229    237   5     0.00000     9.20480     0.00000  0.0
    229    231    230    238   5     0.00000     9.20480     0.00000  0.0
    230    232    231    239   5     0.00000     9.20480     0.00000  0.0
    231    233    232    240   5     0.00000     9.20480     0.00000  0.0
    228    232    233    241   5     0.00000     9.20480     0.00000  0.0
    243    245    244    249   5     0.00000    33.47200     0.00000  0.0
    244    246    245    253   5     0.00000     9.20480     0.00000  0.0
    245    247    246    254   5     0.00000     9.20480     0.00000  0.0
    246    248    247    255   5     0.00000     9.20480     0.00000  0.0
    247    249    248    256   5     0.00000     9.20480     0.00000  0.0
    244    248    249    257   5     0.00000     9.20480     0.00000  0.0
    259    261    260    265   5     0.00000    33.47200     0.00000  0.0
    260    262    261    269   5     0.00000     9.20480     0.00000  0.0
    261    263    262    270   5     0.00000     9.20480     0.00000  0.0
    262    264    263    271   5     0.00000     9.20480     0.00000  0.0
    263    265    264    272   5     0.00000     9.20480     0.00000  0.0
    260    264    265    273   5     0.00000     9.20480     0.00000  0.0
    275    277    276    281   5     0.00000    33.47200     0.00000  0.0
    276    278    277    285   5     0.00000     9.20480     0.00000  0.0
    277    279    278    286   5     0.00000     9.20480     0.00000  0.0
    278    280    279    287   5     0.00000     9.20480     0.00000  0.0
    279    281    280    288   5     0.00000     9.20480     0.00000  0.0
    276    280    281    289   5     0.00000     9.20480     0.00000  0.0
    291    293    292    297   5     0.00000    33.47200     0.00000  0.0
    292    294    293    301   5     0.00000     9.20480     0.00000  0.0
    293    295    294    302   5     0.00000     9.20480     0.00000  0.0
    294    296    295    303   5     0.00000     9.20480     0.00000  0.0
    295    297    296    304   5     0.00000     9.20480     0.00000  0.0
    292    296    297    305   5     0.00000     9.20480     0.00000  0.0
    307    309    308    313   5     0.00000    33.47200     0.00000  0.0
    308    310    309    317   5     0.00000     9.20480     0.00000  0.0
    309    311    310    318   5     0.00000     9.20480     0.00000  0.0
    310    312    311    319   5     0.00000     9.20480     0.00000  0.0
    311    313    312    320   5     0.00000     9.20480     0.00000  0.0
    308    312    313    321   5     0.00000     9.20480     0.00000  0.0
